<event>
 6    1  0.1817112E-005  0.1178702E+04  0.7818608E-02  0.9131706E-01
          2   -1    0    0  501    0  0.00000000000E+00  0.00000000000E+00  0.15799356474E+04  0.15799356474E+04  0.00000000000E+00 0. -1.
         -2   -1    0    0    0  501 -0.00000000000E+00 -0.00000000000E+00 -0.21984095461E+03  0.21984095461E+03  0.00000000000E+00 0.  1.
         23    2    1    2    0    0 -0.30453061281E+03  0.51698880684E+02  0.14441260856E+04  0.14796626483E+04  0.92139748333E+02 0.  0.
         13    1    3    3    0    0 -0.25442003275E+03  0.40893816261E+02  0.10031899839E+04  0.10357567287E+04  0.00000000000E+00 0.  1.
        -13    1    3    3    0    0 -0.50110580063E+02  0.10805064423E+02  0.44093610177E+03  0.44390591964E+03  0.00000000000E+00 0. -1.
         22    1    1    2    0    0  0.30453061281E+03 -0.51698880684E+02 -0.84031392791E+02  0.32011395374E+03  0.00000000000E+00 0.  1.
<mgrwt>
<rscale>  0 0.11787019E+04</rscale>
<asrwt>0</asrwt>
<pdfrwt beam="1">  1        2 0.24306702E+00 0.11787019E+04</pdfrwt>
<pdfrwt beam="2">  1       -2 0.33821686E-01 0.11787019E+04</pdfrwt>
<totfact> 0.92441548E+01</totfact>
</mgrwt>
</event>
<event>
 6    1  0.1817112E-005  0.1641235E+04  0.7818608E-02  0.8795609E-01
         -1   -1    0    0    0  501 -0.00000000000E+00  0.00000000000E+00  0.33895623156E+03  0.33895623156E+03  0.00000000000E+00 0.  1.
          1   -1    0    0  501    0  0.00000000000E+00 -0.00000000000E+00 -0.19867249603E+04  0.19867249603E+04  0.00000000000E+00 0. -1.
         23    2    1    2    0    0 -0.37829410640E+03 -0.49578036033E+03 -0.75498695044E+02  0.63425053841E+03  0.87573374346E+02 0.  0.
         13    1    3    3    0    0 -0.23551516560E+03 -0.27534138613E+03 -0.82170590143E+02  0.37152695464E+03  0.00000000000E+00 0. -1.
        -13    1    3    3    0    0 -0.14277894080E+03 -0.22043897420E+03  0.66718950990E+01  0.26272358376E+03  0.00000000000E+00 0.  1.
         22    1    1    2    0    0  0.37829410640E+03  0.49578036033E+03 -0.15722700337E+04  0.16914306535E+04  0.00000000000E+00 0. -1.
<mgrwt>
<rscale>  0 0.16412347E+04</rscale>
<asrwt>0</asrwt>
<pdfrwt beam="1">  1        1 0.30565000E+00 0.16412347E+04</pdfrwt>
<pdfrwt beam="2">  1       -1 0.52147112E-01 0.16412347E+04</pdfrwt>
<totfact> 0.10778544E+01</totfact>
</mgrwt>
</event>
<event>
 6    1  0.1817112E-005  0.3593352E+04  0.7818608E-02  0.8092016E-01
          2   -1    0    0  501    0  0.00000000000E+00  0.00000000000E+00  0.26262654484E+04  0.26262654484E+04  0.00000000000E+00 0.  1.
         -2   -1    0    0    0  501 -0.00000000000E+00 -0.00000000000E+00 -0.12291390726E+04  0.12291390726E+04  0.00000000000E+00 0. -1.
         23    2    1    2    0    0  0.16246353238E+04 -0.52420366132E+03  0.10196320125E+03  0.17125846353E+04  0.91215264900E+02 0.  0.
         11    1    3    3    0    0  0.22321209869E+03 -0.61057005564E+02  0.43434804837E+02  0.23545314014E+03  0.00000000000E+00 0.  1.
        -11    1    3    3    0    0  0.14014232252E+04 -0.46314665576E+03  0.58528396417E+02  0.14771314951E+04  0.00000000000E+00 0. -1.
         22    1    1    2    0    0 -0.16246353238E+04  0.52420366132E+03  0.12951631746E+04  0.21428198858E+04  0.00000000000E+00 0. -1.
<mgrwt>
<rscale>  0 0.35933525E+04</rscale>
<asrwt>0</asrwt>
<pdfrwt beam="1">  1        2 0.40404084E+00 0.35933525E+04</pdfrwt>
<pdfrwt beam="2">  1       -2 0.18909832E+00 0.35933525E+04</pdfrwt>
<totfact> 0.37635104E-01</totfact>
</mgrwt>
</event>
<event>
 6    1  0.1817112E-005  0.3310375E+04  0.7818608E-02  0.8160260E-01
          2   -1    0    0  501    0  0.00000000000E+00  0.00000000000E+00  0.29891712750E+04  0.29891712750E+04  0.00000000000E+00 0. -1.
         -2   -1    0    0    0  501 -0.00000000000E+00 -0.00000000000E+00 -0.91652373214E+03  0.91652373214E+03  0.00000000000E+00 0.  1.
         23    2    1    2    0    0  0.73106233905E+03 -0.25711167189E+03  0.27610094543E+04  0.28691619992E+04  0.91426556225E+02 0.  0.
         11    1    3    3    0    0  0.42829802864E+03 -0.14331960489E+03  0.17696248105E+04  0.18263492767E+04  0.00000000000E+00 0. -1.
        -11    1    3    3    0    0  0.30276431041E+03 -0.11379206700E+03  0.99138464381E+03  0.10428127225E+04  0.00000000000E+00 0.  1.
         22    1    1    2    0    0 -0.73106233905E+03  0.25711167189E+03 -0.68836191149E+03  0.10365330080E+04  0.00000000000E+00 0.  1.
<mgrwt>
<rscale>  0 0.33103755E+04</rscale>
<asrwt>0</asrwt>
<pdfrwt beam="1">  1        2 0.45987250E+00 0.33103755E+04</pdfrwt>
<pdfrwt beam="2">  1       -2 0.14100365E+00 0.33103755E+04</pdfrwt>
<totfact> 0.51993910E-01</totfact>
</mgrwt>
</event>
<event>
 6    1  0.1817112E-005  0.1923089E+04  0.7818608E-02  0.8643448E-01
          2   -1    0    0  501    0  0.00000000000E+00  0.00000000000E+00  0.38386543318E+04  0.38386543318E+04  0.00000000000E+00 0. -1.
         -2   -1    0    0    0  501 -0.00000000000E+00 -0.00000000000E+00 -0.24085730937E+03  0.24085730937E+03  0.00000000000E+00 0.  1.
         23    2    1    2    0    0  0.80632854028E+03  0.50588295150E+03  0.15487904333E+04  0.18201950901E+04  0.90967490830E+02 0.  0.
         11    1    3    3    0    0  0.64331353047E+03  0.35877204747E+03  0.11854647011E+04  0.13956705335E+04  0.00000000000E+00 0.  1.
        -11    1    3    3    0    0  0.16301500981E+03  0.14711090402E+03  0.36332573217E+03  0.42452455661E+03  0.00000000000E+00 0. -1.
         22    1    1    2    0    0 -0.80632854028E+03 -0.50588295150E+03  0.20490065891E+04  0.22593165510E+04  0.00000000000E+00 0. -1.
<mgrwt>
<rscale>  0 0.19230891E+04</rscale>
<asrwt>0</asrwt>
<pdfrwt beam="1">  1        2 0.59056216E+00 0.19230891E+04</pdfrwt>
<pdfrwt beam="2">  1       -2 0.37054973E-01 0.19230891E+04</pdfrwt>
<totfact> 0.29735242E+00</totfact>
</mgrwt>
</event>
<event>
 6    1  0.1817112E-005  0.2885948E+04  0.7818608E-02  0.8277071E-01
         -2   -1    0    0    0  501 -0.00000000000E+00  0.00000000000E+00  0.81613123280E+03  0.81613123280E+03  0.00000000000E+00 0.  1.
          2   -1    0    0  501    0  0.00000000000E+00 -0.00000000000E+00 -0.25512725919E+04  0.25512725919E+04  0.00000000000E+00 0. -1.
         23    2    1    2    0    0  0.29590496316E+03 -0.79862613503E+03  0.48898095157E+03  0.98579019029E+03  0.85536410431E+02 0.  0.
         11    1    3    3    0    0  0.25464875840E+03 -0.58415154520E+03  0.37578369879E+03  0.73979213715E+03  0.00000000000E+00 0. -1.
        -11    1    3    3    0    0  0.41256204759E+02 -0.21447458983E+03  0.11319725278E+03  0.24599805314E+03  0.00000000000E+00 0.  1.
         22    1    1    2    0    0 -0.29590496316E+03  0.79862613503E+03 -0.22241223106E+04  0.23816136344E+04  0.00000000000E+00 0. -1.
<mgrwt>
<rscale>  0 0.28859475E+04</rscale>
<asrwt>0</asrwt>
<pdfrwt beam="1">  1        2 0.39250347E+00 0.28859475E+04</pdfrwt>
<pdfrwt beam="2">  1       -2 0.12555865E+00 0.28859475E+04</pdfrwt>
<totfact> 0.13311064E+00</totfact>
</mgrwt>
</event>
<event>
 6    1  0.1817112E-005  0.3924575E+04  0.7818608E-02  0.8019937E-01
          2   -1    0    0  501    0  0.00000000000E+00  0.00000000000E+00  0.22939173382E+04  0.22939173382E+04  0.00000000000E+00 0. -1.
         -2   -1    0    0    0  501 -0.00000000000E+00 -0.00000000000E+00 -0.16786013325E+04  0.16786013325E+04  0.00000000000E+00 0.  1.
         23    2    1    2    0    0 -0.31110566882E+03 -0.65978559762E+03  0.21505875157E+04  0.22727650469E+04  0.91271705002E+02 0.  0.
         11    1    3    3    0    0 -0.22251880629E+03 -0.49893329229E+03  0.17194298040E+04  0.18041307880E+04  0.00000000000E+00 0. -1.
        -11    1    3    3    0    0 -0.88586862522E+02 -0.16085230533E+03  0.43115771161E+03  0.46863425890E+03  0.00000000000E+00 0.  1.
         22    1    1    2    0    0  0.31110566882E+03  0.65978559762E+03 -0.15352715100E+04  0.16997536237E+04  0.00000000000E+00 0.  1.
<mgrwt>
<rscale>  0 0.39245752E+04</rscale>
<asrwt>0</asrwt>
<pdfrwt beam="1">  1        2 0.35291036E+00 0.39245752E+04</pdfrwt>
<pdfrwt beam="2">  1       -2 0.25824636E+00 0.39245752E+04</pdfrwt>
<totfact> 0.20744143E-01</totfact>
</mgrwt>
</event>
<event>
 6    1  0.1817112E-005  0.1048703E+04  0.7818608E-02  0.9256684E-01
          2   -1    0    0  501    0  0.00000000000E+00  0.00000000000E+00  0.19653870335E+04  0.19653870335E+04  0.00000000000E+00 0. -1.
         -2   -1    0    0    0  501 -0.00000000000E+00 -0.00000000000E+00 -0.13989328813E+03  0.13989328813E+03  0.00000000000E+00 0.  1.
         23    2    1    2    0    0  0.47027645679E+03  0.13011531444E+01  0.46680583100E+03  0.66750617822E+03  0.80592650348E+02 0.  0.
         13    1    3    3    0    0  0.21509245364E+03 -0.28209057564E+02  0.25313178412E+03  0.33337098655E+03  0.00000000000E+00 0. -1.
        -13    1    3    3    0    0  0.25518400315E+03  0.29510210709E+02  0.21367404688E+03  0.33413519167E+03  0.00000000000E+00 0.  1.
         22    1    1    2    0    0 -0.47027645679E+03 -0.13011531444E+01  0.13586879144E+04  0.14377741434E+04  0.00000000000E+00 0. -1.
<mgrwt>
<rscale>  0 0.10487029E+04</rscale>
<asrwt>0</asrwt>
<pdfrwt beam="1">  1        2 0.30236722E+00 0.10487029E+04</pdfrwt>
<pdfrwt beam="2">  1       -2 0.21522046E-01 0.10487029E+04</pdfrwt>
<totfact> 0.13089438E+02</totfact>
</mgrwt>
</event>
<event>
 6    1  0.1817112E-005  0.3026219E+04  0.7818608E-02  0.8236283E-01
          2   -1    0    0  501    0  0.00000000000E+00  0.00000000000E+00  0.20251678836E+04  0.20251678836E+04  0.00000000000E+00 0. -1.
         -2   -1    0    0    0  501 -0.00000000000E+00 -0.00000000000E+00 -0.11305236997E+04  0.11305236997E+04  0.00000000000E+00 0.  1.
         23    2    1    2    0    0 -0.12299573498E+04  0.29175205113E+02 -0.46837352581E+03  0.13195370278E+04  0.90321277648E+02 0.  0.
         11    1    3    3    0    0 -0.82161738998E+03  0.59174892089E+02 -0.29643747336E+03  0.87546100940E+03  0.00000000000E+00 0. -1.
        -11    1    3    3    0    0 -0.40833995981E+03 -0.29999686976E+02 -0.17193605245E+03  0.44407601841E+03  0.00000000000E+00 0.  1.
         22    1    1    2    0    0  0.12299573498E+04 -0.29175205113E+02  0.13630177097E+04  0.18361545555E+04  0.00000000000E+00 0. -1.
<mgrwt>
<rscale>  0 0.30262190E+04</rscale>
<asrwt>0</asrwt>
<pdfrwt beam="1">  1        2 0.31156429E+00 0.30262190E+04</pdfrwt>
<pdfrwt beam="2">  1       -2 0.17392672E+00 0.30262190E+04</pdfrwt>
<totfact> 0.11048163E+00</totfact>
</mgrwt>
</event>
<event>
 6    1  0.1817112E-005  0.5384159E+04  0.7818608E-02  0.7771833E-01
          2   -1    0    0  501    0  0.00000000000E+00  0.00000000000E+00  0.19578607254E+04  0.19578607254E+04  0.00000000000E+00 0. -1.
         -2   -1    0    0    0  501 -0.00000000000E+00 -0.00000000000E+00 -0.37016387358E+04  0.37016387358E+04  0.00000000000E+00 0.  1.
         23    2    1    2    0    0 -0.25136279047E+04 -0.95627927064E+03 -0.76802649551E+03  0.27985754311E+04  0.96770136206E+02 0.  0.
         13    1    3    3    0    0 -0.74638403119E+03 -0.29799561968E+03 -0.27368004140E+03  0.84899427349E+03  0.00000000000E+00 0. -1.
        -13    1    3    3    0    0 -0.17672438735E+04 -0.65828365096E+03 -0.49434645411E+03  0.19495811576E+04  0.00000000000E+00 0.  1.
         22    1    1    2    0    0  0.25136279047E+04  0.95627927064E+03 -0.97575151491E+03  0.28609240300E+04  0.00000000000E+00 0.  1.
<mgrwt>
<rscale>  0 0.53841594E+04</rscale>
<asrwt>0</asrwt>
<pdfrwt beam="1">  1        2 0.30120934E+00 0.53841594E+04</pdfrwt>
<pdfrwt beam="2">  1       -2 0.56948288E+00 0.53841594E+04</pdfrwt>
<totfact> 0.34627452E-03</totfact>
</mgrwt>
</event>
<event>
 6    1  0.1817112E-005  0.2058840E+04  0.7818608E-02  0.8579594E-01
         -2   -1    0    0    0  501 -0.00000000000E+00  0.00000000000E+00  0.81061226115E+03  0.81061226115E+03  0.00000000000E+00 0.  1.
          2   -1    0    0  501    0  0.00000000000E+00 -0.00000000000E+00 -0.13072906677E+04  0.13072906677E+04  0.00000000000E+00 0. -1.
         23    2    1    2    0    0  0.56190622239E+03 -0.84170638696E+03 -0.43084536558E+03  0.11037322164E+04  0.91590566627E+02 0.  0.
         11    1    3    3    0    0  0.30947040258E+03 -0.38957606060E+03 -0.23307710191E+03  0.54942367305E+03  0.00000000000E+00 0. -1.
        -11    1    3    3    0    0  0.25243581981E+03 -0.45213032635E+03 -0.19776826367E+03  0.55430854336E+03  0.00000000000E+00 0.  1.
         22    1    1    2    0    0 -0.56190622239E+03  0.84170638696E+03 -0.65833040925E+02  0.10141707124E+04  0.00000000000E+00 0.  1.
<mgrwt>
<rscale>  0 0.20588403E+04</rscale>
<asrwt>0</asrwt>
<pdfrwt beam="1">  1        2 0.20112164E+00 0.20588403E+04</pdfrwt>
<pdfrwt beam="2">  1       -2 0.12470958E+00 0.20588403E+04</pdfrwt>
<totfact> 0.73015425E+00</totfact>
</mgrwt>
</event>
<event>
 6    1  0.1817112E-005  0.3016946E+04  0.7818608E-02  0.8238908E-01
         -2   -1    0    0    0  501 -0.00000000000E+00  0.00000000000E+00  0.13394220364E+04  0.13394220364E+04  0.00000000000E+00 0.  1.
          2   -1    0    0  501    0  0.00000000000E+00 -0.00000000000E+00 -0.16988603416E+04  0.16988603416E+04  0.00000000000E+00 0. -1.
         23    2    1    2    0    0  0.77546103473E+02  0.13809747690E+04  0.42300249446E+03  0.14491573622E+04  0.89561371195E+02 0.  0.
         13    1    3    3    0    0  0.33465473142E+02  0.81460735718E+03  0.20490162120E+03  0.84064841559E+03  0.00000000000E+00 0.  1.
        -13    1    3    3    0    0  0.44080630330E+02  0.56636741185E+03  0.21810087326E+03  0.60850894660E+03  0.00000000000E+00 0. -1.
         22    1    1    2    0    0 -0.77546103473E+02 -0.13809747690E+04 -0.78244079966E+03  0.15891250158E+04  0.00000000000E+00 0. -1.
<mgrwt>
<rscale>  0 0.30169461E+04</rscale>
<asrwt>0</asrwt>
<pdfrwt beam="1">  1        2 0.26136313E+00 0.30169461E+04</pdfrwt>
<pdfrwt beam="2">  1       -2 0.20606493E+00 0.30169461E+04</pdfrwt>
<totfact> 0.10194161E+00</totfact>
</mgrwt>
</event>
<event>
 6    1  0.1817112E-005  0.1875768E+04  0.7818608E-02  0.8667013E-01
         -1   -1    0    0    0  501 -0.00000000000E+00  0.00000000000E+00  0.26003833583E+03  0.26003833583E+03  0.00000000000E+00 0.  1.
          1   -1    0    0  501    0  0.00000000000E+00 -0.00000000000E+00 -0.33826793210E+04  0.33826793210E+04  0.00000000000E+00 0. -1.
         23    2    1    2    0    0  0.64603951836E+03  0.55810642862E+02 -0.25531295141E+03  0.70298094408E+03  0.92280103176E+02 0.  0.
         13    1    3    3    0    0  0.34223287117E+03  0.50985864277E+02 -0.17959974736E+03  0.38984479696E+03  0.00000000000E+00 0. -1.
        -13    1    3    3    0    0  0.30380664719E+03  0.48247785843E+01 -0.75713204049E+02  0.31313614712E+03  0.00000000000E+00 0.  1.
         22    1    1    2    0    0 -0.64603951836E+03 -0.55810642862E+02 -0.28673280338E+04  0.29397367128E+04  0.00000000000E+00 0. -1.
<mgrwt>
<rscale>  0 0.18757679E+04</rscale>
<asrwt>0</asrwt>
<pdfrwt beam="1">  1        1 0.52041219E+00 0.18757679E+04</pdfrwt>
<pdfrwt beam="2">  1       -1 0.40005899E-01 0.18757679E+04</pdfrwt>
<totfact> 0.17701556E+00</totfact>
</mgrwt>
</event>
<event>
 6    1  0.1817112E-005  0.1344314E+04  0.7818608E-02  0.8995144E-01
          2   -1    0    0  501    0  0.00000000000E+00  0.00000000000E+00  0.17602031574E+04  0.17602031574E+04  0.00000000000E+00 0. -1.
         -2   -1    0    0    0  501 -0.00000000000E+00 -0.00000000000E+00 -0.25667201592E+03  0.25667201592E+03  0.00000000000E+00 0.  1.
         23    2    1    2    0    0 -0.37426784852E+03  0.52655404004E+03  0.48118733890E+03  0.80752723736E+03  0.56775033662E+02 0.  0.
         13    1    3    3    0    0 -0.33920425908E+03  0.47486763018E+03  0.45415938508E+03  0.73947247591E+03  0.00000000000E+00 0. -1.
        -13    1    3    3    0    0 -0.35063589445E+02  0.51686409859E+02  0.27027953812E+02  0.68054761451E+02  0.00000000000E+00 0.  1.
         22    1    1    2    0    0  0.37426784852E+03 -0.52655404004E+03  0.10223438026E+04  0.12093479360E+04  0.00000000000E+00 0. -1.
<mgrwt>
<rscale>  0 0.13443138E+04</rscale>
<asrwt>0</asrwt>
<pdfrwt beam="1">  1        2 0.27080048E+00 0.13443138E+04</pdfrwt>
<pdfrwt beam="2">  1       -2 0.39488003E-01 0.13443138E+04</pdfrwt>
<totfact> 0.53810495E+01</totfact>
</mgrwt>
</event>
<event>
 6    1  0.1817112E-005  0.4354547E+04  0.7818608E-02  0.7936608E-01
         -1   -1    0    0    0  501 -0.00000000000E+00  0.00000000000E+00  0.19499906346E+04  0.19499906346E+04  0.00000000000E+00 0. -1.
          1   -1    0    0  501    0  0.00000000000E+00 -0.00000000000E+00 -0.24310477323E+04  0.24310477323E+04  0.00000000000E+00 0.  1.
         23    2    1    2    0    0  0.16260257180E+04 -0.10564231159E+04  0.75385168470E+03  0.20821279433E+04  0.83516310676E+02 0.  0.
         13    1    3    3    0    0  0.10083481664E+04 -0.60657846085E+03  0.46006771303E+03  0.12634736857E+04  0.00000000000E+00 0. -1.
        -13    1    3    3    0    0  0.61767755165E+03 -0.44984465504E+03  0.29378397167E+03  0.81865425761E+03  0.00000000000E+00 0.  1.
         22    1    1    2    0    0 -0.16260257180E+04  0.10564231159E+04 -0.12349087824E+04  0.22989104237E+04  0.00000000000E+00 0.  1.
<mgrwt>
<rscale>  0 0.43545472E+04</rscale>
<asrwt>0</asrwt>
<pdfrwt beam="1">  1        1 0.37400734E+00 0.43545472E+04</pdfrwt>
<pdfrwt beam="2">  1       -1 0.29999856E+00 0.43545472E+04</pdfrwt>
<totfact> 0.37976124E-02</totfact>
</mgrwt>
</event>
<event>
 6    1  0.1817112E-005  0.2531395E+04  0.7818608E-02  0.8391885E-01
          1   -1    0    0  501    0  0.00000000000E+00  0.00000000000E+00  0.14109825021E+04  0.14109825021E+04  0.00000000000E+00 0. -1.
         -1   -1    0    0    0  501 -0.00000000000E+00 -0.00000000000E+00 -0.11353721878E+04  0.11353721878E+04  0.00000000000E+00 0.  1.
         23    2    1    2    0    0 -0.87819923030E+03 -0.70801352366E+03 -0.43596799910E+03  0.12126153099E+04  0.88604491030E+02 0.  0.
         11    1    3    3    0    0 -0.76505667183E+03 -0.62591287309E+03 -0.41146462904E+03  0.10706921952E+04  0.00000000000E+00 0. -1.
        -11    1    3    3    0    0 -0.11314255846E+03 -0.82100650574E+02 -0.24503370059E+02  0.14192311477E+03  0.00000000000E+00 0.  1.
         22    1    1    2    0    0  0.87819923030E+03  0.70801352366E+03  0.71157831337E+03  0.13337393800E+04  0.00000000000E+00 0. -1.
<mgrwt>
<rscale>  0 0.25313951E+04</rscale>
<asrwt>0</asrwt>
<pdfrwt beam="1">  1        1 0.21707423E+00 0.25313951E+04</pdfrwt>
<pdfrwt beam="2">  1       -1 0.17467265E+00 0.25313951E+04</pdfrwt>
<totfact> 0.15209563E+00</totfact>
</mgrwt>
</event>
<event>
 6    1  0.1817112E-005  0.1928911E+04  0.7818608E-02  0.8640598E-01
          2   -1    0    0  501    0  0.00000000000E+00  0.00000000000E+00  0.15825811074E+04  0.15825811074E+04  0.00000000000E+00 0. -1.
         -2   -1    0    0    0  501 -0.00000000000E+00 -0.00000000000E+00 -0.58775779903E+03  0.58775779903E+03  0.00000000000E+00 0.  1.
         23    2    1    2    0    0 -0.80664351324E+03 -0.36983192228E+03  0.91771168936E+03  0.12796113330E+04  0.88096598092E+02 0.  0.
         13    1    3    3    0    0 -0.60557425997E+03 -0.24508014029E+03  0.63656831961E+03  0.91214236007E+03  0.00000000000E+00 0.  1.
        -13    1    3    3    0    0 -0.20106925326E+03 -0.12475178198E+03  0.28114336976E+03  0.36746897294E+03  0.00000000000E+00 0. -1.
         22    1    1    2    0    0  0.80664351324E+03  0.36983192228E+03  0.77111618961E+02  0.89072757337E+03  0.00000000000E+00 0.  1.
<mgrwt>
<rscale>  0 0.19289110E+04</rscale>
<asrwt>0</asrwt>
<pdfrwt beam="1">  1        2 0.24347402E+00 0.19289110E+04</pdfrwt>
<pdfrwt beam="2">  1       -2 0.90424277E-01 0.19289110E+04</pdfrwt>
<totfact> 0.11141157E+01</totfact>
</mgrwt>
</event>
<event>
 6    1  0.1817112E-005  0.1867102E+04  0.7818608E-02  0.8671407E-01
          2   -1    0    0  501    0  0.00000000000E+00  0.00000000000E+00  0.12543002179E+04  0.12543002179E+04  0.00000000000E+00 0. -1.
         -2   -1    0    0    0  501 -0.00000000000E+00 -0.00000000000E+00 -0.69482399099E+03  0.69482399099E+03  0.00000000000E+00 0.  1.
         23    2    1    2    0    0 -0.22253900301E+03  0.82664578747E+03  0.66340446809E+03  0.10867623678E+04  0.89889320329E+02 0.  0.
         11    1    3    3    0    0 -0.76928444537E+02  0.34270526345E+03  0.21998907928E+03  0.41443947469E+03  0.00000000000E+00 0.  1.
        -11    1    3    3    0    0 -0.14561055847E+03  0.48394052402E+03  0.44341538881E+03  0.67232289308E+03  0.00000000000E+00 0. -1.
         22    1    1    2    0    0  0.22253900301E+03 -0.82664578747E+03 -0.10392824114E+03  0.86236184117E+03  0.00000000000E+00 0. -1.
<mgrwt>
<rscale>  0 0.18671024E+04</rscale>
<asrwt>0</asrwt>
<pdfrwt beam="1">  1        2 0.19296926E+00 0.18671024E+04</pdfrwt>
<pdfrwt beam="2">  1       -2 0.10689600E+00 0.18671024E+04</pdfrwt>
<totfact> 0.11628335E+01</totfact>
</mgrwt>
</event>
<event>
 6    1  0.1817112E-005  0.4278360E+04  0.7818608E-02  0.7950632E-01
         -2   -1    0    0    0  501 -0.00000000000E+00  0.00000000000E+00  0.29886407077E+04  0.29886407077E+04  0.00000000000E+00 0.  1.
          2   -1    0    0  501    0  0.00000000000E+00 -0.00000000000E+00 -0.15311610019E+04  0.15311610019E+04  0.00000000000E+00 0. -1.
         23    2    1    2    0    0  0.17417654557E+04  0.19613139439E+03 -0.56495467775E+03  0.18435253295E+04  0.84837646959E+02 0.  0.
         13    1    3    3    0    0  0.84136600111E+03  0.53449794956E+02 -0.26027700579E+03  0.88232519411E+03  0.00000000000E+00 0.  1.
        -13    1    3    3    0    0  0.90039945455E+03  0.14268159944E+03 -0.30467767196E+03  0.96120013543E+03  0.00000000000E+00 0. -1.
         22    1    1    2    0    0 -0.17417654557E+04 -0.19613139439E+03  0.20224343836E+04  0.26762763800E+04  0.00000000000E+00 0.  1.
<mgrwt>
<rscale>  0 0.42783595E+04</rscale>
<asrwt>0</asrwt>
<pdfrwt beam="1">  1        2 0.23556323E+00 0.42783595E+04</pdfrwt>
<pdfrwt beam="2">  1       -2 0.45979088E+00 0.42783595E+04</pdfrwt>
<totfact> 0.28154917E-02</totfact>
</mgrwt>
</event>
<event>
 6    1  0.1817112E-005  0.2602260E+04  0.7818608E-02  0.8367434E-01
          2   -1    0    0  501    0  0.00000000000E+00  0.00000000000E+00  0.10426546826E+04  0.10426546826E+04  0.00000000000E+00 0.  1.
         -2   -1    0    0    0  501 -0.00000000000E+00 -0.00000000000E+00 -0.16236810567E+04  0.16236810567E+04  0.00000000000E+00 0. -1.
         23    2    1    2    0    0  0.10826458602E+04  0.80580958620E+01  0.44535351136E+03  0.11744769454E+04  0.94177245816E+02 0.  0.
         11    1    3    3    0    0  0.27618908877E+03  0.37162897157E+02  0.91409718497E+02  0.29328694195E+03  0.00000000000E+00 0. -1.
        -11    1    3    3    0    0  0.80645677148E+03 -0.29104801295E+02  0.35394379286E+03  0.88119000347E+03  0.00000000000E+00 0.  1.
         22    1    1    2    0    0 -0.10826458602E+04 -0.80580958620E+01 -0.10263798855E+04  0.14918587939E+04  0.00000000000E+00 0. -1.
<mgrwt>
<rscale>  0 0.26022595E+04</rscale>
<asrwt>0</asrwt>
<pdfrwt beam="1">  1        2 0.16040841E+00 0.26022595E+04</pdfrwt>
<pdfrwt beam="2">  1       -2 0.24979709E+00 0.26022595E+04</pdfrwt>
<totfact> 0.13483930E+00</totfact>
</mgrwt>
</event>
<event>
 6    1  0.1817112E-005  0.4415713E+04  0.7818608E-02  0.7925561E-01
          2   -1    0    0  501    0  0.00000000000E+00  0.00000000000E+00  0.16881164552E+04  0.16881164552E+04  0.00000000000E+00 0. -1.
         -2   -1    0    0    0  501 -0.00000000000E+00 -0.00000000000E+00 -0.28876154945E+04  0.28876154945E+04  0.00000000000E+00 0.  1.
         23    2    1    2    0    0  0.53635946677E+03  0.20673779443E+04 -0.24279986901E+02  0.21379311246E+04  0.91798330796E+02 0.  0.
         13    1    3    3    0    0  0.12053323670E+03  0.62864329275E+03 -0.15631537854E+02  0.64028508935E+03  0.00000000000E+00 0. -1.
        -13    1    3    3    0    0  0.41582623007E+03  0.14387346515E+04 -0.86484490470E+01  0.14976460352E+04  0.00000000000E+00 0.  1.
         22    1    1    2    0    0 -0.53635946677E+03 -0.20673779443E+04 -0.11752190524E+04  0.24378008252E+04  0.00000000000E+00 0.  1.
<mgrwt>
<rscale>  0 0.44157134E+04</rscale>
<asrwt>0</asrwt>
<pdfrwt beam="1">  1        2 0.25971023E+00 0.44157134E+04</pdfrwt>
<pdfrwt beam="2">  1       -2 0.44424853E+00 0.44157134E+04</pdfrwt>
<totfact> 0.28805866E-02</totfact>
</mgrwt>
</event>
<event>
 6    1  0.1817112E-005  0.4802898E+03  0.7818608E-02  0.1019056E+00
          2   -1    0    0  501    0  0.00000000000E+00  0.00000000000E+00  0.10157857846E+04  0.10157857846E+04  0.00000000000E+00 0. -1.
         -2   -1    0    0    0  501 -0.00000000000E+00 -0.00000000000E+00 -0.56773353955E+02  0.56773353955E+02  0.00000000000E+00 0.  1.
         23    2    1    2    0    0  0.15607813018E+03  0.40853053821E+02  0.13068705138E+03  0.22866797930E+03  0.95815367416E+02 0.  0.
         13    1    3    3    0    0  0.74243214842E+02  0.59479449423E+01  0.49593960233E+01  0.74646022051E+02  0.00000000000E+00 0.  1.
        -13    1    3    3    0    0  0.81834915340E+02  0.34905108879E+02  0.12572765536E+03  0.15402195725E+03  0.00000000000E+00 0. -1.
         22    1    1    2    0    0 -0.15607813018E+03 -0.40853053821E+02  0.82832537929E+03  0.84389115927E+03  0.00000000000E+00 0. -1.
<mgrwt>
<rscale>  0 0.48028977E+03</rscale>
<asrwt>0</asrwt>
<pdfrwt beam="1">  1        2 0.15627472E+00 0.48028977E+03</pdfrwt>
<pdfrwt beam="2">  1       -2 0.87343629E-02 0.48028977E+03</pdfrwt>
<totfact> 0.21148956E+03</totfact>
</mgrwt>
</event>
<event>
 6    1  0.1817112E-005  0.6196128E+04  0.7818608E-02  0.7666549E-01
          2   -1    0    0  501    0  0.00000000000E+00  0.00000000000E+00  0.16214293448E+04  0.16214293448E+04  0.00000000000E+00 0. -1.
         -2   -1    0    0    0  501 -0.00000000000E+00 -0.00000000000E+00 -0.59194688776E+04  0.59194688776E+04  0.00000000000E+00 0.  1.
         23    2    1    2    0    0 -0.71771725894E+03  0.24790395205E+04 -0.64755301959E+02  0.25829298494E+04  0.81107028008E+02 0.  0.
         11    1    3    3    0    0 -0.22699157988E+03  0.85624333284E+03  0.10639539824E+02  0.88588431648E+03  0.00000000000E+00 0. -1.
        -11    1    3    3    0    0 -0.49072567905E+03  0.16227961876E+04 -0.75394841782E+02  0.16970455329E+04  0.00000000000E+00 0.  1.
         22    1    1    2    0    0  0.71771725894E+03 -0.24790395205E+04 -0.42332842309E+04  0.49579683730E+04  0.00000000000E+00 0.  1.
<mgrwt>
<rscale>  0 0.61961280E+04</rscale>
<asrwt>0</asrwt>
<pdfrwt beam="1">  1        2 0.24945066E+00 0.61961280E+04</pdfrwt>
<pdfrwt beam="2">  1       -2 0.91068754E+00 0.61961280E+04</pdfrwt>
<totfact> 0.41866902E-05</totfact>
</mgrwt>
</event>
<event>
 6    1  0.1817112E-005  0.2679315E+04  0.7818608E-02  0.8341748E-01
         -2   -1    0    0    0  501 -0.00000000000E+00  0.00000000000E+00  0.12453800479E+04  0.12453800479E+04  0.00000000000E+00 0.  1.
          2   -1    0    0  501    0  0.00000000000E+00 -0.00000000000E+00 -0.14410721729E+04  0.14410721729E+04  0.00000000000E+00 0. -1.
         23    2    1    2    0    0 -0.13193175154E+04 -0.47225132281E+02 -0.31641937870E+03  0.13607810741E+04  0.93674910600E+02 0.  0.
         13    1    3    3    0    0 -0.54444038790E+03 -0.63720179565E+02 -0.14469425694E+03  0.56693211697E+03  0.00000000000E+00 0.  1.
        -13    1    3    3    0    0 -0.77487712747E+03  0.16495047285E+02 -0.17172512176E+03  0.79384895711E+03  0.00000000000E+00 0. -1.
         22    1    1    2    0    0  0.13193175154E+04  0.47225132281E+02  0.12072725369E+03  0.13256711467E+04  0.00000000000E+00 0.  1.
<mgrwt>
<rscale>  0 0.26793152E+04</rscale>
<asrwt>0</asrwt>
<pdfrwt beam="1">  1        2 0.22170341E+00 0.26793152E+04</pdfrwt>
<pdfrwt beam="2">  1       -2 0.19159693E+00 0.26793152E+04</pdfrwt>
<totfact> 0.18221562E+00</totfact>
</mgrwt>
</event>
<event>
 6    1  0.2292078E-005  0.5234877E+04  0.7818608E-02  0.7793262E-01
         -2   -1    0    0    0  501 -0.00000000000E+00  0.00000000000E+00  0.21018317014E+04  0.21018317014E+04  0.00000000000E+00 0. -1.
          2   -1    0    0  501    0  0.00000000000E+00 -0.00000000000E+00 -0.32595307025E+04  0.32595307025E+04  0.00000000000E+00 0.  1.
         23    2    1    2    0    0  0.23799420541E+04  0.10229434506E+04 -0.20086353108E+03  0.25998281200E+04  0.90678614107E+02 0.  0.
         11    1    3    3    0    0  0.11419018230E+04  0.52636641778E+03 -0.65959812282E+02  0.12591076507E+04  0.00000000000E+00 0. -1.
        -11    1    3    3    0    0  0.12380402311E+04  0.49657703281E+03 -0.13490371880E+03  0.13407204693E+04  0.00000000000E+00 0.  1.
         22    1    1    2    0    0 -0.23799420541E+04 -0.10229434506E+04 -0.95683547002E+03  0.27615342839E+04  0.00000000000E+00 0.  1.
<mgrwt>
<rscale>  0 0.52348773E+04</rscale>
<asrwt>0</asrwt>
<pdfrwt beam="1">  1        2 0.50146626E+00 0.52348773E+04</pdfrwt>
<pdfrwt beam="2">  1       -2 0.32335873E+00 0.52348773E+04</pdfrwt>
<totfact> 0.19307607E-02</totfact>
</mgrwt>
</event>
<event>
 6    1  0.1817112E-005  0.1312739E+04  0.7818608E-02  0.9019524E-01
          2   -1    0    0  501    0  0.00000000000E+00  0.00000000000E+00  0.37267085000E+04  0.37267085000E+04  0.00000000000E+00 0. -1.
         -2   -1    0    0    0  501 -0.00000000000E+00 -0.00000000000E+00 -0.11560354454E+03  0.11560354454E+03  0.00000000000E+00 0.  1.
         23    2    1    2    0    0 -0.10027623485E+03 -0.23169693331E+02  0.37022788198E+04  0.37048172029E+04  0.90608441024E+02 0.  0.
         13    1    3    3    0    0 -0.35582805330E+02 -0.17340816390E+02  0.27680370853E+04  0.27683200945E+04  0.00000000000E+00 0. -1.
        -13    1    3    3    0    0 -0.64693429523E+02 -0.58288769413E+01  0.93424173443E+03  0.93649710837E+03  0.00000000000E+00 0.  1.
         22    1    1    2    0    0  0.10027623485E+03  0.23169693331E+02 -0.91173864269E+02  0.13749484169E+03  0.00000000000E+00 0.  1.
<mgrwt>
<rscale>  0 0.13127387E+04</rscale>
<asrwt>0</asrwt>
<pdfrwt beam="1">  1        2 0.57333968E+00 0.13127387E+04</pdfrwt>
<pdfrwt beam="2">  1       -2 0.17785164E-01 0.13127387E+04</pdfrwt>
<totfact> 0.14698163E+01</totfact>
</mgrwt>
</event>
<event>
 6    1  0.1817112E-005  0.1053625E+04  0.7818608E-02  0.9251609E-01
         -2   -1    0    0    0  501 -0.00000000000E+00  0.00000000000E+00  0.26236715220E+03  0.26236715220E+03  0.00000000000E+00 0.  1.
          2   -1    0    0  501    0  0.00000000000E+00 -0.00000000000E+00 -0.10577977487E+04  0.10577977487E+04  0.00000000000E+00 0. -1.
         23    2    1    2    0    0  0.21019839145E+02 -0.34284806681E+03  0.93369867256E+02  0.36729927819E+03  0.90577023028E+02 0.  0.
         11    1    3    3    0    0  0.50685985658E+02 -0.15672218964E+03  0.23953667725E+02  0.16644726512E+03  0.00000000000E+00 0.  1.
        -11    1    3    3    0    0 -0.29666146513E+02 -0.18612587717E+03  0.69416199531E+02  0.20085201308E+03  0.00000000000E+00 0. -1.
         22    1    1    2    0    0 -0.21019839145E+02  0.34284806681E+03 -0.88880046373E+03  0.95286562267E+03  0.00000000000E+00 0. -1.
<mgrwt>
<rscale>  0 0.10536249E+04</rscale>
<asrwt>0</asrwt>
<pdfrwt beam="1">  1        2 0.16273812E+00 0.10536249E+04</pdfrwt>
<pdfrwt beam="2">  1       -2 0.40364177E-01 0.10536249E+04</pdfrwt>
<totfact> 0.13376336E+02</totfact>
</mgrwt>
</event>
<event>
 6    1  0.1817112E-005  0.2518513E+04  0.7818608E-02  0.8396420E-01
          2   -1    0    0  501    0  0.00000000000E+00  0.00000000000E+00  0.14255994992E+04  0.14255994992E+04  0.00000000000E+00 0.  1.
         -2   -1    0    0    0  501 -0.00000000000E+00 -0.00000000000E+00 -0.11123230803E+04  0.11123230803E+04  0.00000000000E+00 0. -1.
         23    2    1    2    0    0 -0.15176492710E+03  0.12643435520E+03  0.14084512414E+04  0.14250766194E+04  0.89945719307E+02 0.  0.
         11    1    3    3    0    0 -0.12831869626E+03  0.51461388159E+02  0.86564355389E+03  0.87661435344E+03  0.00000000000E+00 0.  1.
        -11    1    3    3    0    0 -0.23446230841E+02  0.74972967039E+02  0.54280768751E+03  0.54846226593E+03  0.00000000000E+00 0. -1.
         22    1    1    2    0    0  0.15176492710E+03 -0.12643435520E+03 -0.10951748225E+04  0.11128459602E+04  0.00000000000E+00 0. -1.
<mgrwt>
<rscale>  0 0.25185132E+04</rscale>
<asrwt>0</asrwt>
<pdfrwt beam="1">  1        2 0.21932300E+00 0.25185132E+04</pdfrwt>
<pdfrwt beam="2">  1       -2 0.17112663E+00 0.25185132E+04</pdfrwt>
<totfact> 0.26073161E+00</totfact>
</mgrwt>
</event>
<event>
 6    1  0.1817112E-005  0.1158747E+04  0.7818608E-02  0.9149752E-01
          2   -1    0    0  501    0  0.00000000000E+00  0.00000000000E+00  0.18290297297E+03  0.18290297297E+03  0.00000000000E+00 0. -1.
         -2   -1    0    0    0  501 -0.00000000000E+00 -0.00000000000E+00 -0.18352549790E+04  0.18352549790E+04  0.00000000000E+00 0.  1.
         23    2    1    2    0    0 -0.24060949659E+03  0.50402204000E+03 -0.58622034296E+03  0.81459330076E+03  0.89312980498E+02 0.  0.
         11    1    3    3    0    0 -0.19827802521E+03  0.33426332697E+03 -0.43514646732E+03  0.58343688181E+03  0.00000000000E+00 0. -1.
        -11    1    3    3    0    0 -0.42331471373E+02  0.16975871303E+03 -0.15107387565E+03  0.23115641895E+03  0.00000000000E+00 0.  1.
         22    1    1    2    0    0  0.24060949659E+03 -0.50402204000E+03 -0.10661316631E+04  0.12035646512E+04  0.00000000000E+00 0.  1.
<mgrwt>
<rscale>  0 0.11587469E+04</rscale>
<asrwt>0</asrwt>
<pdfrwt beam="1">  1        2 0.28138920E-01 0.11587469E+04</pdfrwt>
<pdfrwt beam="2">  1       -2 0.28234691E+00 0.11587469E+04</pdfrwt>
<totfact> 0.77772168E+00</totfact>
</mgrwt>
</event>
<event>
 6    1  0.1817112E-005  0.1576115E+04  0.7818608E-02  0.8835357E-01
          2   -1    0    0  501    0  0.00000000000E+00  0.00000000000E+00  0.23401359195E+04  0.23401359195E+04  0.00000000000E+00 0. -1.
         -2   -1    0    0    0  501 -0.00000000000E+00 -0.00000000000E+00 -0.26538404148E+03  0.26538404148E+03  0.00000000000E+00 0.  1.
         23    2    1    2    0    0 -0.65240572558E+03 -0.39016111565E+03  0.71317677214E+03  0.10461144025E+04  0.88742930973E+02 0.  0.
         11    1    3    3    0    0 -0.33315251295E+03 -0.14773041343E+03  0.34399404296E+03  0.50114546145E+03  0.00000000000E+00 0.  1.
        -11    1    3    3    0    0 -0.31925321263E+03 -0.24243070222E+03  0.36918272918E+03  0.54496894102E+03  0.00000000000E+00 0. -1.
         22    1    1    2    0    0  0.65240572558E+03  0.39016111565E+03  0.13615751059E+04  0.15594055585E+04  0.00000000000E+00 0. -1.
<mgrwt>
<rscale>  0 0.15761151E+04</rscale>
<asrwt>0</asrwt>
<pdfrwt beam="1">  1        2 0.36002090E+00 0.15761151E+04</pdfrwt>
<pdfrwt beam="2">  1       -2 0.40828316E-01 0.15761151E+04</pdfrwt>
<totfact> 0.23508620E+01</totfact>
</mgrwt>
</event>
<event>
 6    1  0.1817112E-005  0.1147765E+04  0.7818608E-02  0.9159848E-01
         -2   -1    0    0    0  501 -0.00000000000E+00  0.00000000000E+00  0.26774334502E+03  0.26774334502E+03  0.00000000000E+00 0.  1.
          2   -1    0    0  501    0  0.00000000000E+00 -0.00000000000E+00 -0.12300624439E+04  0.12300624439E+04  0.00000000000E+00 0. -1.
         23    2    1    2    0    0  0.31385060424E+03  0.47208924949E+03 -0.56543137230E+03  0.80578676551E+03  0.90604709752E+02 0.  0.
         11    1    3    3    0    0  0.19434839337E+03  0.36086222823E+03 -0.38286261644E+03  0.56087131218E+03  0.00000000000E+00 0. -1.
        -11    1    3    3    0    0  0.11950221087E+03  0.11122702126E+03 -0.18256875586E+03  0.24491545333E+03  0.00000000000E+00 0.  1.
         22    1    1    2    0    0 -0.31385060424E+03 -0.47208924949E+03 -0.39688772660E+03  0.69201902343E+03  0.00000000000E+00 0.  1.
<mgrwt>
<rscale>  0 0.11477648E+04</rscale>
<asrwt>0</asrwt>
<pdfrwt beam="1">  1        2 0.18924037E+00 0.11477648E+04</pdfrwt>
<pdfrwt beam="2">  1       -2 0.41191284E-01 0.11477648E+04</pdfrwt>
<totfact> 0.10038558E+02</totfact>
</mgrwt>
</event>
<event>
 6    1  0.1817112E-005  0.1352421E+04  0.7818608E-02  0.8988998E-01
          2   -1    0    0  501    0  0.00000000000E+00  0.00000000000E+00  0.36400505301E+03  0.36400505301E+03  0.00000000000E+00 0.  1.
         -2   -1    0    0    0  501 -0.00000000000E+00 -0.00000000000E+00 -0.12561927387E+04  0.12561927387E+04  0.00000000000E+00 0. -1.
         23    2    1    2    0    0  0.54261777082E+03  0.39786297582E+03 -0.42198096891E+03  0.79933035464E+03  0.90178073796E+02 0.  0.
         13    1    3    3    0    0  0.12887381588E+02  0.33138342353E+02 -0.26118983576E+02  0.44118427456E+02  0.00000000000E+00 0.  1.
        -13    1    3    3    0    0  0.52973038923E+03  0.36472463346E+03 -0.39586198534E+03  0.75521192719E+03  0.00000000000E+00 0. -1.
         22    1    1    2    0    0 -0.54261777082E+03 -0.39786297582E+03 -0.47020671678E+03  0.82086743707E+03  0.00000000000E+00 0.  1.
<mgrwt>
<rscale>  0 0.13524208E+04</rscale>
<asrwt>0</asrwt>
<pdfrwt beam="1">  1        2 0.56000778E-01 0.13524208E+04</pdfrwt>
<pdfrwt beam="2">  1       -2 0.19326042E+00 0.13524208E+04</pdfrwt>
<totfact> 0.12716261E+01</totfact>
</mgrwt>
</event>
<event>
 6    1  0.2035493E-005  0.3279907E+04  0.7818608E-02  0.8168027E-01
         -2   -1    0    0    0  501 -0.00000000000E+00  0.00000000000E+00  0.13775644451E+04  0.13775644451E+04  0.00000000000E+00 0.  1.
          2   -1    0    0  501    0  0.00000000000E+00 -0.00000000000E+00 -0.19523205680E+04  0.19523205680E+04  0.00000000000E+00 0. -1.
         23    2    1    2    0    0  0.56820552309E+03  0.11776485532E+04  0.71512892291E+03  0.14931713547E+04  0.91856881861E+02 0.  0.
         13    1    3    3    0    0  0.14491443627E+03  0.34740607736E+03  0.24757296996E+03  0.45053695951E+03  0.00000000000E+00 0.  1.
        -13    1    3    3    0    0  0.42329108682E+03  0.83024247588E+03  0.46755595295E+03  0.10426343952E+04  0.00000000000E+00 0. -1.
         22    1    1    2    0    0 -0.56820552309E+03 -0.11776485532E+04 -0.12898850458E+04  0.18367136584E+04  0.00000000000E+00 0. -1.
<mgrwt>
<rscale>  0 0.32799069E+04</rscale>
<asrwt>0</asrwt>
<pdfrwt beam="1">  1        2 0.30035701E+00 0.32799069E+04</pdfrwt>
<pdfrwt beam="2">  1       -2 0.21193299E+00 0.32799069E+04</pdfrwt>
<totfact> 0.66117018E-01</totfact>
</mgrwt>
</event>
<event>
 6    1  0.1817112E-005  0.1267928E+04  0.7818608E-02  0.9055392E-01
          2   -1    0    0  501    0  0.00000000000E+00  0.00000000000E+00  0.12791408107E+04  0.12791408107E+04  0.00000000000E+00 0. -1.
         -2   -1    0    0    0  501 -0.00000000000E+00 -0.00000000000E+00 -0.31420333870E+03  0.31420333870E+03  0.00000000000E+00 0.  1.
         23    2    1    2    0    0  0.22087459426E+03  0.42178842355E+03 -0.33811056164E+02  0.48691309275E+03  0.96177501235E+02 0.  0.
         13    1    3    3    0    0  0.89260618101E+02  0.27228923548E+03 -0.21653965341E+02  0.28736349789E+03  0.00000000000E+00 0. -1.
        -13    1    3    3    0    0  0.13161397616E+03  0.14949918807E+03 -0.12157090823E+02  0.19954959486E+03  0.00000000000E+00 0.  1.
         22    1    1    2    0    0 -0.22087459426E+03 -0.42178842355E+03  0.99874852820E+03  0.11064310567E+04  0.00000000000E+00 0. -1.
<mgrwt>
<rscale>  0 0.12679279E+04</rscale>
<asrwt>0</asrwt>
<pdfrwt beam="1">  1        2 0.19679089E+00 0.12679279E+04</pdfrwt>
<pdfrwt beam="2">  1       -2 0.48338976E-01 0.12679279E+04</pdfrwt>
<totfact> 0.67684426E+01</totfact>
</mgrwt>
</event>
<event>
 6    1  0.1817112E-005  0.4314029E+04  0.7818608E-02  0.7944029E-01
          2   -1    0    0  501    0  0.00000000000E+00  0.00000000000E+00  0.28967024465E+04  0.28967024465E+04  0.00000000000E+00 0. -1.
         -2   -1    0    0    0  501 -0.00000000000E+00 -0.00000000000E+00 -0.16062097826E+04  0.16062097826E+04  0.00000000000E+00 0.  1.
         23    2    1    2    0    0 -0.17836984041E+04 -0.73687327762E+03 -0.35782374596E+03  0.19648993822E+04  0.90716730345E+02 0.  0.
         13    1    3    3    0    0 -0.48745638041E+03 -0.24188293423E+03 -0.11732076074E+03  0.55667336705E+03  0.00000000000E+00 0. -1.
        -13    1    3    3    0    0 -0.12962420237E+04 -0.49499034340E+03 -0.24050298522E+03  0.14082260152E+04  0.00000000000E+00 0.  1.
         22    1    1    2    0    0  0.17836984041E+04  0.73687327762E+03  0.16483164099E+04  0.25380128469E+04  0.00000000000E+00 0. -1.
<mgrwt>
<rscale>  0 0.43140291E+04</rscale>
<asrwt>0</asrwt>
<pdfrwt beam="1">  1        2 0.44564653E+00 0.43140291E+04</pdfrwt>
<pdfrwt beam="2">  1       -2 0.24710920E+00 0.43140291E+04</pdfrwt>
<totfact> 0.10390671E-01</totfact>
</mgrwt>
</event>
<event>
 6    1  0.1817112E-005  0.2957728E+04  0.7818608E-02  0.8255906E-01
         -2   -1    0    0    0  501 -0.00000000000E+00  0.00000000000E+00  0.16214432899E+04  0.16214432899E+04  0.00000000000E+00 0. -1.
          2   -1    0    0  501    0  0.00000000000E+00 -0.00000000000E+00 -0.13488219707E+04  0.13488219707E+04  0.00000000000E+00 0.  1.
         23    2    1    2    0    0  0.97864749163E+03 -0.11042099733E+04  0.20233362440E+03  0.14931156615E+04  0.10688734798E+03 0.  0.
         11    1    3    3    0    0  0.58937884106E+03 -0.74107778254E+03  0.13878373797E+03  0.95698726428E+03  0.00000000000E+00 0. -1.
        -11    1    3    3    0    0  0.38926865057E+03 -0.36313219073E+03  0.63549886433E+02  0.53612839724E+03  0.00000000000E+00 0.  1.
         22    1    1    2    0    0 -0.97864749163E+03  0.11042099733E+04  0.70287694779E+02  0.14771495991E+04  0.00000000000E+00 0. -1.
<mgrwt>
<rscale>  0 0.29577277E+04</rscale>
<asrwt>0</asrwt>
<pdfrwt beam="1">  1        2 0.20751107E+00 0.29577277E+04</pdfrwt>
<pdfrwt beam="2">  1       -2 0.24945281E+00 0.29577277E+04</pdfrwt>
<totfact> 0.86150591E-01</totfact>
</mgrwt>
</event>
<event>
 6    1  0.1817112E-005  0.1879316E+04  0.7818608E-02  0.8665221E-01
         -2   -1    0    0    0  501 -0.00000000000E+00  0.00000000000E+00  0.90465762346E+03  0.90465762346E+03  0.00000000000E+00 0.  1.
          2   -1    0    0  501    0  0.00000000000E+00 -0.00000000000E+00 -0.97601247385E+03  0.97601247385E+03  0.00000000000E+00 0. -1.
         23    2    1    2    0    0  0.77614506155E+03 -0.33557353191E+02  0.48935291920E+03  0.92258844349E+03  0.90420705611E+02 0.  0.
         11    1    3    3    0    0  0.47416975757E+03 -0.61203289405E+01  0.34704977270E+03  0.58763761124E+03  0.00000000000E+00 0.  1.
        -11    1    3    3    0    0  0.30197530399E+03 -0.27437024251E+02  0.14230314650E+03  0.33495083224E+03  0.00000000000E+00 0. -1.
         22    1    1    2    0    0 -0.77614506155E+03  0.33557353191E+02 -0.56070776958E+03  0.95808165382E+03  0.00000000000E+00 0. -1.
<mgrwt>
<rscale>  0 0.18793160E+04</rscale>
<asrwt>0</asrwt>
<pdfrwt beam="1">  1        2 0.15015577E+00 0.18793160E+04</pdfrwt>
<pdfrwt beam="2">  1       -2 0.13917810E+00 0.18793160E+04</pdfrwt>
<totfact> 0.89306742E+00</totfact>
</mgrwt>
</event>
<event>
 6    1  0.1817112E-005  0.3561989E+04  0.7818608E-02  0.8099254E-01
          2   -1    0    0  501    0  0.00000000000E+00  0.00000000000E+00  0.32520143489E+04  0.32520143489E+04  0.00000000000E+00 0. -1.
         -2   -1    0    0    0  501 -0.00000000000E+00 -0.00000000000E+00 -0.97537740373E+03  0.97537740373E+03  0.00000000000E+00 0.  1.
         23    2    1    2    0    0 -0.43947935141E+03 -0.13505812930E+04 -0.13403753545E+03  0.14294347514E+04  0.90031762172E+02 0.  0.
         11    1    3    3    0    0 -0.90887956447E+02 -0.39832277008E+03 -0.55977553382E+02  0.41237741969E+03  0.00000000000E+00 0. -1.
        -11    1    3    3    0    0 -0.34859139497E+03 -0.95225852294E+03 -0.78059982064E+02  0.10170573317E+04  0.00000000000E+00 0.  1.
         22    1    1    2    0    0  0.43947935141E+03  0.13505812930E+04  0.24106744807E+04  0.27979570013E+04  0.00000000000E+00 0. -1.
<mgrwt>
<rscale>  0 0.35619889E+04</rscale>
<asrwt>0</asrwt>
<pdfrwt beam="1">  1        2 0.50030990E+00 0.35619889E+04</pdfrwt>
<pdfrwt beam="2">  1       -2 0.15005806E+00 0.35619889E+04</pdfrwt>
<totfact> 0.29298352E-01</totfact>
</mgrwt>
</event>
<event>
 6    1  0.1817112E-005  0.1537683E+04  0.7818608E-02  0.8859774E-01
         -1   -1    0    0    0  501 -0.00000000000E+00  0.00000000000E+00  0.29219679146E+03  0.29219679146E+03  0.00000000000E+00 0. -1.
          1   -1    0    0  501    0  0.00000000000E+00 -0.00000000000E+00 -0.20230111656E+04  0.20230111656E+04  0.00000000000E+00 0.  1.
         23    2    1    2    0    0  0.24721886467E+03  0.18765441370E+03 -0.19223332036E+04  0.19505014887E+04  0.11295913405E+03 0.  0.
         11    1    3    3    0    0  0.75143143758E+02  0.88867202890E+02 -0.44767359696E+03  0.46255326311E+03  0.00000000000E+00 0.  1.
        -11    1    3    3    0    0  0.17207572092E+03  0.98787210811E+02 -0.14746596066E+04  0.14879482256E+04  0.00000000000E+00 0. -1.
         22    1    1    2    0    0 -0.24721886467E+03 -0.18765441370E+03  0.19151882942E+03  0.36470646834E+03  0.00000000000E+00 0. -1.
<mgrwt>
<rscale>  0 0.15376832E+04</rscale>
<asrwt>0</asrwt>
<pdfrwt beam="1">  1        1 0.31123247E+00 0.15376832E+04</pdfrwt>
<pdfrwt beam="2">  1       -1 0.44953355E-01 0.15376832E+04</pdfrwt>
<totfact> 0.13611961E+01</totfact>
</mgrwt>
</event>
<event>
 6    1  0.1817112E-005  0.1604314E+04  0.7818608E-02  0.8817902E-01
          2   -1    0    0  501    0  0.00000000000E+00  0.00000000000E+00  0.33016427486E+04  0.33016427486E+04  0.00000000000E+00 0. -1.
         -2   -1    0    0    0  501 -0.00000000000E+00 -0.00000000000E+00 -0.19488965395E+03  0.19488965395E+03  0.00000000000E+00 0.  1.
         23    2    1    2    0    0 -0.19935133832E+03  0.44782555436E+03  0.18010774809E+03  0.52911910680E+03  0.85085515982E+02 0.  0.
         13    1    3    3    0    0 -0.77441644264E+02  0.15729602594E+03  0.22302888457E+02  0.17673897950E+03  0.00000000000E+00 0.  1.
        -13    1    3    3    0    0 -0.12190969406E+03  0.29052952843E+03  0.15780485963E+03  0.35238012730E+03  0.00000000000E+00 0. -1.
         22    1    1    2    0    0  0.19935133832E+03 -0.44782555436E+03  0.29266453465E+04  0.29674132957E+04  0.00000000000E+00 0. -1.
<mgrwt>
<rscale>  0 0.16043142E+04</rscale>
<asrwt>0</asrwt>
<pdfrwt beam="1">  1        2 0.50794500E+00 0.16043142E+04</pdfrwt>
<pdfrwt beam="2">  1       -2 0.29983026E-01 0.16043142E+04</pdfrwt>
<totfact> 0.11034268E+01</totfact>
</mgrwt>
</event>
<event>
 6    1  0.1817112E-005  0.3156936E+04  0.7818608E-02  0.8200284E-01
          2   -1    0    0  501    0  0.00000000000E+00  0.00000000000E+00  0.28901890542E+04  0.28901890542E+04  0.00000000000E+00 0. -1.
         -2   -1    0    0    0  501 -0.00000000000E+00 -0.00000000000E+00 -0.86207541416E+03  0.86207541416E+03  0.00000000000E+00 0.  1.
         23    2    1    2    0    0 -0.86591705036E+03  0.26085348370E+03 -0.52125344989E+03  0.10472451640E+04  0.84619125083E+02 0.  0.
         13    1    3    3    0    0 -0.29185008595E+03  0.11079756096E+03 -0.21908998813E+03  0.38138300314E+03  0.00000000000E+00 0.  1.
        -13    1    3    3    0    0 -0.57406696441E+03  0.15005592273E+03 -0.30216346175E+03  0.66586216081E+03  0.00000000000E+00 0. -1.
         22    1    1    2    0    0  0.86591705036E+03 -0.26085348370E+03  0.25493670899E+04  0.27050193044E+04  0.00000000000E+00 0. -1.
<mgrwt>
<rscale>  0 0.31569358E+04</rscale>
<asrwt>0</asrwt>
<pdfrwt beam="1">  1        2 0.44464446E+00 0.31569358E+04</pdfrwt>
<pdfrwt beam="2">  1       -2 0.13262699E+00 0.31569358E+04</pdfrwt>
<totfact> 0.71020404E-01</totfact>
</mgrwt>
</event>
<event>
 6    1  0.1817112E-005  0.1984246E+04  0.7818608E-02  0.8614022E-01
         -2   -1    0    0    0  501 -0.00000000000E+00  0.00000000000E+00  0.10207359768E+04  0.10207359768E+04  0.00000000000E+00 0.  1.
          2   -1    0    0  501    0  0.00000000000E+00 -0.00000000000E+00 -0.96431176696E+03  0.96431176696E+03  0.00000000000E+00 0. -1.
         23    2    1    2    0    0 -0.90576901062E+03 -0.38121151282E+03 -0.89832850782E+02  0.99150315698E+03  0.96274872769E+02 0.  0.
         13    1    3    3    0    0 -0.42966108976E+03 -0.22857698467E+03 -0.24732568768E+02  0.48730666929E+03  0.00000000000E+00 0. -1.
        -13    1    3    3    0    0 -0.47610792085E+03 -0.15263452815E+03 -0.65100282015E+02  0.50419648769E+03  0.00000000000E+00 0.  1.
         22    1    1    2    0    0  0.90576901062E+03  0.38121151282E+03  0.14625706059E+03  0.99354458676E+03  0.00000000000E+00 0. -1.
<mgrwt>
<rscale>  0 0.19842457E+04</rscale>
<asrwt>0</asrwt>
<pdfrwt beam="1">  1        2 0.14835566E+00 0.19842457E+04</pdfrwt>
<pdfrwt beam="2">  1       -2 0.15703630E+00 0.19842457E+04</pdfrwt>
<totfact> 0.65486861E+00</totfact>
</mgrwt>
</event>
<event>
 6    1  0.1817112E-005  0.1111432E+04  0.7818608E-02  0.9194120E-01
          2   -1    0    0  501    0  0.00000000000E+00  0.00000000000E+00  0.29761348333E+03  0.29761348333E+03  0.00000000000E+00 0. -1.
         -2   -1    0    0    0  501 -0.00000000000E+00 -0.00000000000E+00 -0.10376557713E+04  0.10376557713E+04  0.00000000000E+00 0.  1.
         23    2    1    2    0    0 -0.33161059025E+03 -0.17712628003E+03  0.11306830574E+03  0.40299408722E+03  0.90997197363E+02 0.  0.
         11    1    3    3    0    0 -0.23960009075E+03 -0.81445963241E+02  0.87834597373E+02  0.26787415872E+03  0.00000000000E+00 0.  1.
        -11    1    3    3    0    0 -0.92010499498E+02 -0.95680316789E+02  0.25233708371E+02  0.13511992850E+03  0.00000000000E+00 0. -1.
         22    1    1    2    0    0  0.33161059025E+03  0.17712628003E+03 -0.85311059369E+03  0.93227516738E+03  0.00000000000E+00 0.  1.
<mgrwt>
<rscale>  0 0.11114321E+04</rscale>
<asrwt>0</asrwt>
<pdfrwt beam="1">  1        2 0.45786690E-01 0.11114321E+04</pdfrwt>
<pdfrwt beam="2">  1       -2 0.15963935E+00 0.11114321E+04</pdfrwt>
<totfact> 0.27824352E+01</totfact>
</mgrwt>
</event>
<event>
 6    1  0.2908928E-005  0.2330137E+04  0.7818608E-02  0.8466132E-01
          1   -1    0    0  501    0  0.00000000000E+00  0.00000000000E+00  0.11522345123E+04  0.11522345123E+04  0.00000000000E+00 0. -1.
         -1   -1    0    0    0  501 -0.00000000000E+00 -0.00000000000E+00 -0.11780454144E+04  0.11780454144E+04  0.00000000000E+00 0.  1.
         23    2    1    2    0    0 -0.34246537658E+03 -0.37482791511E+03 -0.10596772215E+04  0.11784734904E+04  0.90030292381E+02 0.  0.
         13    1    3    3    0    0 -0.13703576562E+03 -0.19787489344E+03 -0.42739987820E+03  0.49051394516E+03  0.00000000000E+00 0. -1.
        -13    1    3    3    0    0 -0.20542961097E+03 -0.17695302167E+03 -0.63227734334E+03  0.68795954520E+03  0.00000000000E+00 0.  1.
         22    1    1    2    0    0  0.34246537658E+03  0.37482791511E+03  0.10338663195E+04  0.11518064363E+04  0.00000000000E+00 0. -1.
<mgrwt>
<rscale>  0 0.23301370E+04</rscale>
<asrwt>0</asrwt>
<pdfrwt beam="1">  1        1 0.17726685E+00 0.23301370E+04</pdfrwt>
<pdfrwt beam="2">  1       -1 0.18123776E+00 0.23301370E+04</pdfrwt>
<totfact> 0.21301946E+00</totfact>
</mgrwt>
</event>
<event>
 6    1  0.1817112E-005  0.5681760E+04  0.7818608E-02  0.7731162E-01
         -2   -1    0    0    0  501 -0.00000000000E+00  0.00000000000E+00  0.22560165788E+04  0.22560165788E+04  0.00000000000E+00 0.  1.
          2   -1    0    0  501    0  0.00000000000E+00 -0.00000000000E+00 -0.35773668347E+04  0.35773668347E+04  0.00000000000E+00 0. -1.
         23    2    1    2    0    0 -0.83644925556E+03 -0.21220399659E+04  0.10764090693E+04  0.25240102469E+04  0.96282230511E+02 0.  0.
         13    1    3    3    0    0 -0.45169459636E+03 -0.12527376619E+04  0.65765079744E+03  0.14852219461E+04  0.00000000000E+00 0.  1.
        -13    1    3    3    0    0 -0.38475465920E+03 -0.86930230399E+03  0.41875827187E+03  0.10387883007E+04  0.00000000000E+00 0. -1.
         22    1    1    2    0    0  0.83644925556E+03  0.21220399659E+04 -0.23977593253E+04  0.33093731666E+04  0.00000000000E+00 0. -1.
<mgrwt>
<rscale>  0 0.56817599E+04</rscale>
<asrwt>0</asrwt>
<pdfrwt beam="1">  1        2 0.55036412E+00 0.56817599E+04</pdfrwt>
<pdfrwt beam="2">  1       -2 0.34707948E+00 0.56817599E+04</pdfrwt>
<totfact> 0.80060385E-03</totfact>
</mgrwt>
</event>
<event>
 6    1  0.1817112E-005  0.1226861E+04  0.7818608E-02  0.9089664E-01
         -4   -1    0    0    0  501 -0.00000000000E+00  0.00000000000E+00  0.15126911052E+04  0.15126911052E+04  0.00000000000E+00 0.  1.
          4   -1    0    0  501    0  0.00000000000E+00 -0.00000000000E+00 -0.24876007061E+03  0.24876007061E+03  0.00000000000E+00 0. -1.
         23    2    1    2    0    0 -0.35030100919E+03 -0.28706090375E+03  0.48625843664E+02  0.46450034152E+03  0.91001841143E+02 0.  0.
         11    1    3    3    0    0 -0.31423714920E+03 -0.23615885260E+03  0.14407910312E+02  0.39334918009E+03  0.00000000000E+00 0.  1.
        -11    1    3    3    0    0 -0.36063859991E+02 -0.50902051154E+02  0.34217933352E+02  0.71151161424E+02  0.00000000000E+00 0. -1.
         22    1    1    2    0    0  0.35030100919E+03  0.28706090375E+03  0.12153051909E+04  0.12969508343E+04  0.00000000000E+00 0.  1.
<mgrwt>
<rscale>  0 0.12268613E+04</rscale>
<asrwt>0</asrwt>
<pdfrwt beam="1">  1        4 0.38270781E-01 0.12268613E+04</pdfrwt>
<pdfrwt beam="2">  1       -4 0.23272170E+00 0.12268613E+04</pdfrwt>
<totfact> 0.10656278E+00</totfact>
</mgrwt>
</event>
<event>
 6    1  0.1854703E-005  0.2538441E+04  0.7818608E-02  0.8389417E-01
         -2   -1    0    0    0  501 -0.00000000000E+00  0.00000000000E+00  0.13063236673E+04  0.13063236673E+04  0.00000000000E+00 0.  1.
          2   -1    0    0  501    0  0.00000000000E+00 -0.00000000000E+00 -0.12331711066E+04  0.12331711066E+04  0.00000000000E+00 0. -1.
         23    2    1    2    0    0  0.77111522365E+03  0.79415988706E+03  0.65458358413E+03  0.12891465627E+04  0.90058742175E+02 0.  0.
         13    1    3    3    0    0  0.47637254538E+03  0.43544956213E+03  0.35475164062E+03  0.73647528789E+03  0.00000000000E+00 0. -1.
        -13    1    3    3    0    0  0.29474267827E+03  0.35871032493E+03  0.29983194351E+03  0.55267127477E+03  0.00000000000E+00 0.  1.
         22    1    1    2    0    0 -0.77111522365E+03 -0.79415988706E+03 -0.58143102348E+03  0.12503482113E+04  0.00000000000E+00 0. -1.
<mgrwt>
<rscale>  0 0.25384409E+04</rscale>
<asrwt>0</asrwt>
<pdfrwt beam="1">  1        2 0.18971863E+00 0.25384409E+04</pdfrwt>
<pdfrwt beam="2">  1       -2 0.20097287E+00 0.25384409E+04</pdfrwt>
<totfact> 0.21087624E+00</totfact>
</mgrwt>
</event>
<event>
 6    1  0.1817112E-005  0.7567760E+03  0.7818608E-02  0.9624779E-01
         -2   -1    0    0    0  501 -0.00000000000E+00  0.00000000000E+00  0.10192820346E+03  0.10192820346E+03  0.00000000000E+00 0.  1.
          2   -1    0    0  501    0  0.00000000000E+00 -0.00000000000E+00 -0.14046896821E+04  0.14046896821E+04  0.00000000000E+00 0. -1.
         23    2    1    2    0    0  0.91047368721E+02 -0.36143768474E+03 -0.67843290908E+03  0.77949135870E+03  0.91699197718E+02 0.  0.
         13    1    3    3    0    0  0.17879443285E+02 -0.17571457094E+03 -0.24223808957E+03  0.29979088874E+03  0.00000000000E+00 0.  1.
        -13    1    3    3    0    0  0.73167925436E+02 -0.18572311381E+03 -0.43619481951E+03  0.47970046996E+03  0.00000000000E+00 0. -1.
         22    1    1    2    0    0 -0.91047368721E+02  0.36143768474E+03 -0.62432856959E+03  0.72712652689E+03  0.00000000000E+00 0.  1.
<mgrwt>
<rscale>  0 0.75677605E+03</rscale>
<asrwt>0</asrwt>
<pdfrwt beam="1">  1        2 0.21610609E+00 0.75677605E+03</pdfrwt>
<pdfrwt beam="2">  1       -2 0.15681263E-01 0.75677605E+03</pdfrwt>
<totfact> 0.47213219E+02</totfact>
</mgrwt>
</event>
<event>
 6    1  0.1817112E-005  0.1641165E+04  0.7818608E-02  0.8795650E-01
         -2   -1    0    0    0  501 -0.00000000000E+00  0.00000000000E+00  0.11560135071E+04  0.11560135071E+04  0.00000000000E+00 0.  1.
          2   -1    0    0  501    0  0.00000000000E+00 -0.00000000000E+00 -0.58248101819E+03  0.58248101819E+03  0.00000000000E+00 0. -1.
         23    2    1    2    0    0  0.44594254012E+03 -0.65173984682E+03  0.51395793127E+03  0.94654837503E+03  0.90396317059E+02 0.  0.
         13    1    3    3    0    0  0.20374615335E+03 -0.33165912917E+03  0.20431911302E+03  0.43960956873E+03  0.00000000000E+00 0.  1.
        -13    1    3    3    0    0  0.24219638677E+03 -0.32008071765E+03  0.30963881824E+03  0.50693880630E+03  0.00000000000E+00 0. -1.
         22    1    1    2    0    0 -0.44594254012E+03  0.65173984682E+03  0.59574557666E+02  0.79194615028E+03  0.00000000000E+00 0.  1.
<mgrwt>
<rscale>  0 0.16411653E+04</rscale>
<asrwt>0</asrwt>
<pdfrwt beam="1">  1        2 0.89612464E-01 0.16411653E+04</pdfrwt>
<pdfrwt beam="2">  1       -2 0.17784823E+00 0.16411653E+04</pdfrwt>
<totfact> 0.92127658E+00</totfact>
</mgrwt>
</event>
<event>
 6    1  0.1817112E-005  0.5393751E+04  0.7818608E-02  0.7770481E-01
          2   -1    0    0  501    0  0.00000000000E+00  0.00000000000E+00  0.32757795984E+04  0.32757795984E+04  0.00000000000E+00 0. -1.
         -2   -1    0    0    0  501 -0.00000000000E+00 -0.00000000000E+00 -0.22202769265E+04  0.22202769265E+04  0.00000000000E+00 0.  1.
         23    2    1    2    0    0 -0.57420084525E+03  0.98411644777E+03 -0.19619863237E+04  0.22706214175E+04  0.90219143165E+02 0.  0.
         11    1    3    3    0    0 -0.35842066342E+03  0.69049427693E+03 -0.13697625483E+04  0.15752768510E+04  0.00000000000E+00 0. -1.
        -11    1    3    3    0    0 -0.21578018183E+03  0.29362217084E+03 -0.59222377545E+03  0.69534456659E+03  0.00000000000E+00 0.  1.
         22    1    1    2    0    0  0.57420084525E+03 -0.98411644777E+03  0.30174889956E+04  0.32254351074E+04  0.00000000000E+00 0. -1.
<mgrwt>
<rscale>  0 0.53937511E+04</rscale>
<asrwt>0</asrwt>
<pdfrwt beam="1">  1        2 0.50396609E+00 0.53937511E+04</pdfrwt>
<pdfrwt beam="2">  1       -2 0.34158106E+00 0.53937511E+04</pdfrwt>
<totfact> 0.14321656E-02</totfact>
</mgrwt>
</event>
<event>
 6    1  0.1817112E-005  0.3946894E+04  0.7818608E-02  0.8015346E-01
         -2   -1    0    0    0  501 -0.00000000000E+00  0.00000000000E+00  0.17319075586E+04  0.17319075586E+04  0.00000000000E+00 0.  1.
          2   -1    0    0  501    0  0.00000000000E+00 -0.00000000000E+00 -0.22486721096E+04  0.22486721096E+04  0.00000000000E+00 0. -1.
         23    2    1    2    0    0 -0.12868308509E+04 -0.58105853692E+03 -0.16474702951E+04  0.21716965483E+04  0.92438425608E+02 0.  0.
         11    1    3    3    0    0 -0.69223355774E+03 -0.35054551240E+03 -0.95062806787E+03  0.12270954234E+04  0.00000000000E+00 0. -1.
        -11    1    3    3    0    0 -0.59459729315E+03 -0.23051302452E+03 -0.69684222719E+03  0.94460112486E+03  0.00000000000E+00 0.  1.
         22    1    1    2    0    0  0.12868308509E+04  0.58105853692E+03  0.11307057440E+04  0.18088831200E+04  0.00000000000E+00 0.  1.
<mgrwt>
<rscale>  0 0.39468936E+04</rscale>
<asrwt>0</asrwt>
<pdfrwt beam="1">  1        2 0.34594955E+00 0.39468936E+04</pdfrwt>
<pdfrwt beam="2">  1       -2 0.26644732E+00 0.39468936E+04</pdfrwt>
<totfact> 0.19569391E-01</totfact>
</mgrwt>
</event>
<event>
 6    1  0.1817112E-005  0.1326657E+04  0.7818608E-02  0.9008689E-01
          2   -1    0    0  501    0  0.00000000000E+00  0.00000000000E+00  0.41942269773E+03  0.41942269773E+03  0.00000000000E+00 0. -1.
         -2   -1    0    0    0  501 -0.00000000000E+00 -0.00000000000E+00 -0.10490721593E+04  0.10490721593E+04  0.00000000000E+00 0.  1.
         23    2    1    2    0    0 -0.26509191626E+02 -0.38564671148E+03  0.27675761209E+03  0.48310158198E+03  0.85826798529E+02 0.  0.
         11    1    3    3    0    0  0.20244151560E+02 -0.82029120850E+02  0.90690815470E+02  0.12394928943E+03  0.00000000000E+00 0. -1.
        -11    1    3    3    0    0 -0.46753343185E+02 -0.30361759063E+03  0.18606679662E+03  0.35915229255E+03  0.00000000000E+00 0.  1.
         22    1    1    2    0    0  0.26509191626E+02  0.38564671148E+03 -0.90640707365E+03  0.98539327503E+03  0.00000000000E+00 0.  1.
<mgrwt>
<rscale>  0 0.13266570E+04</rscale>
<asrwt>0</asrwt>
<pdfrwt beam="1">  1        2 0.64526569E-01 0.13266570E+04</pdfrwt>
<pdfrwt beam="2">  1       -2 0.16139572E+00 0.13266570E+04</pdfrwt>
<totfact> 0.18116358E+01</totfact>
</mgrwt>
</event>
<event>
 6    1  0.1817112E-005  0.2196188E+04  0.7818608E-02  0.8520016E-01
         -2   -1    0    0    0  501 -0.00000000000E+00  0.00000000000E+00  0.10182129321E+04  0.10182129321E+04  0.00000000000E+00 0.  1.
          2   -1    0    0  501    0  0.00000000000E+00 -0.00000000000E+00 -0.11842421759E+04  0.11842421759E+04  0.00000000000E+00 0. -1.
         23    2    1    2    0    0 -0.94389664616E+03 -0.33982470126E+03 -0.52671947735E+03  0.11363785860E+04  0.86609333434E+02 0.  0.
         11    1    3    3    0    0 -0.47846080556E+03 -0.17214919725E+03 -0.21808120936E+03  0.55328067240E+03  0.00000000000E+00 0.  1.
        -11    1    3    3    0    0 -0.46543584060E+03 -0.16767550401E+03 -0.30863826799E+03  0.58309791359E+03  0.00000000000E+00 0. -1.
         22    1    1    2    0    0  0.94389664616E+03  0.33982470126E+03  0.36069023357E+03  0.10660765220E+04  0.00000000000E+00 0.  1.
<mgrwt>
<rscale>  0 0.21961882E+04</rscale>
<asrwt>0</asrwt>
<pdfrwt beam="1">  1        2 0.18219110E+00 0.21961882E+04</pdfrwt>
<pdfrwt beam="2">  1       -2 0.15664814E+00 0.21961882E+04</pdfrwt>
<totfact> 0.47223571E+00</totfact>
</mgrwt>
</event>
<event>
 6    1  0.1817112E-005  0.4090630E+04  0.7818608E-02  0.7986509E-01
         -2   -1    0    0    0  501 -0.00000000000E+00  0.00000000000E+00  0.89292087693E+03  0.89292087693E+03  0.00000000000E+00 0.  1.
          2   -1    0    0  501    0  0.00000000000E+00 -0.00000000000E+00 -0.46849755267E+04  0.46849755267E+04  0.00000000000E+00 0. -1.
         23    2    1    2    0    0  0.38207588313E+03 -0.17237996904E+04 -0.49205561743E+03  0.18352421360E+04  0.92345081378E+02 0.  0.
         13    1    3    3    0    0  0.14017720656E+03 -0.70371822202E+03 -0.15577400544E+03  0.73425780624E+03  0.00000000000E+00 0.  1.
        -13    1    3    3    0    0  0.24189867657E+03 -0.10200814684E+04 -0.33628161198E+03  0.11009843298E+04  0.00000000000E+00 0. -1.
         22    1    1    2    0    0 -0.38207588313E+03  0.17237996904E+04 -0.32999990323E+04  0.37426542675E+04  0.00000000000E+00 0. -1.
<mgrwt>
<rscale>  0 0.40906295E+04</rscale>
<asrwt>0</asrwt>
<pdfrwt beam="1">  1        2 0.72076549E+00 0.40906295E+04</pdfrwt>
<pdfrwt beam="2">  1       -2 0.13737244E+00 0.40906295E+04</pdfrwt>
<totfact> 0.23314281E-02</totfact>
</mgrwt>
</event>
<event>
 6    1  0.1817112E-005  0.1969028E+04  0.7818608E-02  0.8621240E-01
         -2   -1    0    0    0  501 -0.00000000000E+00  0.00000000000E+00  0.55029329852E+03  0.55029329852E+03  0.00000000000E+00 0.  1.
          2   -1    0    0  501    0  0.00000000000E+00 -0.00000000000E+00 -0.17613657697E+04  0.17613657697E+04  0.00000000000E+00 0. -1.
         23    2    1    2    0    0  0.77680283729E+03  0.57622212009E+03 -0.40508714138E+03  0.10526646554E+04  0.92480835214E+02 0.  0.
         11    1    3    3    0    0  0.58314564422E+03  0.47306349993E+03 -0.29055546973E+03  0.80515240689E+03  0.00000000000E+00 0. -1.
        -11    1    3    3    0    0  0.19365719308E+03  0.10315862016E+03 -0.11453167166E+03  0.24751224850E+03  0.00000000000E+00 0.  1.
         22    1    1    2    0    0 -0.77680283729E+03 -0.57622212009E+03 -0.80598532983E+03  0.12589944129E+04  0.00000000000E+00 0. -1.
<mgrwt>
<rscale>  0 0.19690280E+04</rscale>
<asrwt>0</asrwt>
<pdfrwt beam="1">  1        2 0.27097935E+00 0.19690280E+04</pdfrwt>
<pdfrwt beam="2">  1       -2 0.84660506E-01 0.19690280E+04</pdfrwt>
<totfact> 0.10266658E+01</totfact>
</mgrwt>
</event>
<event>
 6    1  0.1817112E-005  0.1860358E+04  0.7818608E-02  0.8674844E-01
          2   -1    0    0  501    0  0.00000000000E+00  0.00000000000E+00  0.18622514049E+04  0.18622514049E+04  0.00000000000E+00 0. -1.
         -2   -1    0    0    0  501 -0.00000000000E+00 -0.00000000000E+00 -0.46461654384E+03  0.46461654384E+03  0.00000000000E+00 0.  1.
         23    2    1    2    0    0 -0.29568146299E+03  0.34528682643E+03  0.17123617992E+04  0.17739632864E+04  0.90068253515E+02 0.  0.
         13    1    3    3    0    0 -0.70127205420E+02  0.14782600216E+03  0.59454757250E+03  0.61664995566E+03  0.00000000000E+00 0.  1.
        -13    1    3    3    0    0 -0.22555425757E+03  0.19746082427E+03  0.11178142267E+04  0.11573133308E+04  0.00000000000E+00 0. -1.
         22    1    1    2    0    0  0.29568146299E+03 -0.34528682643E+03 -0.31472693810E+03  0.55290466233E+03  0.00000000000E+00 0.  1.
<mgrwt>
<rscale>  0 0.18603578E+04</rscale>
<asrwt>0</asrwt>
<pdfrwt beam="1">  1        2 0.28650021E+00 0.18603578E+04</pdfrwt>
<pdfrwt beam="2">  1       -2 0.71479469E-01 0.18603578E+04</pdfrwt>
<totfact> 0.13292782E+01</totfact>
</mgrwt>
</event>
<event>
 6    1  0.1817112E-005  0.4414801E+04  0.7818608E-02  0.7925725E-01
          2   -1    0    0  501    0  0.00000000000E+00  0.00000000000E+00  0.99840173538E+03  0.99840173538E+03  0.00000000000E+00 0. -1.
         -2   -1    0    0    0  501 -0.00000000000E+00 -0.00000000000E+00 -0.48804172357E+04  0.48804172357E+04  0.00000000000E+00 0.  1.
         23    2    1    2    0    0  0.32262295797E+03  0.67853316765E+03 -0.47044058541E+04  0.47648985400E+04  0.91273344597E+02 0.  0.
         11    1    3    3    0    0  0.63569019605E+02  0.22545378129E+03 -0.15535437218E+04  0.15711042370E+04  0.00000000000E+00 0. -1.
        -11    1    3    3    0    0  0.25905393836E+03  0.45307938636E+03 -0.31508621323E+04  0.31937943030E+04  0.00000000000E+00 0.  1.
         22    1    1    2    0    0 -0.32262295797E+03 -0.67853316765E+03  0.82239035385E+03  0.11139204311E+04  0.00000000000E+00 0. -1.
<mgrwt>
<rscale>  0 0.44148010E+04</rscale>
<asrwt>0</asrwt>
<pdfrwt beam="1">  1        2 0.15360027E+00 0.44148010E+04</pdfrwt>
<pdfrwt beam="2">  1       -2 0.75083343E+00 0.44148010E+04</pdfrwt>
<totfact> 0.27438923E-03</totfact>
</mgrwt>
</event>
<event>
 6    1  0.1817112E-005  0.2369024E+04  0.7818608E-02  0.8451192E-01
          2   -1    0    0  501    0  0.00000000000E+00  0.00000000000E+00  0.12405499702E+04  0.12405499702E+04  0.00000000000E+00 0. -1.
         -2   -1    0    0    0  501 -0.00000000000E+00 -0.00000000000E+00 -0.11310057267E+04  0.11310057267E+04  0.00000000000E+00 0.  1.
         23    2    1    2    0    0  0.55152229404E+03  0.55336202297E+03 -0.83401595543E+03  0.11465282612E+04  0.92509840397E+02 0.  0.
         13    1    3    3    0    0  0.24316222181E+03  0.24572353804E+03 -0.43664158304E+03  0.55692350938E+03  0.00000000000E+00 0. -1.
        -13    1    3    3    0    0  0.30836007222E+03  0.30763848493E+03 -0.39737437239E+03  0.58960475184E+03  0.00000000000E+00 0.  1.
         22    1    1    2    0    0 -0.55152229404E+03 -0.55336202297E+03  0.94356019893E+03  0.12250274357E+04  0.00000000000E+00 0. -1.
<mgrwt>
<rscale>  0 0.23690244E+04</rscale>
<asrwt>0</asrwt>
<pdfrwt beam="1">  1        2 0.19085384E+00 0.23690244E+04</pdfrwt>
<pdfrwt beam="2">  1       -2 0.17400088E+00 0.23690244E+04</pdfrwt>
<totfact> 0.32255115E+00</totfact>
</mgrwt>
</event>
<event>
 6    1  0.1817112E-005  0.3890288E+04  0.7818608E-02  0.8027052E-01
         -2   -1    0    0    0  501 -0.00000000000E+00  0.00000000000E+00  0.13104010027E+04  0.13104010027E+04  0.00000000000E+00 0.  1.
          2   -1    0    0  501    0  0.00000000000E+00 -0.00000000000E+00 -0.28873486488E+04  0.28873486488E+04  0.00000000000E+00 0. -1.
         23    2    1    2    0    0  0.12706920649E+03 -0.13389511676E+04  0.72572517544E+03  0.15310590178E+04  0.92346483781E+02 0.  0.
         13    1    3    3    0    0  0.91270415981E+02 -0.12146115063E+04  0.64110204210E+03  0.13764531334E+04  0.00000000000E+00 0.  1.
        -13    1    3    3    0    0  0.35798790510E+02 -0.12433966131E+03  0.84623133343E+02  0.15460588434E+03  0.00000000000E+00 0. -1.
         22    1    1    2    0    0 -0.12706920649E+03  0.13389511676E+04 -0.23026728216E+04  0.26666906337E+04  0.00000000000E+00 0. -1.
<mgrwt>
<rscale>  0 0.38902877E+04</rscale>
<asrwt>0</asrwt>
<pdfrwt beam="1">  1        2 0.44420748E+00 0.38902877E+04</pdfrwt>
<pdfrwt beam="2">  1       -2 0.20160016E+00 0.38902877E+04</pdfrwt>
<totfact> 0.21125439E-01</totfact>
</mgrwt>
</event>
<event>
 6    1  0.1817112E-005  0.1103899E+04  0.7818608E-02  0.9201400E-01
         -2   -1    0    0    0  501 -0.00000000000E+00  0.00000000000E+00  0.22941129834E+03  0.22941129834E+03  0.00000000000E+00 0.  1.
          2   -1    0    0  501    0  0.00000000000E+00 -0.00000000000E+00 -0.13279562374E+04  0.13279562374E+04  0.00000000000E+00 0. -1.
         23    2    1    2    0    0 -0.18775929860E+03 -0.37911274246E+03 -0.67022889230E+02  0.44246047012E+03  0.11090164212E+03 0.  0.
         13    1    3    3    0    0 -0.11101126738E+03 -0.13462389104E+03  0.10305811185E+02  0.17479503216E+03  0.00000000000E+00 0. -1.
        -13    1    3    3    0    0 -0.76748031218E+02 -0.24448885142E+03 -0.77328700415E+02  0.26766543795E+03  0.00000000000E+00 0.  1.
         22    1    1    2    0    0  0.18775929860E+03  0.37911274246E+03 -0.10315220498E+04  0.11149070656E+04  0.00000000000E+00 0. -1.
<mgrwt>
<rscale>  0 0.11038988E+04</rscale>
<asrwt>0</asrwt>
<pdfrwt beam="1">  1        2 0.20430096E+00 0.11038988E+04</pdfrwt>
<pdfrwt beam="2">  1       -2 0.35294046E-01 0.11038988E+04</pdfrwt>
<totfact> 0.11904900E+02</totfact>
</mgrwt>
</event>
<event>
 6    1  0.1817112E-005  0.3720234E+04  0.7818608E-02  0.8063493E-01
          2   -1    0    0  501    0  0.00000000000E+00  0.00000000000E+00  0.14751333916E+04  0.14751333916E+04  0.00000000000E+00 0. -1.
         -2   -1    0    0    0  501 -0.00000000000E+00 -0.00000000000E+00 -0.23455742139E+04  0.23455742139E+04  0.00000000000E+00 0.  1.
         23    2    1    2    0    0 -0.16624414106E+04 -0.55097731841E+02  0.41703160591E+03  0.17172978839E+04  0.91920932955E+02 0.  0.
         13    1    3    3    0    0 -0.13437693570E+04 -0.39956767498E+02  0.29962013544E+03  0.13773470346E+04  0.00000000000E+00 0. -1.
        -13    1    3    3    0    0 -0.31867205357E+03 -0.15140964343E+02  0.11741147046E+03  0.33995084928E+03  0.00000000000E+00 0.  1.
         22    1    1    2    0    0  0.16624414106E+04  0.55097731841E+02 -0.12874724283E+04  0.21034097217E+04  0.00000000000E+00 0.  1.
<mgrwt>
<rscale>  0 0.37202338E+04</rscale>
<asrwt>0</asrwt>
<pdfrwt beam="1">  1        2 0.22694360E+00 0.37202338E+04</pdfrwt>
<pdfrwt beam="2">  1       -2 0.36085757E+00 0.37202338E+04</pdfrwt>
<totfact> 0.14046364E-01</totfact>
</mgrwt>
</event>
<event>
 6    1  0.1817112E-005  0.3563687E+03  0.7818608E-02  0.1060031E+00
         -4   -1    0    0    0  501 -0.00000000000E+00  0.00000000000E+00  0.21018653848E+03  0.21018653848E+03  0.00000000000E+00 0.  1.
          4   -1    0    0  501    0  0.00000000000E+00 -0.00000000000E+00 -0.15105471207E+03  0.15105471207E+03  0.00000000000E+00 0. -1.
         23    2    1    2    0    0  0.14163709170E+03 -0.87589461084E+02  0.37074573530E+02  0.19325463846E+03  0.90773629698E+02 0.  0.
         11    1    3    3    0    0  0.85289214112E+02 -0.54705919086E+02  0.67003494006E+02  0.12147615336E+03  0.00000000000E+00 0.  1.
        -11    1    3    3    0    0  0.56347877584E+02 -0.32883541998E+02 -0.29928920476E+02  0.71778485101E+02  0.00000000000E+00 0. -1.
         22    1    1    2    0    0 -0.14163709170E+03  0.87589461084E+02  0.22057252881E+02  0.16798661209E+03  0.00000000000E+00 0. -1.
<mgrwt>
<rscale>  0 0.35636873E+03</rscale>
<asrwt>0</asrwt>
<pdfrwt beam="1">  1        4 0.23239187E-01 0.35636873E+03</pdfrwt>
<pdfrwt beam="2">  1       -4 0.32336390E-01 0.35636873E+03</pdfrwt>
<totfact> 0.30444599E+02</totfact>
</mgrwt>
</event>
<event>
 6    1  0.1817112E-005  0.1345621E+04  0.7818608E-02  0.8994149E-01
          2   -1    0    0  501    0  0.00000000000E+00  0.00000000000E+00  0.37182665414E+03  0.37182665414E+03  0.00000000000E+00 0.  1.
         -2   -1    0    0    0  501 -0.00000000000E+00 -0.00000000000E+00 -0.12174331252E+04  0.12174331252E+04  0.00000000000E+00 0. -1.
         23    2    1    2    0    0  0.59325005147E+03  0.31052464212E+03 -0.41177987709E+03  0.79140221649E+03  0.91562132756E+02 0.  0.
         11    1    3    3    0    0  0.39940524014E+03  0.17691753254E+03 -0.22813272168E+03  0.49281730679E+03  0.00000000000E+00 0. -1.
        -11    1    3    3    0    0  0.19384481134E+03  0.13360710957E+03 -0.18364715542E+03  0.29858490971E+03  0.00000000000E+00 0.  1.
         22    1    1    2    0    0 -0.59325005147E+03 -0.31052464212E+03 -0.43382659393E+03  0.79785756281E+03  0.00000000000E+00 0.  1.
<mgrwt>
<rscale>  0 0.13456212E+04</rscale>
<asrwt>0</asrwt>
<pdfrwt beam="1">  1        2 0.57204100E-01 0.13456212E+04</pdfrwt>
<pdfrwt beam="2">  1       -2 0.18729741E+00 0.13456212E+04</pdfrwt>
<totfact> 0.13620856E+01</totfact>
</mgrwt>
</event>
<event>
 6    1  0.1817112E-005  0.4665297E+04  0.7818608E-02  0.7882320E-01
         -2   -1    0    0    0  501 -0.00000000000E+00  0.00000000000E+00  0.29099915100E+04  0.29099915100E+04  0.00000000000E+00 0.  1.
          2   -1    0    0  501    0  0.00000000000E+00 -0.00000000000E+00 -0.18698507561E+04  0.18698507561E+04  0.00000000000E+00 0. -1.
         23    2    1    2    0    0 -0.46206646759E+03 -0.13219271879E+04 -0.13899584722E+04  0.19751356577E+04  0.90440043461E+02 0.  0.
         11    1    3    3    0    0 -0.28095318830E+03 -0.86290510965E+03 -0.84543143180E+03  0.12402798991E+04  0.00000000000E+00 0.  1.
        -11    1    3    3    0    0 -0.18111327929E+03 -0.45902207822E+03 -0.54452704041E+03  0.73485575861E+03  0.00000000000E+00 0. -1.
         22    1    1    2    0    0  0.46206646759E+03  0.13219271879E+04  0.24300992261E+04  0.28047066084E+04  0.00000000000E+00 0.  1.
<mgrwt>
<rscale>  0 0.46652973E+04</rscale>
<asrwt>0</asrwt>
<pdfrwt beam="1">  1        2 0.28766935E+00 0.46652973E+04</pdfrwt>
<pdfrwt beam="2">  1       -2 0.44769100E+00 0.46652973E+04</pdfrwt>
<totfact> 0.21248659E-02</totfact>
</mgrwt>
</event>
<event>
 6    1  0.1817112E-005  0.2244026E+04  0.7818608E-02  0.8500324E-01
          2   -1    0    0  501    0  0.00000000000E+00  0.00000000000E+00  0.22044907529E+04  0.22044907529E+04  0.00000000000E+00 0. -1.
         -2   -1    0    0    0  501 -0.00000000000E+00 -0.00000000000E+00 -0.57106742000E+03  0.57106742000E+03  0.00000000000E+00 0.  1.
         23    2    1    2    0    0  0.51500273104E+03  0.99058758479E+03  0.71324735590E+03  0.13287632998E+04  0.10197323227E+03 0.  0.
         11    1    3    3    0    0  0.10984074440E+02  0.49099585310E+02  0.13764503669E+02  0.52162062173E+02  0.00000000000E+00 0. -1.
        -11    1    3    3    0    0  0.50401865660E+03  0.94148799948E+03  0.69948285224E+03  0.12766012376E+04  0.00000000000E+00 0.  1.
         22    1    1    2    0    0 -0.51500273104E+03 -0.99058758479E+03  0.92017597695E+03  0.14467948730E+04  0.00000000000E+00 0. -1.
<mgrwt>
<rscale>  0 0.22440257E+04</rscale>
<asrwt>0</asrwt>
<pdfrwt beam="1">  1        2 0.33915242E+00 0.22440257E+04</pdfrwt>
<pdfrwt beam="2">  1       -2 0.87856527E-01 0.22440257E+04</pdfrwt>
<totfact> 0.52227199E+00</totfact>
</mgrwt>
</event>
<event>
 6    1  0.1817112E-005  0.1206342E+04  0.7818608E-02  0.9107324E-01
         -2   -1    0    0    0  501 -0.00000000000E+00  0.00000000000E+00  0.99939222224E+03  0.99939222224E+03  0.00000000000E+00 0. -1.
          2   -1    0    0  501    0  0.00000000000E+00 -0.00000000000E+00 -0.36403633037E+03  0.36403633037E+03  0.00000000000E+00 0.  1.
         23    2    1    2    0    0  0.37292590456E+03  0.45920463310E+03  0.43359454949E+03  0.73840834124E+03  0.85440152801E+02 0.  0.
         11    1    3    3    0    0  0.25923105404E+03  0.29327341757E+03  0.23945792939E+03  0.45885742533E+03  0.00000000000E+00 0. -1.
        -11    1    3    3    0    0  0.11369485052E+03  0.16593121553E+03  0.19413662010E+03  0.27955091591E+03  0.00000000000E+00 0.  1.
         22    1    1    2    0    0 -0.37292590456E+03 -0.45920463310E+03  0.20176134238E+03  0.62502021138E+03  0.00000000000E+00 0.  1.
<mgrwt>
<rscale>  0 0.12063417E+04</rscale>
<asrwt>0</asrwt>
<pdfrwt beam="1">  1        2 0.56005590E-01 0.12063417E+04</pdfrwt>
<pdfrwt beam="2">  1       -2 0.15375265E+00 0.12063417E+04</pdfrwt>
<totfact> 0.24438079E+01</totfact>
</mgrwt>
</event>
<event>
 6    1  0.1817112E-005  0.2953925E+04  0.7818608E-02  0.8257012E-01
         -2   -1    0    0    0  501 -0.00000000000E+00  0.00000000000E+00  0.10962572090E+04  0.10962572090E+04  0.00000000000E+00 0.  1.
          2   -1    0    0  501    0  0.00000000000E+00 -0.00000000000E+00 -0.19898778383E+04  0.19898778383E+04  0.00000000000E+00 0. -1.
         23    2    1    2    0    0 -0.43829213544E+03  0.13722172427E+04 -0.11331939668E+03  0.14478584618E+04  0.91502364576E+02 0.  0.
         11    1    3    3    0    0 -0.27990602936E+03  0.10080830951E+04 -0.89997370212E+02  0.10500849673E+04  0.00000000000E+00 0.  1.
        -11    1    3    3    0    0 -0.15838610608E+03  0.36413414760E+03 -0.23322026468E+02  0.39777349455E+03  0.00000000000E+00 0. -1.
         22    1    1    2    0    0  0.43829213544E+03 -0.13722172427E+04 -0.78030123266E+03  0.16382765855E+04  0.00000000000E+00 0. -1.
<mgrwt>
<rscale>  0 0.29539248E+04</rscale>
<asrwt>0</asrwt>
<pdfrwt beam="1">  1        2 0.30613505E+00 0.29539248E+04</pdfrwt>
<pdfrwt beam="2">  1       -2 0.16865496E+00 0.29539248E+04</pdfrwt>
<totfact> 0.12673660E+00</totfact>
</mgrwt>
</event>
<event>
 6    1  0.1817112E-005  0.3438021E+04  0.7818608E-02  0.8128637E-01
         -2   -1    0    0    0  501 -0.00000000000E+00  0.00000000000E+00  0.94158348013E+03  0.94158348013E+03  0.00000000000E+00 0.  1.
          2   -1    0    0  501    0  0.00000000000E+00 -0.00000000000E+00 -0.31383275312E+04  0.31383275312E+04  0.00000000000E+00 0. -1.
         23    2    1    2    0    0  0.34396269924E+03  0.12002603428E+04  0.30077295345E+03  0.12876849429E+04  0.93450059938E+02 0.  0.
         11    1    3    3    0    0  0.25842127254E+03  0.78458932391E+03  0.16744370555E+03  0.84285191808E+03  0.00000000000E+00 0. -1.
        -11    1    3    3    0    0  0.85541426699E+02  0.41567101894E+03  0.13332924790E+03  0.44483302486E+03  0.00000000000E+00 0.  1.
         22    1    1    2    0    0 -0.34396269924E+03 -0.12002603428E+04 -0.24975170046E+04  0.27922260684E+04  0.00000000000E+00 0. -1.
<mgrwt>
<rscale>  0 0.34380212E+04</rscale>
<asrwt>0</asrwt>
<pdfrwt beam="1">  1        2 0.48281962E+00 0.34380212E+04</pdfrwt>
<pdfrwt beam="2">  1       -2 0.14485900E+00 0.34380212E+04</pdfrwt>
<totfact> 0.38542851E-01</totfact>
</mgrwt>
</event>
<event>
 6    1  0.1817112E-005  0.3725573E+04  0.7818608E-02  0.8062318E-01
          1   -1    0    0  501    0  0.00000000000E+00  0.00000000000E+00  0.35705681024E+04  0.35705681024E+04  0.00000000000E+00 0. -1.
         -1   -1    0    0    0  501 -0.00000000000E+00 -0.00000000000E+00 -0.97182650588E+03  0.97182650588E+03  0.00000000000E+00 0.  1.
         23    2    1    2    0    0  0.63518469893E+03 -0.79028923027E+03 -0.60354928850E+03  0.11834239949E+04  0.90575597220E+02 0.  0.
         11    1    3    3    0    0  0.32337957265E+03 -0.33754572325E+03 -0.30034843406E+03  0.55562635389E+03  0.00000000000E+00 0.  1.
        -11    1    3    3    0    0  0.31180512628E+03 -0.45274350702E+03 -0.30320085444E+03  0.62779764101E+03  0.00000000000E+00 0. -1.
         22    1    1    2    0    0 -0.63518469893E+03  0.79028923027E+03  0.32022908850E+04  0.33589706134E+04  0.00000000000E+00 0. -1.
<mgrwt>
<rscale>  0 0.37255726E+04</rscale>
<asrwt>0</asrwt>
<pdfrwt beam="1">  1        1 0.54931816E+00 0.37255726E+04</pdfrwt>
<pdfrwt beam="2">  1       -1 0.14951177E+00 0.37255726E+04</pdfrwt>
<totfact> 0.61785779E-02</totfact>
</mgrwt>
</event>
<event>
 6    1  0.1817112E-005  0.1144337E+04  0.7818608E-02  0.9163024E-01
         -2   -1    0    0    0  501 -0.00000000000E+00  0.00000000000E+00  0.43381707901E+03  0.43381707901E+03  0.00000000000E+00 0. -1.
          2   -1    0    0  501    0  0.00000000000E+00 -0.00000000000E+00 -0.75464260714E+03  0.75464260714E+03  0.00000000000E+00 0.  1.
         23    2    1    2    0    0  0.41177102343E+03  0.17943184884E+03  0.20044949317E+03  0.50036171933E+03  0.91818771187E+02 0.  0.
         11    1    3    3    0    0  0.32478058669E+03  0.17620570124E+03  0.17966088165E+03  0.41086361610E+03  0.00000000000E+00 0.  1.
        -11    1    3    3    0    0  0.86990436740E+02  0.32261476013E+01  0.20788611523E+02  0.89498103229E+02  0.00000000000E+00 0. -1.
         22    1    1    2    0    0 -0.41177102343E+03 -0.17943184884E+03 -0.52127502130E+03  0.68809796682E+03  0.00000000000E+00 0.  1.
<mgrwt>
<rscale>  0 0.11443371E+04</rscale>
<asrwt>0</asrwt>
<pdfrwt beam="1">  1        2 0.11609886E+00 0.11443371E+04</pdfrwt>
<pdfrwt beam="2">  1       -2 0.66741090E-01 0.11443371E+04</pdfrwt>
<totfact> 0.75995450E+01</totfact>
</mgrwt>
</event>
<event>
 6    1  0.1817112E-005  0.1840185E+04  0.7818608E-02  0.8685216E-01
         -2   -1    0    0    0  501 -0.00000000000E+00  0.00000000000E+00  0.19948750316E+04  0.19948750316E+04  0.00000000000E+00 0.  1.
          2   -1    0    0  501    0  0.00000000000E+00 -0.00000000000E+00 -0.42437276235E+03  0.42437276235E+03  0.00000000000E+00 0. -1.
         23    2    1    2    0    0 -0.27380355143E+03  0.43170205532E+03 -0.21505619042E+03  0.56195027814E+03  0.90575386927E+02 0.  0.
         13    1    3    3    0    0 -0.15178820851E+03  0.21691704319E+03 -0.63909946465E+02  0.27235481476E+03  0.00000000000E+00 0.  1.
        -13    1    3    3    0    0 -0.12201534292E+03  0.21478501214E+03 -0.15114624395E+03  0.28959546338E+03  0.00000000000E+00 0. -1.
         22    1    1    2    0    0  0.27380355143E+03 -0.43170205532E+03  0.17855584597E+04  0.18572975158E+04  0.00000000000E+00 0. -1.
<mgrwt>
<rscale>  0 0.18401855E+04</rscale>
<asrwt>0</asrwt>
<pdfrwt beam="1">  1        2 0.65288118E-01 0.18401855E+04</pdfrwt>
<pdfrwt beam="2">  1       -2 0.30690385E+00 0.18401855E+04</pdfrwt>
<totfact> 0.20211808E+00</totfact>
</mgrwt>
</event>
<event>
 6    1  0.1817112E-005  0.3940342E+04  0.7818608E-02  0.8016691E-01
         -3   -1    0    0    0  501 -0.00000000000E+00  0.00000000000E+00  0.26371744718E+04  0.26371744718E+04  0.00000000000E+00 0.  1.
          3   -1    0    0  501    0  0.00000000000E+00 -0.00000000000E+00 -0.14718686676E+04  0.14718686676E+04  0.00000000000E+00 0. -1.
         23    2    1    2    0    0 -0.19532803755E+04  0.13387520789E+03  0.36390004899E+03  0.19935105868E+04  0.91839083868E+02 0.  0.
         11    1    3    3    0    0 -0.86886258761E+03  0.10485315689E+03  0.15592068803E+03  0.88894749092E+03  0.00000000000E+00 0.  1.
        -11    1    3    3    0    0 -0.10844177879E+04  0.29022050996E+02  0.20797936096E+03  0.11045630959E+04  0.00000000000E+00 0. -1.
         22    1    1    2    0    0  0.19532803755E+04 -0.13387520789E+03  0.80140575517E+03  0.21155325526E+04  0.00000000000E+00 0.  1.
<mgrwt>
<rscale>  0 0.39403424E+04</rscale>
<asrwt>0</asrwt>
<pdfrwt beam="1">  1        3 0.22644133E+00 0.39403424E+04</pdfrwt>
<pdfrwt beam="2">  1       -3 0.40571915E+00 0.39403424E+04</pdfrwt>
<totfact> 0.20377457E-03</totfact>
</mgrwt>
</event>
<event>
 6    1  0.1817112E-005  0.3698159E+04  0.7818608E-02  0.8068370E-01
         -2   -1    0    0    0  501 -0.00000000000E+00  0.00000000000E+00  0.84513159150E+03  0.84513159150E+03  0.00000000000E+00 0.  1.
          2   -1    0    0  501    0  0.00000000000E+00 -0.00000000000E+00 -0.40456357714E+04  0.40456357714E+04  0.00000000000E+00 0. -1.
         23    2    1    2    0    0 -0.96585209811E+03  0.10234575276E+04 -0.17309545246E+02  0.14103846730E+04  0.92464691373E+02 0.  0.
         11    1    3    3    0    0 -0.46693645579E+03  0.43195769930E+03  0.82385403317E+01  0.63614855284E+03  0.00000000000E+00 0. -1.
        -11    1    3    3    0    0 -0.49891564231E+03  0.59149982831E+03 -0.25548085577E+02  0.77423612013E+03  0.00000000000E+00 0.  1.
         22    1    1    2    0    0  0.96585209811E+03 -0.10234575276E+04 -0.31831946346E+04  0.34803826899E+04  0.00000000000E+00 0. -1.
<mgrwt>
<rscale>  0 0.36981588E+04</rscale>
<asrwt>0</asrwt>
<pdfrwt beam="1">  1        2 0.62240551E+00 0.36981588E+04</pdfrwt>
<pdfrwt beam="2">  1       -2 0.13002024E+00 0.36981588E+04</pdfrwt>
<totfact> 0.10984600E-01</totfact>
</mgrwt>
</event>
<event>
 6    1  0.1817112E-005  0.2278387E+04  0.7818608E-02  0.8486492E-01
         -2   -1    0    0    0  501 -0.00000000000E+00  0.00000000000E+00  0.99766543405E+03  0.99766543405E+03  0.00000000000E+00 0.  1.
          2   -1    0    0  501    0  0.00000000000E+00 -0.00000000000E+00 -0.13007980706E+04  0.13007980706E+04  0.00000000000E+00 0. -1.
         23    2    1    2    0    0  0.54965525846E+03  0.29021932896E+03 -0.11126345689E+04  0.12778550879E+04  0.92788898308E+02 0.  0.
         11    1    3    3    0    0  0.40678606970E+03  0.23318742925E+03 -0.75809484932E+03  0.89138043743E+03  0.00000000000E+00 0.  1.
        -11    1    3    3    0    0  0.14286918877E+03  0.57031899711E+02 -0.35453971958E+03  0.38647465046E+03  0.00000000000E+00 0. -1.
         22    1    1    2    0    0 -0.54965525846E+03 -0.29021932896E+03  0.80950193231E+03  0.10206084168E+04  0.00000000000E+00 0.  1.
<mgrwt>
<rscale>  0 0.22783865E+04</rscale>
<asrwt>0</asrwt>
<pdfrwt beam="1">  1        2 0.20012278E+00 0.22783865E+04</pdfrwt>
<pdfrwt beam="2">  1       -2 0.15348699E+00 0.22783865E+04</pdfrwt>
<totfact> 0.42273980E+00</totfact>
</mgrwt>
</event>
<event>
 6    1  0.1817112E-005  0.1369052E+04  0.7818608E-02  0.8976530E-01
         -1   -1    0    0    0  501 -0.00000000000E+00  0.00000000000E+00  0.26129946120E+03  0.26129946120E+03  0.00000000000E+00 0. -1.
          1   -1    0    0  501    0  0.00000000000E+00 -0.00000000000E+00 -0.17932514813E+04  0.17932514813E+04  0.00000000000E+00 0.  1.
         23    2    1    2    0    0 -0.16508190058E+03  0.62609862770E+03 -0.10884978230E+04  0.12697559690E+04  0.90560392069E+02 0.  0.
         11    1    3    3    0    0 -0.10046727879E+03  0.41536943434E+03 -0.79658248479E+03  0.90397405724E+03  0.00000000000E+00 0.  1.
        -11    1    3    3    0    0 -0.64614621797E+02  0.21072919336E+03 -0.29191533823E+03  0.36578191177E+03  0.00000000000E+00 0. -1.
         22    1    1    2    0    0  0.16508190058E+03 -0.62609862770E+03 -0.44345419710E+03  0.78479497350E+03  0.00000000000E+00 0. -1.
<mgrwt>
<rscale>  0 0.13690517E+04</rscale>
<asrwt>0</asrwt>
<pdfrwt beam="1">  1        1 0.27588484E+00 0.13690517E+04</pdfrwt>
<pdfrwt beam="2">  1       -1 0.40199918E-01 0.13690517E+04</pdfrwt>
<totfact> 0.24297087E+01</totfact>
</mgrwt>
</event>
<event>
 6    1  0.1817112E-005  0.3324210E+04  0.7818608E-02  0.8156762E-01
          2   -1    0    0  501    0  0.00000000000E+00  0.00000000000E+00  0.12030592546E+04  0.12030592546E+04  0.00000000000E+00 0. -1.
         -2   -1    0    0    0  501 -0.00000000000E+00 -0.00000000000E+00 -0.22963064874E+04  0.22963064874E+04  0.00000000000E+00 0.  1.
         23    2    1    2    0    0  0.15903393170E+04  0.44410378271E+03 -0.35904196358E+03  0.16923060610E+04  0.92635627432E+02 0.  0.
         11    1    3    3    0    0  0.10049381968E+04  0.25006042021E+03 -0.25950854717E+03  0.10676027722E+04  0.00000000000E+00 0.  1.
        -11    1    3    3    0    0  0.58540112023E+03  0.19404336249E+03 -0.99533416409E+02  0.62470328883E+03  0.00000000000E+00 0. -1.
         22    1    1    2    0    0 -0.15903393170E+04 -0.44410378271E+03 -0.73420526926E+03  0.18070596810E+04  0.00000000000E+00 0. -1.
<mgrwt>
<rscale>  0 0.33242098E+04</rscale>
<asrwt>0</asrwt>
<pdfrwt beam="1">  1        2 0.18508604E+00 0.33242098E+04</pdfrwt>
<pdfrwt beam="2">  1       -2 0.35327791E+00 0.33242098E+04</pdfrwt>
<totfact> 0.23311429E-01</totfact>
</mgrwt>
</event>
<event>
 6    1  0.1817112E-005  0.2842391E+04  0.7818608E-02  0.8290227E-01
          2   -1    0    0  501    0  0.00000000000E+00  0.00000000000E+00  0.11770663853E+04  0.11770663853E+04  0.00000000000E+00 0.  1.
         -2   -1    0    0    0  501 -0.00000000000E+00 -0.00000000000E+00 -0.17159580254E+04  0.17159580254E+04  0.00000000000E+00 0. -1.
         23    2    1    2    0    0 -0.73949130988E+03  0.95406942064E+03  0.49103970828E+03  0.13062495560E+04  0.89844592098E+02 0.  0.
         11    1    3    3    0    0 -0.64259132612E+03  0.85242993685E+03  0.40613978630E+03  0.11421514504E+04  0.00000000000E+00 0. -1.
        -11    1    3    3    0    0 -0.96899983756E+02  0.10163948380E+03  0.84899921983E+02  0.16409810563E+03  0.00000000000E+00 0.  1.
         22    1    1    2    0    0  0.73949130988E+03 -0.95406942064E+03 -0.10299313484E+04  0.15867748546E+04  0.00000000000E+00 0. -1.
<mgrwt>
<rscale>  0 0.28423909E+04</rscale>
<asrwt>0</asrwt>
<pdfrwt beam="1">  1        2 0.18108714E+00 0.28423909E+04</pdfrwt>
<pdfrwt beam="2">  1       -2 0.26399354E+00 0.28423909E+04</pdfrwt>
<totfact> 0.89414312E-01</totfact>
</mgrwt>
</event>
<event>
 6    1  0.1817112E-005  0.3473594E+04  0.7818608E-02  0.8120076E-01
         -2   -1    0    0    0  501 -0.00000000000E+00  0.00000000000E+00  0.30809780737E+04  0.30809780737E+04  0.00000000000E+00 0.  1.
          2   -1    0    0  501    0  0.00000000000E+00 -0.00000000000E+00 -0.97906050456E+03  0.97906050456E+03  0.00000000000E+00 0. -1.
         23    2    1    2    0    0 -0.69371260983E+03 -0.85748557954E+03  0.26179786369E+04  0.28423203310E+04  0.91945724438E+02 0.  0.
         13    1    3    3    0    0 -0.61499033784E+03 -0.78442770161E+03  0.24165244589E+04  0.26140257067E+04  0.00000000000E+00 0.  1.
        -13    1    3    3    0    0 -0.78722271985E+02 -0.73057877930E+02  0.20145417802E+03  0.22829462428E+03  0.00000000000E+00 0. -1.
         22    1    1    2    0    0  0.69371260983E+03  0.85748557954E+03 -0.51606106778E+03  0.12177182473E+04  0.00000000000E+00 0. -1.
<mgrwt>
<rscale>  0 0.34735941E+04</rscale>
<asrwt>0</asrwt>
<pdfrwt beam="1">  1        2 0.15062469E+00 0.34735941E+04</pdfrwt>
<pdfrwt beam="2">  1       -2 0.47399662E+00 0.34735941E+04</pdfrwt>
<totfact> 0.51614370E-02</totfact>
</mgrwt>
</event>
<event>
 6    1  0.1817112E-005  0.4480156E+04  0.7818608E-02  0.7914120E-01
         -2   -1    0    0    0  501 -0.00000000000E+00  0.00000000000E+00  0.12058110118E+04  0.12058110118E+04  0.00000000000E+00 0.  1.
          2   -1    0    0  501    0  0.00000000000E+00 -0.00000000000E+00 -0.41614731687E+04  0.41614731687E+04  0.00000000000E+00 0. -1.
         23    2    1    2    0    0 -0.82524760693E+03  0.13203761213E+04  0.44945393556E+03  0.16230563139E+04  0.88748201224E+02 0.  0.
         13    1    3    3    0    0 -0.23565085731E+03  0.42530266696E+03  0.17393885191E+03  0.51639946677E+03  0.00000000000E+00 0. -1.
        -13    1    3    3    0    0 -0.58959674962E+03  0.89507345439E+03  0.27551508365E+03  0.11066568471E+04  0.00000000000E+00 0.  1.
         22    1    1    2    0    0  0.82524760693E+03 -0.13203761213E+04 -0.34051160925E+04  0.37442278667E+04  0.00000000000E+00 0. -1.
<mgrwt>
<rscale>  0 0.44801563E+04</rscale>
<asrwt>0</asrwt>
<pdfrwt beam="1">  1        2 0.64022664E+00 0.44801563E+04</pdfrwt>
<pdfrwt beam="2">  1       -2 0.18550939E+00 0.44801563E+04</pdfrwt>
<totfact> 0.31496894E-02</totfact>
</mgrwt>
</event>
<event>
 6    1  0.1817112E-005  0.1272453E+04  0.7818608E-02  0.9051700E-01
          2   -1    0    0  501    0  0.00000000000E+00  0.00000000000E+00  0.28065671120E+04  0.28065671120E+04  0.00000000000E+00 0. -1.
         -2   -1    0    0    0  501 -0.00000000000E+00 -0.00000000000E+00 -0.14422740093E+03  0.14422740093E+03  0.00000000000E+00 0.  1.
         23    2    1    2    0    0 -0.12586902950E+03 -0.93115344327E+02  0.27601436559E+04  0.27661892813E+04  0.94322103197E+02 0.  0.
         13    1    3    3    0    0 -0.35845267131E+01 -0.40174237161E+02  0.10868813273E+04  0.10876294579E+04  0.00000000000E+00 0.  1.
        -13    1    3    3    0    0 -0.12228450278E+03 -0.52941107166E+02  0.16732623286E+04  0.16785598234E+04  0.00000000000E+00 0. -1.
         22    1    1    2    0    0  0.12586902950E+03  0.93115344327E+02 -0.97803944773E+02  0.18460523164E+03  0.00000000000E+00 0.  1.
<mgrwt>
<rscale>  0 0.12724526E+04</rscale>
<asrwt>0</asrwt>
<pdfrwt beam="1">  1        2 0.43177952E+00 0.12724526E+04</pdfrwt>
<pdfrwt beam="2">  1       -2 0.22188833E-01 0.12724526E+04</pdfrwt>
<totfact> 0.40378413E+01</totfact>
</mgrwt>
</event>
<event>
 6    1  0.1817112E-005  0.7822211E+03  0.7818608E-02  0.9586114E-01
         -2   -1    0    0    0  501 -0.00000000000E+00  0.00000000000E+00  0.45861958728E+03  0.45861958728E+03  0.00000000000E+00 0. -1.
          2   -1    0    0  501    0  0.00000000000E+00 -0.00000000000E+00 -0.33353890911E+03  0.33353890911E+03  0.00000000000E+00 0.  1.
         23    2    1    2    0    0 -0.25430743144E+03 -0.26046964687E+03  0.19251269305E+03  0.42193723383E+03  0.91941207729E+02 0.  0.
         13    1    3    3    0    0 -0.14478823408E+03 -0.15051702567E+03  0.16069624799E+03  0.26351905408E+03  0.00000000000E+00 0. -1.
        -13    1    3    3    0    0 -0.10951919736E+03 -0.10995262120E+03  0.31816445062E+02  0.15841817975E+03  0.00000000000E+00 0.  1.
         22    1    1    2    0    0  0.25430743144E+03  0.26046964687E+03 -0.67432014873E+02  0.37022126257E+03  0.00000000000E+00 0.  1.
<mgrwt>
<rscale>  0 0.78222114E+03</rscale>
<asrwt>0</asrwt>
<pdfrwt beam="1">  1        2 0.51313678E-01 0.78222114E+03</pdfrwt>
<pdfrwt beam="2">  1       -2 0.70556859E-01 0.78222114E+03</pdfrwt>
<totfact> 0.17965616E+02</totfact>
</mgrwt>
</event>
<event>
 6    1  0.1817112E-005  0.2030823E+04  0.7818608E-02  0.8592344E-01
          2   -1    0    0  501    0  0.00000000000E+00  0.00000000000E+00  0.80960231859E+03  0.80960231859E+03  0.00000000000E+00 0. -1.
         -2   -1    0    0    0  501 -0.00000000000E+00 -0.00000000000E+00 -0.12735399037E+04  0.12735399037E+04  0.00000000000E+00 0.  1.
         23    2    1    2    0    0  0.59170038974E+03  0.29551025581E+02  0.61092013467E+03  0.85582737592E+03  0.90743992021E+02 0.  0.
         11    1    3    3    0    0  0.36361327484E+03  0.28603353941E+02  0.43564122365E+03  0.56816902524E+03  0.00000000000E+00 0.  1.
        -11    1    3    3    0    0  0.22808711491E+03  0.94767164060E+00  0.17527891102E+03  0.28765835068E+03  0.00000000000E+00 0. -1.
         22    1    1    2    0    0 -0.59170038974E+03 -0.29551025581E+02 -0.10748577198E+04  0.12273148464E+04  0.00000000000E+00 0.  1.
<mgrwt>
<rscale>  0 0.20308233E+04</rscale>
<asrwt>0</asrwt>
<pdfrwt beam="1">  1        2 0.12455420E+00 0.20308233E+04</pdfrwt>
<pdfrwt beam="2">  1       -2 0.19592921E+00 0.20308233E+04</pdfrwt>
<totfact> 0.44431640E+00</totfact>
</mgrwt>
</event>
<event>
 6    1  0.1817112E-005  0.1234167E+04  0.7818608E-02  0.9083465E-01
         -2   -1    0    0    0  501 -0.00000000000E+00  0.00000000000E+00  0.14276170657E+04  0.14276170657E+04  0.00000000000E+00 0.  1.
          2   -1    0    0  501    0  0.00000000000E+00 -0.00000000000E+00 -0.26673243952E+03  0.26673243952E+03  0.00000000000E+00 0. -1.
         23    2    1    2    0    0 -0.17065549356E+03 -0.21126429074E+03 -0.17167780322E+03  0.33439416541E+03  0.92683826636E+02 0.  0.
         11    1    3    3    0    0 -0.13979792435E+03 -0.12973212215E+03 -0.15471686388E+03  0.24558336902E+03  0.00000000000E+00 0. -1.
        -11    1    3    3    0    0 -0.30857569208E+02 -0.81532168592E+02 -0.16960939340E+02  0.88810796394E+02  0.00000000000E+00 0.  1.
         22    1    1    2    0    0  0.17065549356E+03  0.21126429074E+03  0.13325624294E+04  0.13599553398E+04  0.00000000000E+00 0.  1.
<mgrwt>
<rscale>  0 0.12341666E+04</rscale>
<asrwt>0</asrwt>
<pdfrwt beam="1">  1        2 0.41035761E-01 0.12341666E+04</pdfrwt>
<pdfrwt beam="2">  1       -2 0.21963339E+00 0.12341666E+04</pdfrwt>
<totfact> 0.12249426E+01</totfact>
</mgrwt>
</event>
<event>
 6    1  0.1817112E-005  0.8242283E+03  0.7818608E-02  0.9525595E-01
         -2   -1    0    0    0  501 -0.00000000000E+00  0.00000000000E+00  0.25258151207E+03  0.25258151207E+03  0.00000000000E+00 0.  1.
          2   -1    0    0  501    0  0.00000000000E+00 -0.00000000000E+00 -0.67240889310E+03  0.67240889310E+03  0.00000000000E+00 0. -1.
         23    2    1    2    0    0 -0.34092362932E+03 -0.21594985207E+03 -0.27292570668E+03  0.49552170833E+03  0.90498963652E+02 0.  0.
         11    1    3    3    0    0 -0.10363317656E+03 -0.11589610128E+03 -0.90004127678E+02  0.17964544129E+03  0.00000000000E+00 0.  1.
        -11    1    3    3    0    0 -0.23729045276E+03 -0.10005375080E+03 -0.18292157901E+03  0.31587626705E+03  0.00000000000E+00 0. -1.
         22    1    1    2    0    0  0.34092362932E+03  0.21594985207E+03 -0.14690167434E+03  0.42946869684E+03  0.00000000000E+00 0. -1.
<mgrwt>
<rscale>  0 0.82422826E+03</rscale>
<asrwt>0</asrwt>
<pdfrwt beam="1">  1        2 0.10344752E+00 0.82422826E+03</pdfrwt>
<pdfrwt beam="2">  1       -2 0.38858694E-01 0.82422826E+03</pdfrwt>
<totfact> 0.27111983E+02</totfact>
</mgrwt>
</event>
<event>
 6    1  0.1817112E-005  0.1616062E+04  0.7818608E-02  0.8810741E-01
         -2   -1    0    0    0  501 -0.00000000000E+00  0.00000000000E+00  0.10352813433E+04  0.10352813433E+04  0.00000000000E+00 0.  1.
          2   -1    0    0  501    0  0.00000000000E+00 -0.00000000000E+00 -0.63066358257E+03  0.63066358257E+03  0.00000000000E+00 0. -1.
         23    2    1    2    0    0 -0.37329192219E+03  0.70794905997E+03  0.10917474508E+03  0.81281814383E+03  0.90639281159E+02 0.  0.
         11    1    3    3    0    0 -0.17574468873E+03  0.34318229211E+03  0.98083386960E+02  0.39784498493E+03  0.00000000000E+00 0.  1.
        -11    1    3    3    0    0 -0.19754723346E+03  0.36476676786E+03  0.11091358115E+02  0.41497315890E+03  0.00000000000E+00 0. -1.
         22    1    1    2    0    0  0.37329192219E+03 -0.70794905997E+03  0.29544301562E+03  0.85312678200E+03  0.00000000000E+00 0. -1.
<mgrwt>
<rscale>  0 0.16160622E+04</rscale>
<asrwt>0</asrwt>
<pdfrwt beam="1">  1        2 0.97025166E-01 0.16160622E+04</pdfrwt>
<pdfrwt beam="2">  1       -2 0.15927405E+00 0.16160622E+04</pdfrwt>
<totfact> 0.11390630E+01</totfact>
</mgrwt>
</event>
<event>
 6    1  0.1817112E-005  0.1625537E+04  0.7818608E-02  0.8805012E-01
          2   -1    0    0  501    0  0.00000000000E+00  0.00000000000E+00  0.17472285892E+04  0.17472285892E+04  0.00000000000E+00 0.  1.
         -2   -1    0    0    0  501 -0.00000000000E+00 -0.00000000000E+00 -0.37808010774E+03  0.37808010774E+03  0.00000000000E+00 0. -1.
         23    2    1    2    0    0 -0.28239829843E+03  0.63626106138E+03  0.12287932664E+04  0.14151843954E+04  0.90758163626E+02 0.  0.
         11    1    3    3    0    0 -0.17955147820E+03  0.47967633543E+03  0.95044792904E+03  0.10796663308E+04  0.00000000000E+00 0. -1.
        -11    1    3    3    0    0 -0.10284682022E+03  0.15658472595E+03  0.27834533737E+03  0.33551806459E+03  0.00000000000E+00 0.  1.
         22    1    1    2    0    0  0.28239829843E+03 -0.63626106138E+03  0.14035521501E+03  0.71012430149E+03  0.00000000000E+00 0. -1.
<mgrwt>
<rscale>  0 0.16255367E+04</rscale>
<asrwt>0</asrwt>
<pdfrwt beam="1">  1        2 0.26880439E+00 0.16255367E+04</pdfrwt>
<pdfrwt beam="2">  1       -2 0.58166171E-01 0.16255367E+04</pdfrwt>
<totfact> 0.24428677E+01</totfact>
</mgrwt>
</event>
<event>
 6    1  0.1817112E-005  0.5675024E+03  0.7818608E-02  0.9975221E-01
         -2   -1    0    0    0  501 -0.00000000000E+00  0.00000000000E+00  0.51801165099E+02  0.51801165099E+02  0.00000000000E+00 0.  1.
          2   -1    0    0  501    0  0.00000000000E+00 -0.00000000000E+00 -0.15543037330E+04  0.15543037330E+04  0.00000000000E+00 0. -1.
         23    2    1    2    0    0  0.19961427415E+03 -0.18810699620E+03 -0.85559130272E+03  0.90344972983E+03  0.94629998361E+02 0.  0.
         13    1    3    3    0    0  0.78446003298E+02 -0.88340359838E+02 -0.51583136399E+03  0.52918785954E+03  0.00000000000E+00 0.  1.
        -13    1    3    3    0    0  0.12116827085E+03 -0.99766636362E+02 -0.33975993873E+03  0.37426187029E+03  0.00000000000E+00 0. -1.
         22    1    1    2    0    0 -0.19961427415E+03  0.18810699620E+03 -0.64691126515E+03  0.70265516823E+03  0.00000000000E+00 0.  1.
<mgrwt>
<rscale>  0 0.56750240E+03</rscale>
<asrwt>0</asrwt>
<pdfrwt beam="1">  1        2 0.23912367E+00 0.56750240E+03</pdfrwt>
<pdfrwt beam="2">  1       -2 0.79694095E-02 0.56750240E+03</pdfrwt>
<totfact> 0.11956013E+03</totfact>
</mgrwt>
</event>
<event>
 6    1  0.1959920E-005  0.3470180E+04  0.7818608E-02  0.8120893E-01
          2   -1    0    0  501    0  0.00000000000E+00  0.00000000000E+00  0.16456060677E+04  0.16456060677E+04  0.00000000000E+00 0. -1.
         -2   -1    0    0    0  501 -0.00000000000E+00 -0.00000000000E+00 -0.18294397630E+04  0.18294397630E+04  0.00000000000E+00 0.  1.
         23    2    1    2    0    0  0.17479855791E+03 -0.12977539327E+04 -0.12301231393E+04  0.17989069921E+04  0.90242023366E+02 0.  0.
         11    1    3    3    0    0  0.13172605641E+03 -0.71133884373E+03 -0.71593766997E+03  0.10178022656E+04  0.00000000000E+00 0. -1.
        -11    1    3    3    0    0  0.43072501504E+02 -0.58641508899E+03 -0.51418546931E+03  0.78110472654E+03  0.00000000000E+00 0.  1.
         22    1    1    2    0    0 -0.17479855791E+03  0.12977539327E+04  0.10462894440E+04  0.16761388386E+04  0.00000000000E+00 0. -1.
<mgrwt>
<rscale>  0 0.34701799E+04</rscale>
<asrwt>0</asrwt>
<pdfrwt beam="1">  1        2 0.25317016E+00 0.34701799E+04</pdfrwt>
<pdfrwt beam="2">  1       -2 0.28145227E+00 0.34701799E+04</pdfrwt>
<totfact> 0.35741282E-01</totfact>
</mgrwt>
</event>
<event>
 6    1  0.1817112E-005  0.1673112E+04  0.7818608E-02  0.8776850E-01
          1   -1    0    0  501    0  0.00000000000E+00  0.00000000000E+00  0.58782511844E+03  0.58782511844E+03  0.00000000000E+00 0. -1.
         -1   -1    0    0    0  501 -0.00000000000E+00 -0.00000000000E+00 -0.11905344474E+04  0.11905344474E+04  0.00000000000E+00 0.  1.
         23    2    1    2    0    0 -0.50350459257E+03  0.61870393738E+03 -0.42601470860E+02  0.80366358780E+03  0.88027496702E+02 0.  0.
         11    1    3    3    0    0 -0.33714055888E+03  0.39271100798E+03  0.12284761310E+02  0.51772251988E+03  0.00000000000E+00 0.  1.
        -11    1    3    3    0    0 -0.16636403369E+03  0.22599292940E+03 -0.54886232170E+02  0.28594106792E+03  0.00000000000E+00 0. -1.
         22    1    1    2    0    0  0.50350459257E+03 -0.61870393738E+03 -0.56010785805E+03  0.97469597799E+03  0.00000000000E+00 0.  1.
<mgrwt>
<rscale>  0 0.16731121E+04</rscale>
<asrwt>0</asrwt>
<pdfrwt beam="1">  1        1 0.90434634E-01 0.16731121E+04</pdfrwt>
<pdfrwt beam="2">  1       -1 0.18315914E+00 0.16731121E+04</pdfrwt>
<totfact> 0.66456515E+00</totfact>
</mgrwt>
</event>
<event>
 6    1  0.1817112E-005  0.2694439E+04  0.7818608E-02  0.8336812E-01
          2   -1    0    0  501    0  0.00000000000E+00  0.00000000000E+00  0.23326148365E+04  0.23326148365E+04  0.00000000000E+00 0. -1.
         -2   -1    0    0    0  501 -0.00000000000E+00 -0.00000000000E+00 -0.77809679353E+03  0.77809679353E+03  0.00000000000E+00 0.  1.
         23    2    1    2    0    0 -0.22113260599E+01  0.28756517313E+03  0.22958960846E+04  0.23155135293E+04  0.88121815948E+02 0.  0.
         11    1    3    3    0    0  0.42325965628E+02  0.14135191091E+03  0.11854517401E+04  0.11945993798E+04  0.00000000000E+00 0.  1.
        -11    1    3    3    0    0 -0.44537291688E+02  0.14621326222E+03  0.11104443444E+04  0.11209141495E+04  0.00000000000E+00 0. -1.
         22    1    1    2    0    0  0.22113260599E+01 -0.28756517313E+03 -0.74137804162E+03  0.79519810070E+03  0.00000000000E+00 0.  1.
<mgrwt>
<rscale>  0 0.26944388E+04</rscale>
<asrwt>0</asrwt>
<pdfrwt beam="1">  1        2 0.35886382E+00 0.26944388E+04</pdfrwt>
<pdfrwt beam="2">  1       -2 0.11970720E+00 0.26944388E+04</pdfrwt>
<totfact> 0.20366253E+00</totfact>
</mgrwt>
</event>
<event>
 6    1  0.1817112E-005  0.2032087E+04  0.7818608E-02  0.8591764E-01
          2   -1    0    0  501    0  0.00000000000E+00  0.00000000000E+00  0.29908244710E+04  0.29908244710E+04  0.00000000000E+00 0.  1.
         -2   -1    0    0    0  501 -0.00000000000E+00 -0.00000000000E+00 -0.34517037541E+03  0.34517037541E+03  0.00000000000E+00 0. -1.
         23    2    1    2    0    0  0.50537477093E+03 -0.38863541404E+03  0.26199800566E+04  0.26979507253E+04  0.90561995308E+02 0.  0.
         13    1    3    3    0    0  0.23730109406E+03 -0.23340201182E+03  0.12711114235E+04  0.13139682490E+04  0.00000000000E+00 0. -1.
        -13    1    3    3    0    0  0.26807367687E+03 -0.15523340221E+03  0.13488686331E+04  0.13839824763E+04  0.00000000000E+00 0.  1.
         22    1    1    2    0    0 -0.50537477093E+03  0.38863541404E+03  0.25674038925E+02  0.63804412105E+03  0.00000000000E+00 0. -1.
<mgrwt>
<rscale>  0 0.20320866E+04</rscale>
<asrwt>0</asrwt>
<pdfrwt beam="1">  1        2 0.46012682E+00 0.20320866E+04</pdfrwt>
<pdfrwt beam="2">  1       -2 0.53103137E-01 0.20320866E+04</pdfrwt>
<totfact> 0.54786790E+00</totfact>
</mgrwt>
</event>
<event>
 6    1  0.1817112E-005  0.1749828E+04  0.7818608E-02  0.8733445E-01
         -2   -1    0    0    0  501 -0.00000000000E+00  0.00000000000E+00  0.35113072881E+03  0.35113072881E+03  0.00000000000E+00 0.  1.
          2   -1    0    0  501    0  0.00000000000E+00 -0.00000000000E+00 -0.21800273126E+04  0.21800273126E+04  0.00000000000E+00 0. -1.
         23    2    1    2    0    0  0.13706126758E+03 -0.84625198920E+03 -0.68360362210E+03  0.11005553054E+04  0.94762058374E+02 0.  0.
         11    1    3    3    0    0  0.13735672839E+03 -0.72222608960E+03 -0.61701639093E+03  0.95978467481E+03  0.00000000000E+00 0. -1.
        -11    1    3    3    0    0 -0.29546081100E+00 -0.12402589961E+03 -0.66587231177E+02  0.14077063055E+03  0.00000000000E+00 0.  1.
         22    1    1    2    0    0 -0.13706126758E+03  0.84625198920E+03 -0.11452929616E+04  0.14306027360E+04  0.00000000000E+00 0. -1.
<mgrwt>
<rscale>  0 0.17498281E+04</rscale>
<asrwt>0</asrwt>
<pdfrwt beam="1">  1        2 0.33538882E+00 0.17498281E+04</pdfrwt>
<pdfrwt beam="2">  1       -2 0.54020112E-01 0.17498281E+04</pdfrwt>
<totfact> 0.16215605E+01</totfact>
</mgrwt>
</event>
<event>
 6    1  0.1817112E-005  0.1106115E+04  0.7818608E-02  0.9199253E-01
          2   -1    0    0  501    0  0.00000000000E+00  0.00000000000E+00  0.14628602761E+03  0.14628602761E+03  0.00000000000E+00 0. -1.
         -2   -1    0    0    0  501 -0.00000000000E+00 -0.00000000000E+00 -0.20909196295E+04  0.20909196295E+04  0.00000000000E+00 0.  1.
         23    2    1    2    0    0  0.29810285391E+03 -0.36959143502E+03 -0.41927350629E+03  0.63964922255E+03  0.88869086209E+02 0.  0.
         11    1    3    3    0    0  0.41217536073E+02 -0.22387963948E+02 -0.18420939203E+02  0.50392828962E+02  0.00000000000E+00 0. -1.
        -11    1    3    3    0    0  0.25688531784E+03 -0.34720347107E+03 -0.40085256709E+03  0.58925639359E+03  0.00000000000E+00 0.  1.
         22    1    1    2    0    0 -0.29810285391E+03  0.36959143502E+03 -0.15253600956E+04  0.15975564345E+04  0.00000000000E+00 0.  1.
<mgrwt>
<rscale>  0 0.11061145E+04</rscale>
<asrwt>0</asrwt>
<pdfrwt beam="1">  1        2 0.22505544E-01 0.11061145E+04</pdfrwt>
<pdfrwt beam="2">  1       -2 0.32167993E+00 0.11061145E+04</pdfrwt>
<totfact> 0.58321903E+00</totfact>
</mgrwt>
</event>
<event>
 6    1  0.1817112E-005  0.5000895E+03  0.7818608E-02  0.1013756E+00
         -4   -1    0    0    0  501 -0.00000000000E+00  0.00000000000E+00  0.22153576170E+03  0.22153576170E+03  0.00000000000E+00 0.  1.
          4   -1    0    0  501    0  0.00000000000E+00 -0.00000000000E+00 -0.28222255638E+03  0.28222255638E+03  0.00000000000E+00 0. -1.
         23    2    1    2    0    0  0.17830497279E+02 -0.16577670581E+03  0.14499398146E+03  0.23898591676E+03  0.91055867062E+02 0.  0.
         11    1    3    3    0    0  0.39382572970E+02 -0.23506607496E+02  0.30222001814E+02  0.54926469424E+02  0.00000000000E+00 0.  1.
        -11    1    3    3    0    0 -0.21552075691E+02 -0.14227009832E+03  0.11477197965E+03  0.18405944734E+03  0.00000000000E+00 0. -1.
         22    1    1    2    0    0 -0.17830497279E+02  0.16577670581E+03 -0.20568077614E+03  0.26477240131E+03  0.00000000000E+00 0.  1.
<mgrwt>
<rscale>  0 0.50008955E+03</rscale>
<asrwt>0</asrwt>
<pdfrwt beam="1">  1        4 0.43418855E-01 0.50008955E+03</pdfrwt>
<pdfrwt beam="2">  1       -4 0.34082425E-01 0.50008955E+03</pdfrwt>
<totfact> 0.84257405E+01</totfact>
</mgrwt>
</event>
<event>
 6    1  0.1817112E-005  0.1346536E+04  0.7818608E-02  0.8993454E-01
          2   -1    0    0  501    0  0.00000000000E+00  0.00000000000E+00  0.18923151083E+04  0.18923151083E+04  0.00000000000E+00 0. -1.
         -2   -1    0    0    0  501 -0.00000000000E+00 -0.00000000000E+00 -0.23954243265E+03  0.23954243265E+03  0.00000000000E+00 0.  1.
         23    2    1    2    0    0 -0.58497370861E+03  0.20701997752E+03  0.42860129424E+03  0.75939731133E+03  0.89071298203E+02 0.  0.
         11    1    3    3    0    0 -0.46963740225E+03  0.15964846153E+03  0.38280479734E+03  0.62656718213E+03  0.00000000000E+00 0. -1.
        -11    1    3    3    0    0 -0.11533630637E+03  0.47371515996E+02  0.45796496902E+02  0.13283012920E+03  0.00000000000E+00 0.  1.
         22    1    1    2    0    0  0.58497370861E+03 -0.20701997752E+03  0.12241713814E+04  0.13724602297E+04  0.00000000000E+00 0. -1.
<mgrwt>
<rscale>  0 0.13465359E+04</rscale>
<asrwt>0</asrwt>
<pdfrwt beam="1">  1        2 0.29112539E+00 0.13465359E+04</pdfrwt>
<pdfrwt beam="2">  1       -2 0.36852683E-01 0.13465359E+04</pdfrwt>
<totfact> 0.51990672E+01</totfact>
</mgrwt>
</event>
<event>
 6    1  0.1817112E-005  0.2437458E+04  0.7818608E-02  0.8425612E-01
         -2   -1    0    0    0  501 -0.00000000000E+00  0.00000000000E+00  0.17061345785E+04  0.17061345785E+04  0.00000000000E+00 0.  1.
          2   -1    0    0  501    0  0.00000000000E+00 -0.00000000000E+00 -0.87056449633E+03  0.87056449633E+03  0.00000000000E+00 0. -1.
         23    2    1    2    0    0  0.92666239656E+03  0.53921190628E+03  0.10272412820E+04  0.14875753325E+04  0.90570643045E+02 0.  0.
         11    1    3    3    0    0  0.62046116205E+03  0.31122198550E+03  0.66933510354E+03  0.96428245795E+03  0.00000000000E+00 0.  1.
        -11    1    3    3    0    0  0.30620123451E+03  0.22798992078E+03  0.35790617850E+03  0.52329287459E+03  0.00000000000E+00 0. -1.
         22    1    1    2    0    0 -0.92666239656E+03 -0.53921190628E+03 -0.19167119991E+03  0.10891237423E+04  0.00000000000E+00 0. -1.
<mgrwt>
<rscale>  0 0.24374578E+04</rscale>
<asrwt>0</asrwt>
<pdfrwt beam="1">  1        2 0.13393300E+00 0.24374578E+04</pdfrwt>
<pdfrwt beam="2">  1       -2 0.26248224E+00 0.24374578E+04</pdfrwt>
<totfact> 0.14832255E+00</totfact>
</mgrwt>
</event>
<event>
 6    1  0.1817112E-005  0.2931812E+04  0.7818608E-02  0.8263475E-01
          2   -1    0    0  501    0  0.00000000000E+00  0.00000000000E+00  0.96040664275E+03  0.96040664275E+03  0.00000000000E+00 0. -1.
         -2   -1    0    0    0  501 -0.00000000000E+00 -0.00000000000E+00 -0.22374686722E+04  0.22374686722E+04  0.00000000000E+00 0.  1.
         23    2    1    2    0    0  0.64711412651E+03 -0.66454509539E+03 -0.18747718616E+04  0.20944108071E+04  0.10681862930E+03 0.  0.
         11    1    3    3    0    0  0.38911873672E+02 -0.54018101201E+02 -0.20227366147E+03  0.21294770084E+03  0.00000000000E+00 0. -1.
        -11    1    3    3    0    0  0.60820225283E+03 -0.61052699419E+03 -0.16724982001E+04  0.18814631063E+04  0.00000000000E+00 0.  1.
         22    1    1    2    0    0 -0.64711412651E+03  0.66454509539E+03  0.59770983213E+03  0.11034645078E+04  0.00000000000E+00 0. -1.
<mgrwt>
<rscale>  0 0.29318116E+04</rscale>
<asrwt>0</asrwt>
<pdfrwt beam="1">  1        2 0.14775487E+00 0.29318116E+04</pdfrwt>
<pdfrwt beam="2">  1       -2 0.34422595E+00 0.29318116E+04</pdfrwt>
<totfact> 0.38910391E-01</totfact>
</mgrwt>
</event>
<event>
 6    1  0.1817112E-005  0.2531849E+04  0.7818608E-02  0.8391726E-01
          2   -1    0    0  501    0  0.00000000000E+00  0.00000000000E+00  0.16610144465E+04  0.16610144465E+04  0.00000000000E+00 0. -1.
         -2   -1    0    0    0  501 -0.00000000000E+00 -0.00000000000E+00 -0.96481111772E+03  0.96481111772E+03  0.00000000000E+00 0.  1.
         23    2    1    2    0    0 -0.12211736942E+04  0.32423042861E+03  0.30544504492E+03  0.13032966993E+04  0.94313565285E+02 0.  0.
         13    1    3    3    0    0 -0.32715847483E+03  0.13045898269E+03  0.87723202878E+02  0.36297048660E+03  0.00000000000E+00 0.  1.
        -13    1    3    3    0    0 -0.89401521937E+03  0.19377144591E+03  0.21772184204E+03  0.94032621266E+03  0.00000000000E+00 0. -1.
         22    1    1    2    0    0  0.12211736942E+04 -0.32423042861E+03  0.39075828384E+03  0.13225288649E+04  0.00000000000E+00 0. -1.
<mgrwt>
<rscale>  0 0.25318493E+04</rscale>
<asrwt>0</asrwt>
<pdfrwt beam="1">  1        2 0.25554068E+00 0.25318493E+04</pdfrwt>
<pdfrwt beam="2">  1       -2 0.14843248E+00 0.25318493E+04</pdfrwt>
<totfact> 0.28258587E+00</totfact>
</mgrwt>
</event>
<event>
 6    1  0.1817112E-005  0.2845979E+04  0.7818608E-02  0.8289134E-01
          2   -1    0    0  501    0  0.00000000000E+00  0.00000000000E+00  0.24311958444E+04  0.24311958444E+04  0.00000000000E+00 0. -1.
         -2   -1    0    0    0  501 -0.00000000000E+00 -0.00000000000E+00 -0.83288198837E+03  0.83288198837E+03  0.00000000000E+00 0.  1.
         23    2    1    2    0    0  0.96361827220E+03  0.76103555625E+03  0.16206179989E+04  0.20359765473E+04  0.10517847000E+03 0.  0.
         11    1    3    3    0    0  0.44954101016E+03  0.29345408965E+03  0.73882325145E+03  0.91327006927E+03  0.00000000000E+00 0.  1.
        -11    1    3    3    0    0  0.51407726204E+03  0.46758146660E+03  0.88179474744E+03  0.11227064781E+04  0.00000000000E+00 0. -1.
         22    1    1    2    0    0 -0.96361827220E+03 -0.76103555625E+03 -0.22304142910E+02  0.12281012854E+04  0.00000000000E+00 0.  1.
<mgrwt>
<rscale>  0 0.28459791E+04</rscale>
<asrwt>0</asrwt>
<pdfrwt beam="1">  1        2 0.37403013E+00 0.28459791E+04</pdfrwt>
<pdfrwt beam="2">  1       -2 0.12813569E+00 0.28459791E+04</pdfrwt>
<totfact> 0.14894236E+00</totfact>
</mgrwt>
</event>
<event>
 6    1  0.1817112E-005  0.1903734E+04  0.7818608E-02  0.8653000E-01
         -2   -1    0    0    0  501 -0.00000000000E+00  0.00000000000E+00  0.70746394839E+03  0.70746394839E+03  0.00000000000E+00 0.  1.
          2   -1    0    0  501    0  0.00000000000E+00 -0.00000000000E+00 -0.12807020188E+04  0.12807020188E+04  0.00000000000E+00 0. -1.
         23    2    1    2    0    0 -0.59518724619E+03  0.48098806317E+03  0.30126815257E+03  0.82611669588E+03  0.78159583602E+02 0.  0.
         13    1    3    3    0    0 -0.37392928660E+03  0.32099090431E+03  0.23050296401E+03  0.54404952756E+03  0.00000000000E+00 0. -1.
        -13    1    3    3    0    0 -0.22125795960E+03  0.15999715886E+03  0.70765188563E+02  0.28206716832E+03  0.00000000000E+00 0.  1.
         22    1    1    2    0    0  0.59518724619E+03 -0.48098806317E+03 -0.87450622301E+03  0.11620492713E+04  0.00000000000E+00 0.  1.
<mgrwt>
<rscale>  0 0.19037337E+04</rscale>
<asrwt>0</asrwt>
<pdfrwt beam="1">  1        2 0.19703108E+00 0.19037337E+04</pdfrwt>
<pdfrwt beam="2">  1       -2 0.10884061E+00 0.19037337E+04</pdfrwt>
<totfact> 0.10710450E+01</totfact>
</mgrwt>
</event>
<event>
 6    1  0.1817112E-005  0.4849587E+04  0.7818608E-02  0.7852138E-01
          2   -1    0    0  501    0  0.00000000000E+00  0.00000000000E+00  0.24414811690E+04  0.24414811690E+04  0.00000000000E+00 0. -1.
         -2   -1    0    0    0  501 -0.00000000000E+00 -0.00000000000E+00 -0.24082201849E+04  0.24082201849E+04  0.00000000000E+00 0.  1.
         23    2    1    2    0    0  0.10448923704E+04  0.16024642263E+04 -0.14719724836E+04  0.24154829054E+04  0.90349385581E+02 0.  0.
         11    1    3    3    0    0  0.87302118589E+03  0.13955945828E+04 -0.12591065071E+04  0.20724862911E+04  0.00000000000E+00 0.  1.
        -11    1    3    3    0    0  0.17187118450E+03  0.20686964347E+03 -0.21286597656E+03  0.34299661431E+03  0.00000000000E+00 0. -1.
         22    1    1    2    0    0 -0.10448923704E+04 -0.16024642263E+04  0.15052334678E+04  0.24342184485E+04  0.00000000000E+00 0. -1.
<mgrwt>
<rscale>  0 0.48495873E+04</rscale>
<asrwt>0</asrwt>
<pdfrwt beam="1">  1        2 0.37561249E+00 0.48495873E+04</pdfrwt>
<pdfrwt beam="2">  1       -2 0.37049541E+00 0.48495873E+04</pdfrwt>
<totfact> 0.31960316E-02</totfact>
</mgrwt>
</event>
<event>
 6    1  0.1817112E-005  0.1295902E+04  0.7818608E-02  0.9032821E-01
          2   -1    0    0  501    0  0.00000000000E+00  0.00000000000E+00  0.10215963059E+04  0.10215963059E+04  0.00000000000E+00 0. -1.
         -2   -1    0    0    0  501 -0.00000000000E+00 -0.00000000000E+00 -0.41096541896E+03  0.41096541896E+03  0.00000000000E+00 0.  1.
         23    2    1    2    0    0  0.31945675417E+03 -0.40683383116E+03 -0.11717053767E+03  0.53966682755E+03  0.99724449871E+02 0.  0.
         13    1    3    3    0    0  0.22218812519E+03 -0.21534087012E+03 -0.42742394254E+02  0.31235583168E+03  0.00000000000E+00 0.  1.
        -13    1    3    3    0    0  0.97268628980E+02 -0.19149296104E+03 -0.74428143412E+02  0.22731099587E+03  0.00000000000E+00 0. -1.
         22    1    1    2    0    0 -0.31945675417E+03  0.40683383116E+03  0.72780142458E+03  0.89289489728E+03  0.00000000000E+00 0. -1.
<mgrwt>
<rscale>  0 0.12959024E+04</rscale>
<asrwt>0</asrwt>
<pdfrwt beam="1">  1        2 0.15716866E+00 0.12959024E+04</pdfrwt>
<pdfrwt beam="2">  1       -2 0.63225449E-01 0.12959024E+04</pdfrwt>
<totfact> 0.55430271E+01</totfact>
</mgrwt>
</event>
<event>
 6    1  0.1817112E-005  0.1431168E+04  0.7818608E-02  0.8931562E-01
          2   -1    0    0  501    0  0.00000000000E+00  0.00000000000E+00  0.31376742769E+03  0.31376742769E+03  0.00000000000E+00 0. -1.
         -2   -1    0    0    0  501 -0.00000000000E+00 -0.00000000000E+00 -0.16319740570E+04  0.16319740570E+04  0.00000000000E+00 0.  1.
         23    2    1    2    0    0  0.66254782943E+03  0.19762417215E+03 -0.89618695953E+03  0.11357257186E+04  0.93257180570E+02 0.  0.
         11    1    3    3    0    0  0.44194431113E+03  0.11881461245E+03 -0.65936479592E+03  0.80261673317E+03  0.00000000000E+00 0.  1.
        -11    1    3    3    0    0  0.22060351830E+03  0.78809559695E+02 -0.23682216361E+03  0.33310898541E+03  0.00000000000E+00 0. -1.
         22    1    1    2    0    0 -0.66254782943E+03 -0.19762417215E+03 -0.42201966981E+03  0.81001576614E+03  0.00000000000E+00 0.  1.
<mgrwt>
<rscale>  0 0.14311678E+04</rscale>
<asrwt>0</asrwt>
<pdfrwt beam="1">  1        2 0.48271914E-01 0.14311678E+04</pdfrwt>
<pdfrwt beam="2">  1       -2 0.25107292E+00 0.14311678E+04</pdfrwt>
<totfact> 0.64249323E+00</totfact>
</mgrwt>
</event>
<event>
 6    1  0.1817112E-005  0.3451618E+04  0.7818608E-02  0.8125352E-01
          2   -1    0    0  501    0  0.00000000000E+00  0.00000000000E+00  0.37609738345E+04  0.37609738345E+04  0.00000000000E+00 0. -1.
         -2   -1    0    0    0  501 -0.00000000000E+00 -0.00000000000E+00 -0.79192712464E+03  0.79192712464E+03  0.00000000000E+00 0.  1.
         23    2    1    2    0    0 -0.61506364487E+03  0.15921382445E+04  0.18120902568E+04  0.24909223677E+04  0.88406258020E+02 0.  0.
         13    1    3    3    0    0 -0.22637644152E+03  0.63975805455E+03  0.77707216586E+03  0.10316868772E+04  0.00000000000E+00 0. -1.
        -13    1    3    3    0    0 -0.38868720335E+03  0.95238018999E+03  0.10350180909E+04  0.14592354905E+04  0.00000000000E+00 0.  1.
         22    1    1    2    0    0  0.61506364487E+03 -0.15921382445E+04  0.11569564530E+04  0.20619785914E+04  0.00000000000E+00 0. -1.
<mgrwt>
<rscale>  0 0.34516183E+04</rscale>
<asrwt>0</asrwt>
<pdfrwt beam="1">  1        2 0.57861135E+00 0.34516183E+04</pdfrwt>
<pdfrwt beam="2">  1       -2 0.12183494E+00 0.34516183E+04</pdfrwt>
<totfact> 0.22127283E-01</totfact>
</mgrwt>
</event>
<event>
 6    1  0.1817112E-005  0.2116562E+04  0.7818608E-02  0.8553982E-01
          1   -1    0    0  501    0  0.00000000000E+00  0.00000000000E+00  0.15446193720E+04  0.15446193720E+04  0.00000000000E+00 0. -1.
         -1   -1    0    0    0  501 -0.00000000000E+00 -0.00000000000E+00 -0.72507115000E+03  0.72507115000E+03  0.00000000000E+00 0.  1.
         23    2    1    2    0    0  0.27748593100E+03  0.94926327027E+03  0.80909775864E+03  0.12806463317E+04  0.85537393331E+02 0.  0.
         13    1    3    3    0    0  0.12753294121E+03  0.46853685229E+03  0.45116127023E+03  0.66282571224E+03  0.00000000000E+00 0.  1.
        -13    1    3    3    0    0  0.14995298979E+03  0.48072641797E+03  0.35793648841E+03  0.61782061945E+03  0.00000000000E+00 0. -1.
         22    1    1    2    0    0 -0.27748593100E+03 -0.94926327027E+03  0.10450463358E+02  0.98904419030E+03  0.00000000000E+00 0.  1.
<mgrwt>
<rscale>  0 0.21165623E+04</rscale>
<asrwt>0</asrwt>
<pdfrwt beam="1">  1        1 0.23763375E+00 0.21165623E+04</pdfrwt>
<pdfrwt beam="2">  1       -1 0.11154941E+00 0.21165623E+04</pdfrwt>
<totfact> 0.41305223E+00</totfact>
</mgrwt>
</event>
<event>
 6    1  0.1817112E-005  0.1680403E+04  0.7818608E-02  0.8772621E-01
         -2   -1    0    0    0  501 -0.00000000000E+00  0.00000000000E+00  0.40760199810E+03  0.40760199810E+03  0.00000000000E+00 0. -1.
          2   -1    0    0  501    0  0.00000000000E+00 -0.00000000000E+00 -0.17319301046E+04  0.17319301046E+04  0.00000000000E+00 0.  1.
         23    2    1    2    0    0  0.70337502550E+03 -0.45499635926E+03 -0.65397157532E+03  0.10666220448E+04  0.90805571051E+02 0.  0.
         11    1    3    3    0    0  0.40689522171E+03 -0.21764808486E+03 -0.32818279974E+03  0.56624937999E+03  0.00000000000E+00 0.  1.
        -11    1    3    3    0    0  0.29647980379E+03 -0.23734827440E+03 -0.32578877558E+03  0.50037266483E+03  0.00000000000E+00 0. -1.
         22    1    1    2    0    0 -0.70337502550E+03  0.45499635926E+03 -0.67035653122E+03  0.10729100579E+04  0.00000000000E+00 0. -1.
<mgrwt>
<rscale>  0 0.16804025E+04</rscale>
<asrwt>0</asrwt>
<pdfrwt beam="1">  1        2 0.26645078E+00 0.16804025E+04</pdfrwt>
<pdfrwt beam="2">  1       -2 0.62708000E-01 0.16804025E+04</pdfrwt>
<totfact> 0.21151076E+01</totfact>
</mgrwt>
</event>
<event>
 6    1  0.1817112E-005  0.3296819E+04  0.7818608E-02  0.8163705E-01
          2   -1    0    0  501    0  0.00000000000E+00  0.00000000000E+00  0.30280410904E+04  0.30280410904E+04  0.00000000000E+00 0.  1.
         -2   -1    0    0    0  501 -0.00000000000E+00 -0.00000000000E+00 -0.89736365652E+03  0.89736365652E+03  0.00000000000E+00 0. -1.
         23    2    1    2    0    0  0.36719891057E+03  0.10543192992E+04 -0.37589644334E+03  0.11814410397E+04  0.89891989097E+02 0.  0.
         11    1    3    3    0    0  0.19910647653E+03  0.68916937690E+03 -0.26101515581E+03  0.76336539783E+03  0.00000000000E+00 0.  1.
        -11    1    3    3    0    0  0.16809243404E+03  0.36514992227E+03 -0.11488128753E+03  0.41807564189E+03  0.00000000000E+00 0. -1.
         22    1    1    2    0    0 -0.36719891057E+03 -0.10543192992E+04  0.25065738772E+04  0.27439637072E+04  0.00000000000E+00 0.  1.
<mgrwt>
<rscale>  0 0.32968191E+04</rscale>
<asrwt>0</asrwt>
<pdfrwt beam="1">  1        2 0.46585247E+00 0.32968191E+04</pdfrwt>
<pdfrwt beam="2">  1       -2 0.13805595E+00 0.32968191E+04</pdfrwt>
<totfact> 0.51978927E-01</totfact>
</mgrwt>
</event>
<event>
 6    1  0.1817112E-005  0.3232471E+04  0.7818608E-02  0.8180294E-01
          2   -1    0    0  501    0  0.00000000000E+00  0.00000000000E+00  0.20164070422E+04  0.20164070422E+04  0.00000000000E+00 0. -1.
         -2   -1    0    0    0  501 -0.00000000000E+00 -0.00000000000E+00 -0.12954812609E+04  0.12954812609E+04  0.00000000000E+00 0.  1.
         23    2    1    2    0    0 -0.36940637803E+03 -0.69744501656E+03  0.18043389829E+04  0.19714873226E+04  0.90732984874E+02 0.  0.
         11    1    3    3    0    0 -0.81516642291E+02 -0.18836861159E+03  0.56385683325E+03  0.60005185210E+03  0.00000000000E+00 0. -1.
        -11    1    3    3    0    0 -0.28788973574E+03 -0.50907640497E+03  0.12404821497E+04  0.13714354705E+04  0.00000000000E+00 0.  1.
         22    1    1    2    0    0  0.36940637803E+03  0.69744501656E+03 -0.10834132016E+04  0.13404009806E+04  0.00000000000E+00 0.  1.
<mgrwt>
<rscale>  0 0.32324712E+04</rscale>
<asrwt>0</asrwt>
<pdfrwt beam="1">  1        2 0.31021647E+00 0.32324712E+04</pdfrwt>
<pdfrwt beam="2">  1       -2 0.19930481E+00 0.32324712E+04</pdfrwt>
<totfact> 0.73851233E-01</totfact>
</mgrwt>
</event>
<event>
 6    1  0.1817112E-005  0.2912013E+04  0.7818608E-02  0.8269312E-01
         -2   -1    0    0    0  501 -0.00000000000E+00  0.00000000000E+00  0.29485557034E+04  0.29485557034E+04  0.00000000000E+00 0.  1.
          2   -1    0    0  501    0  0.00000000000E+00 -0.00000000000E+00 -0.71898075382E+03  0.71898075382E+03  0.00000000000E+00 0. -1.
         23    2    1    2    0    0  0.14008703861E+04 -0.26340020680E+03  0.14808690213E+04  0.20574501009E+04  0.91161131681E+02 0.  0.
         13    1    3    3    0    0  0.81303409375E+03 -0.11036073161E+03  0.82650197085E+03  0.11646069880E+04  0.00000000000E+00 0.  1.
        -13    1    3    3    0    0  0.58783629237E+03 -0.15303947520E+03  0.65436705044E+03  0.89284311292E+03  0.00000000000E+00 0. -1.
         22    1    1    2    0    0 -0.14008703861E+04  0.26340020680E+03  0.74870592827E+03  0.16100863563E+04  0.00000000000E+00 0. -1.
<mgrwt>
<rscale>  0 0.29120129E+04</rscale>
<asrwt>0</asrwt>
<pdfrwt beam="1">  1        2 0.11061242E+00 0.29120129E+04</pdfrwt>
<pdfrwt beam="2">  1       -2 0.45362395E+00 0.29120129E+04</pdfrwt>
<totfact> 0.11197304E-01</totfact>
</mgrwt>
</event>
<event>
 6    1  0.1817112E-005  0.2345966E+04  0.7818608E-02  0.8460015E-01
          2   -1    0    0  501    0  0.00000000000E+00  0.00000000000E+00  0.15961514754E+04  0.15961514754E+04  0.00000000000E+00 0. -1.
         -2   -1    0    0    0  501 -0.00000000000E+00 -0.00000000000E+00 -0.86200437292E+03  0.86200437292E+03  0.00000000000E+00 0.  1.
         23    2    1    2    0    0  0.29004874455E+03 -0.47774425638E+03 -0.71085572584E+03  0.90883308577E+03  0.91070665568E+02 0.  0.
         13    1    3    3    0    0  0.92940493923E+02 -0.20462858489E+03 -0.34300044019E+03  0.41007328020E+03  0.00000000000E+00 0. -1.
        -13    1    3    3    0    0  0.19710825062E+03 -0.27311567149E+03 -0.36785528565E+03  0.49875980557E+03  0.00000000000E+00 0.  1.
         22    1    1    2    0    0 -0.29004874455E+03  0.47774425638E+03  0.14450028283E+04  0.15493227626E+04  0.00000000000E+00 0. -1.
<mgrwt>
<rscale>  0 0.23459664E+04</rscale>
<asrwt>0</asrwt>
<pdfrwt beam="1">  1        2 0.24556176E+00 0.23459664E+04</pdfrwt>
<pdfrwt beam="2">  1       -2 0.13261606E+00 0.23459664E+04</pdfrwt>
<totfact> 0.41800005E+00</totfact>
</mgrwt>
</event>
<event>
 6    1  0.1817112E-005  0.4542751E+04  0.7818608E-02  0.7903195E-01
         -2   -1    0    0    0  501 -0.00000000000E+00  0.00000000000E+00  0.27576305412E+04  0.27576305412E+04  0.00000000000E+00 0.  1.
          2   -1    0    0  501    0  0.00000000000E+00 -0.00000000000E+00 -0.18708623881E+04  0.18708623881E+04  0.00000000000E+00 0. -1.
         23    2    1    2    0    0 -0.20771799310E+04 -0.89602089177E+03  0.24683154763E+03  0.22775253066E+04  0.93090307089E+02 0.  0.
         11    1    3    3    0    0 -0.64996157877E+03 -0.32518203009E+03  0.65184369501E+02  0.72968651393E+03  0.00000000000E+00 0. -1.
        -11    1    3    3    0    0 -0.14272183522E+04 -0.57083886168E+03  0.18164717813E+03  0.15478387927E+04  0.00000000000E+00 0.  1.
         22    1    1    2    0    0  0.20771799310E+04  0.89602089177E+03  0.63993660540E+03  0.23509676227E+04  0.00000000000E+00 0.  1.
<mgrwt>
<rscale>  0 0.45427513E+04</rscale>
<asrwt>0</asrwt>
<pdfrwt beam="1">  1        2 0.28782498E+00 0.45427513E+04</pdfrwt>
<pdfrwt beam="2">  1       -2 0.42425085E+00 0.45427513E+04</pdfrwt>
<totfact> 0.30605614E-02</totfact>
</mgrwt>
</event>
<event>
 6    1  0.1817112E-005  0.2427600E+04  0.7818608E-02  0.8429242E-01
         -2   -1    0    0    0  501 -0.00000000000E+00  0.00000000000E+00  0.81954791411E+03  0.81954791411E+03  0.00000000000E+00 0. -1.
          2   -1    0    0  501    0  0.00000000000E+00 -0.00000000000E+00 -0.17977115618E+04  0.17977115618E+04  0.00000000000E+00 0.  1.
         23    2    1    2    0    0  0.63610900168E+03  0.62524615278E+03 -0.13745960113E+04  0.16411826180E+04  0.91644845603E+02 0.  0.
         11    1    3    3    0    0  0.38860775455E+03  0.41386816848E+03 -0.94144624135E+03  0.10993743098E+04  0.00000000000E+00 0. -1.
        -11    1    3    3    0    0  0.24750124713E+03  0.21137798430E+03 -0.43314977000E+03  0.54180830819E+03  0.00000000000E+00 0.  1.
         22    1    1    2    0    0 -0.63610900168E+03 -0.62524615278E+03  0.39643236364E+03  0.97607685790E+03  0.00000000000E+00 0. -1.
<mgrwt>
<rscale>  0 0.24276003E+04</rscale>
<asrwt>0</asrwt>
<pdfrwt beam="1">  1        2 0.27657101E+00 0.24276003E+04</pdfrwt>
<pdfrwt beam="2">  1       -2 0.12608430E+00 0.24276003E+04</pdfrwt>
<totfact> 0.36432690E+00</totfact>
</mgrwt>
</event>
<event>
 6    1  0.1817112E-005  0.5782258E+03  0.7818608E-02  0.9951640E-01
         -2   -1    0    0    0  501 -0.00000000000E+00  0.00000000000E+00  0.49127534091E+02  0.49127534091E+02  0.00000000000E+00 0.  1.
          2   -1    0    0  501    0  0.00000000000E+00 -0.00000000000E+00 -0.17014138873E+04  0.17014138873E+04  0.00000000000E+00 0. -1.
         23    2    1    2    0    0 -0.15846688444E+03  0.13039561042E+03 -0.14338803175E+04  0.14508483032E+04  0.82663565992E+02 0.  0.
         11    1    3    3    0    0 -0.14391845410E+02  0.35848165078E+02 -0.12965020603E+03  0.13528263775E+03  0.00000000000E+00 0.  1.
        -11    1    3    3    0    0 -0.14407503903E+03  0.94547445346E+02 -0.13042301115E+04  0.13155656654E+04  0.00000000000E+00 0. -1.
         22    1    1    2    0    0  0.15846688444E+03 -0.13039561042E+03 -0.21840603566E+03  0.29969311820E+03  0.00000000000E+00 0.  1.
<mgrwt>
<rscale>  0 0.57822580E+03</rscale>
<asrwt>0</asrwt>
<pdfrwt beam="1">  1        2 0.26175601E+00 0.57822580E+03</pdfrwt>
<pdfrwt beam="2">  1       -2 0.75580815E-02 0.57822580E+03</pdfrwt>
<totfact> 0.10809075E+03</totfact>
</mgrwt>
</event>
<event>
 6    1  0.1817112E-005  0.1041895E+04  0.7818608E-02  0.9263752E-01
          4   -1    0    0  501    0  0.00000000000E+00  0.00000000000E+00  0.16611638444E+04  0.16611638444E+04  0.00000000000E+00 0. -1.
         -4   -1    0    0    0  501 -0.00000000000E+00 -0.00000000000E+00 -0.16337120288E+03  0.16337120288E+03  0.00000000000E+00 0.  1.
         23    2    1    2    0    0 -0.21572246361E+03 -0.38767428523E+03  0.12194877191E+04  0.13008164563E+04  0.90253106006E+02 0.  0.
         11    1    3    3    0    0 -0.12522305862E+03 -0.19049290778E+03  0.50401376475E+03  0.55317107425E+03  0.00000000000E+00 0. -1.
        -11    1    3    3    0    0 -0.90499404999E+02 -0.19718137745E+03  0.71547395434E+03  0.74764538202E+03  0.00000000000E+00 0.  1.
         22    1    1    2    0    0  0.21572246361E+03  0.38767428523E+03  0.27830492245E+03  0.52371859104E+03  0.00000000000E+00 0.  1.
<mgrwt>
<rscale>  0 0.10418951E+04</rscale>
<asrwt>0</asrwt>
<pdfrwt beam="1">  1        4 0.25556366E+00 0.10418951E+04</pdfrwt>
<pdfrwt beam="2">  1       -4 0.25134032E-01 0.10418951E+04</pdfrwt>
<totfact> 0.17642066E+00</totfact>
</mgrwt>
</event>
<event>
 6    1  0.1817112E-005  0.1788751E+04  0.7818608E-02  0.8712304E-01
         -2   -1    0    0    0  501 -0.00000000000E+00  0.00000000000E+00  0.74764835569E+03  0.74764835569E+03  0.00000000000E+00 0.  1.
          2   -1    0    0  501    0  0.00000000000E+00 -0.00000000000E+00 -0.10698984859E+04  0.10698984859E+04  0.00000000000E+00 0. -1.
         23    2    1    2    0    0  0.23029113944E+02  0.55875747022E+03 -0.86774675374E+03  0.10363254793E+04  0.90806496144E+02 0.  0.
         13    1    3    3    0    0  0.42119636973E+02  0.14602190605E+03 -0.20198468187E+03  0.25277316427E+03  0.00000000000E+00 0.  1.
        -13    1    3    3    0    0 -0.19090523029E+02  0.41273556417E+03 -0.66576207187E+03  0.78355231500E+03  0.00000000000E+00 0. -1.
         22    1    1    2    0    0 -0.23029113944E+02 -0.55875747022E+03  0.54549662355E+03  0.78122136230E+03  0.00000000000E+00 0.  1.
<mgrwt>
<rscale>  0 0.17887513E+04</rscale>
<asrwt>0</asrwt>
<pdfrwt beam="1">  1        2 0.16459977E+00 0.17887513E+04</pdfrwt>
<pdfrwt beam="2">  1       -2 0.11502282E+00 0.17887513E+04</pdfrwt>
<totfact> 0.12668289E+01</totfact>
</mgrwt>
</event>
<event>
 6    1  0.1817112E-005  0.2595556E+04  0.7818608E-02  0.8369712E-01
         -1   -1    0    0    0  501 -0.00000000000E+00  0.00000000000E+00  0.14015521667E+04  0.14015521667E+04  0.00000000000E+00 0.  1.
          1   -1    0    0  501    0  0.00000000000E+00 -0.00000000000E+00 -0.12016872963E+04  0.12016872963E+04  0.00000000000E+00 0. -1.
         23    2    1    2    0    0 -0.86881737581E+03 -0.15846275165E+03  0.10515957165E+04  0.13762922308E+04  0.91502336023E+02 0.  0.
         13    1    3    3    0    0 -0.47577174631E+03 -0.51522953635E+02  0.61378084032E+03  0.77829318980E+03  0.00000000000E+00 0.  1.
        -13    1    3    3    0    0 -0.39304562950E+03 -0.10693979801E+03  0.43781487620E+03  0.59799904104E+03  0.00000000000E+00 0. -1.
         22    1    1    2    0    0  0.86881737581E+03  0.15846275165E+03 -0.85173084611E+03  0.12269472321E+04  0.00000000000E+00 0. -1.
<mgrwt>
<rscale>  0 0.25955558E+04</rscale>
<asrwt>0</asrwt>
<pdfrwt beam="1">  1        1 0.18487497E+00 0.25955558E+04</pdfrwt>
<pdfrwt beam="2">  1       -1 0.21562341E+00 0.25955558E+04</pdfrwt>
<totfact> 0.11056255E+00</totfact>
</mgrwt>
</event>
<event>
 6    1  0.1817112E-005  0.1485691E+04  0.7818608E-02  0.8894024E-01
         -2   -1    0    0    0  501 -0.00000000000E+00  0.00000000000E+00  0.87679788767E+03  0.87679788767E+03  0.00000000000E+00 0.  1.
          2   -1    0    0  501    0  0.00000000000E+00 -0.00000000000E+00 -0.62935761294E+03  0.62935761294E+03  0.00000000000E+00 0. -1.
         23    2    1    2    0    0  0.16679718782E+03  0.10669703869E+03  0.84700493825E+03  0.87474173320E+03  0.92467153347E+02 0.  0.
         11    1    3    3    0    0  0.40316171811E+01  0.39202380979E+02  0.21747848218E+03  0.22102029505E+03  0.00000000000E+00 0. -1.
        -11    1    3    3    0    0  0.16276557064E+03  0.67494657707E+02  0.62952645607E+03  0.65372143815E+03  0.00000000000E+00 0.  1.
         22    1    1    2    0    0 -0.16679718782E+03 -0.10669703869E+03 -0.59956466352E+03  0.63141376741E+03  0.00000000000E+00 0. -1.
<mgrwt>
<rscale>  0 0.14856910E+04</rscale>
<asrwt>0</asrwt>
<pdfrwt beam="1">  1        2 0.96824248E-01 0.14856910E+04</pdfrwt>
<pdfrwt beam="2">  1       -2 0.13489198E+00 0.14856910E+04</pdfrwt>
<totfact> 0.17882056E+01</totfact>
</mgrwt>
</event>
<event>
 6    1  0.1817112E-005  0.3278782E+04  0.7818608E-02  0.8168315E-01
          2   -1    0    0  501    0  0.00000000000E+00  0.00000000000E+00  0.14125407105E+04  0.14125407105E+04  0.00000000000E+00 0. -1.
         -2   -1    0    0    0  501 -0.00000000000E+00 -0.00000000000E+00 -0.19026722838E+04  0.19026722838E+04  0.00000000000E+00 0.  1.
         23    2    1    2    0    0 -0.77468106555E+03  0.72429512792E+03 -0.15073627869E+04  0.18456914641E+04  0.98489714610E+02 0.  0.
         13    1    3    3    0    0 -0.47618956324E+02  0.78696501753E+02 -0.11118589018E+03  0.14430178989E+03  0.00000000000E+00 0. -1.
        -13    1    3    3    0    0 -0.72706210922E+03  0.64559862616E+03 -0.13961768967E+04  0.17013896742E+04  0.00000000000E+00 0.  1.
         22    1    1    2    0    0  0.77468106555E+03 -0.72429512792E+03  0.10172312136E+04  0.14695215302E+04  0.00000000000E+00 0. -1.
<mgrwt>
<rscale>  0 0.32787815E+04</rscale>
<asrwt>0</asrwt>
<pdfrwt beam="1">  1        2 0.21731396E+00 0.32787815E+04</pdfrwt>
<pdfrwt beam="2">  1       -2 0.29271881E+00 0.32787815E+04</pdfrwt>
<totfact> 0.41933340E-01</totfact>
</mgrwt>
</event>
<event>
 6    1  0.1817112E-005  0.2522339E+04  0.7818608E-02  0.8395070E-01
          2   -1    0    0  501    0  0.00000000000E+00  0.00000000000E+00  0.17083666181E+04  0.17083666181E+04  0.00000000000E+00 0. -1.
         -2   -1    0    0    0  501 -0.00000000000E+00 -0.00000000000E+00 -0.93103473164E+03  0.93103473164E+03  0.00000000000E+00 0.  1.
         23    2    1    2    0    0 -0.49995187697E+03  0.73913515998E+03  0.13191356452E+04  0.15954550020E+04  0.95316047019E+02 0.  0.
         13    1    3    3    0    0 -0.18945804082E+03  0.21141601190E+03  0.45764576902E+03  0.53854501133E+03  0.00000000000E+00 0. -1.
        -13    1    3    3    0    0 -0.31049383614E+03  0.52771914807E+03  0.86148987622E+03  0.10569099907E+04  0.00000000000E+00 0.  1.
         22    1    1    2    0    0  0.49995187697E+03 -0.73913515998E+03 -0.54180375878E+03  0.10439463478E+04  0.00000000000E+00 0.  1.
<mgrwt>
<rscale>  0 0.25223391E+04</rscale>
<asrwt>0</asrwt>
<pdfrwt beam="1">  1        2 0.26282563E+00 0.25223391E+04</pdfrwt>
<pdfrwt beam="2">  1       -2 0.14323611E+00 0.25223391E+04</pdfrwt>
<totfact> 0.29230566E+00</totfact>
</mgrwt>
</event>
<event>
 6    1  0.1817112E-005  0.1368668E+04  0.7818608E-02  0.8976816E-01
         -2   -1    0    0    0  501 -0.00000000000E+00  0.00000000000E+00  0.56888713762E+03  0.56888713762E+03  0.00000000000E+00 0.  1.
          2   -1    0    0  501    0  0.00000000000E+00 -0.00000000000E+00 -0.82320860036E+03  0.82320860036E+03  0.00000000000E+00 0. -1.
         23    2    1    2    0    0  0.55022085154E+03 -0.16914307410E+03 -0.49820956981E+03  0.76692874129E+03  0.92814620499E+02 0.  0.
         13    1    3    3    0    0  0.42551112798E+03 -0.12423166764E+03 -0.43118642558E+03  0.61839708997E+03  0.00000000000E+00 0.  1.
        -13    1    3    3    0    0  0.12470972356E+03 -0.44911406461E+02 -0.67023144228E+02  0.14853165131E+03  0.00000000000E+00 0. -1.
         22    1    1    2    0    0 -0.55022085154E+03  0.16914307410E+03  0.24388810707E+03  0.62516699669E+03  0.00000000000E+00 0.  1.
<mgrwt>
<rscale>  0 0.13686677E+04</rscale>
<asrwt>0</asrwt>
<pdfrwt beam="1">  1        2 0.12664748E+00 0.13686677E+04</pdfrwt>
<pdfrwt beam="2">  1       -2 0.87521098E-01 0.13686677E+04</pdfrwt>
<totfact> 0.36456849E+01</totfact>
</mgrwt>
</event>
<event>
 6    1  0.1817112E-005  0.2770396E+04  0.7818608E-02  0.8312519E-01
          2   -1    0    0  501    0  0.00000000000E+00  0.00000000000E+00  0.12368494992E+04  0.12368494992E+04  0.00000000000E+00 0. -1.
         -2   -1    0    0    0  501 -0.00000000000E+00 -0.00000000000E+00 -0.15513394499E+04  0.15513394499E+04  0.00000000000E+00 0.  1.
         23    2    1    2    0    0  0.10373664974E+04  0.88346844304E+03  0.85186973714E+02  0.13681933915E+04  0.89725115618E+02 0.  0.
         11    1    3    3    0    0  0.72732928067E+03  0.63334147532E+03  0.20711611021E+02  0.96465448618E+03  0.00000000000E+00 0.  1.
        -11    1    3    3    0    0  0.31003721671E+03  0.25012696772E+03  0.64475362693E+02  0.40353890534E+03  0.00000000000E+00 0. -1.
         22    1    1    2    0    0 -0.10373664974E+04 -0.88346844304E+03 -0.39967692435E+03  0.14199955576E+04  0.00000000000E+00 0.  1.
<mgrwt>
<rscale>  0 0.27703959E+04</rscale>
<asrwt>0</asrwt>
<pdfrwt beam="1">  1        2 0.19028454E+00 0.27703959E+04</pdfrwt>
<pdfrwt beam="2">  1       -2 0.23866761E+00 0.27703959E+04</pdfrwt>
<totfact> 0.11858569E+00</totfact>
</mgrwt>
</event>
<event>
 6    1  0.1817112E-005  0.2150207E+04  0.7818608E-02  0.8539444E-01
         -1   -1    0    0    0  501 -0.00000000000E+00  0.00000000000E+00  0.87962273119E+03  0.87962273119E+03  0.00000000000E+00 0.  1.
          1   -1    0    0  501    0  0.00000000000E+00 -0.00000000000E+00 -0.13140263903E+04  0.13140263903E+04  0.00000000000E+00 0. -1.
         23    2    1    2    0    0 -0.24085434718E+03 -0.10340573386E+04 -0.52902841632E+02  0.10654522105E+04  0.71444427060E+02 0.  0.
         11    1    3    3    0    0 -0.65285103986E+02 -0.16799092722E+03 -0.17177204334E+02  0.18104737717E+03  0.00000000000E+00 0. -1.
        -11    1    3    3    0    0 -0.17556924320E+03 -0.86606641142E+03 -0.35725637298E+02  0.88440483338E+03  0.00000000000E+00 0.  1.
         22    1    1    2    0    0  0.24085434718E+03  0.10340573386E+04 -0.38150081752E+03  0.11281969110E+04  0.00000000000E+00 0.  1.
<mgrwt>
<rscale>  0 0.21502070E+04</rscale>
<asrwt>0</asrwt>
<pdfrwt beam="1">  1        1 0.20215791E+00 0.21502070E+04</pdfrwt>
<pdfrwt beam="2">  1       -1 0.13532657E+00 0.21502070E+04</pdfrwt>
<totfact> 0.37055731E+00</totfact>
</mgrwt>
</event>
<event>
 6    1  0.1817112E-005  0.7994468E+03  0.7818608E-02  0.9560818E-01
         -2   -1    0    0    0  501 -0.00000000000E+00  0.00000000000E+00  0.10521023877E+03  0.10521023877E+03  0.00000000000E+00 0. -1.
          2   -1    0    0  501    0  0.00000000000E+00 -0.00000000000E+00 -0.15186621287E+04  0.15186621287E+04  0.00000000000E+00 0.  1.
         23    2    1    2    0    0  0.29641514980E+03  0.22038790699E+03 -0.99616610980E+03  0.10665930902E+04  0.94027289645E+02 0.  0.
         11    1    3    3    0    0  0.12788698925E+03  0.66484019736E+02 -0.50175026036E+03  0.52204265216E+03  0.00000000000E+00 0. -1.
        -11    1    3    3    0    0  0.16852816054E+03  0.15390388725E+03 -0.49441584944E+03  0.54455043806E+03  0.00000000000E+00 0.  1.
         22    1    1    2    0    0 -0.29641514980E+03 -0.22038790699E+03 -0.41728578014E+03  0.55727927728E+03  0.00000000000E+00 0.  1.
<mgrwt>
<rscale>  0 0.79944682E+03</rscale>
<asrwt>0</asrwt>
<pdfrwt beam="1">  1        2 0.23364033E+00 0.79944682E+03</pdfrwt>
<pdfrwt beam="2">  1       -2 0.16186191E-01 0.79944682E+03</pdfrwt>
<totfact> 0.38520559E+02</totfact>
</mgrwt>
</event>
<event>
 6    1  0.1817112E-005  0.4016881E+04  0.7818608E-02  0.8001150E-01
          2   -1    0    0  501    0  0.00000000000E+00  0.00000000000E+00  0.18692162065E+04  0.18692162065E+04  0.00000000000E+00 0. -1.
         -2   -1    0    0    0  501 -0.00000000000E+00 -0.00000000000E+00 -0.21580343323E+04  0.21580343323E+04  0.00000000000E+00 0.  1.
         23    2    1    2    0    0  0.12606230521E+04  0.15583131690E+03  0.14139345590E+04  0.19029105038E+04  0.91670984844E+02 0.  0.
         13    1    3    3    0    0  0.11101703578E+04  0.10712864981E+03  0.12441600227E+04  0.16708946505E+04  0.00000000000E+00 0.  1.
        -13    1    3    3    0    0  0.15045269433E+03  0.48702667096E+02  0.16977453629E+03  0.23201585330E+03  0.00000000000E+00 0. -1.
         22    1    1    2    0    0 -0.12606230521E+04 -0.15583131690E+03 -0.17027526848E+04  0.21243400350E+04  0.00000000000E+00 0.  1.
<mgrwt>
<rscale>  0 0.40168808E+04</rscale>
<asrwt>0</asrwt>
<pdfrwt beam="1">  1        2 0.28757173E+00 0.40168808E+04</pdfrwt>
<pdfrwt beam="2">  1       -2 0.33200528E+00 0.40168808E+04</pdfrwt>
<totfact> 0.12549156E-01</totfact>
</mgrwt>
</event>
<event>
 6    1  0.1817112E-005  0.1425008E+04  0.7818608E-02  0.8935913E-01
         -2   -1    0    0    0  501 -0.00000000000E+00  0.00000000000E+00  0.47286238587E+03  0.47286238587E+03  0.00000000000E+00 0.  1.
          2   -1    0    0  501    0  0.00000000000E+00 -0.00000000000E+00 -0.10735938643E+04  0.10735938643E+04  0.00000000000E+00 0. -1.
         23    2    1    2    0    0  0.31940294280E+03  0.84230227060E+02 -0.98334723843E+03  0.10409784654E+04  0.86898809343E+02 0.  0.
         11    1    3    3    0    0  0.17273036308E+03  0.88710739093E+01 -0.42672304105E+03  0.46044220923E+03  0.00000000000E+00 0. -1.
        -11    1    3    3    0    0  0.14667257972E+03  0.75359153151E+02 -0.55662419738E+03  0.58053625616E+03  0.00000000000E+00 0.  1.
         22    1    1    2    0    0 -0.31940294280E+03 -0.84230227060E+02  0.38261576005E+03  0.50547778473E+03  0.00000000000E+00 0.  1.
<mgrwt>
<rscale>  0 0.14250083E+04</rscale>
<asrwt>0</asrwt>
<pdfrwt beam="1">  1        2 0.16516829E+00 0.14250083E+04</pdfrwt>
<pdfrwt beam="2">  1       -2 0.72748060E-01 0.14250083E+04</pdfrwt>
<totfact> 0.37555000E+01</totfact>
</mgrwt>
</event>
<event>
 6    1  0.1817112E-005  0.3094573E+04  0.7818608E-02  0.8217229E-01
         -2   -1    0    0    0  501 -0.00000000000E+00  0.00000000000E+00  0.10610108504E+04  0.10610108504E+04  0.00000000000E+00 0. -1.
          2   -1    0    0  501    0  0.00000000000E+00 -0.00000000000E+00 -0.22564283337E+04  0.22564283337E+04  0.00000000000E+00 0.  1.
         23    2    1    2    0    0  0.11872684745E+04 -0.97163411191E+03 -0.39947762070E+03  0.15890875003E+04  0.10925857526E+03 0.  0.
         13    1    3    3    0    0  0.63648815099E+02 -0.58838512429E+02 -0.49145421272E+02  0.99641430340E+02  0.00000000000E+00 0. -1.
        -13    1    3    3    0    0  0.11236196594E+04 -0.91279559948E+03 -0.35033219943E+03  0.14894460700E+04  0.00000000000E+00 0.  1.
         22    1    1    2    0    0 -0.11872684745E+04  0.97163411191E+03 -0.79593986262E+03  0.17283516838E+04  0.00000000000E+00 0.  1.
<mgrwt>
<rscale>  0 0.30945726E+04</rscale>
<asrwt>0</asrwt>
<pdfrwt beam="1">  1        2 0.34714282E+00 0.30945726E+04</pdfrwt>
<pdfrwt beam="2">  1       -2 0.16323244E+00 0.30945726E+04</pdfrwt>
<totfact> 0.97202394E-01</totfact>
</mgrwt>
</event>
<event>
 6    1  0.1817112E-005  0.2437051E+04  0.7818608E-02  0.8425761E-01
         -2   -1    0    0    0  501 -0.00000000000E+00  0.00000000000E+00  0.11586556475E+04  0.11586556475E+04  0.00000000000E+00 0.  1.
          2   -1    0    0  501    0  0.00000000000E+00 -0.00000000000E+00 -0.12814890839E+04  0.12814890839E+04  0.00000000000E+00 0. -1.
         23    2    1    2    0    0 -0.74147375908E+03 -0.57946368856E+03  0.71073838981E+03  0.11830037324E+04  0.93740441992E+02 0.  0.
         11    1    3    3    0    0 -0.26241113268E+03 -0.15811737771E+03  0.20143794499E+03  0.36665781509E+03  0.00000000000E+00 0. -1.
        -11    1    3    3    0    0 -0.47906262640E+03 -0.42134631085E+03  0.50930044483E+03  0.81634591736E+03  0.00000000000E+00 0.  1.
         22    1    1    2    0    0  0.74147375908E+03  0.57946368856E+03 -0.83357182625E+03  0.12571409990E+04  0.00000000000E+00 0. -1.
<mgrwt>
<rscale>  0 0.24370511E+04</rscale>
<asrwt>0</asrwt>
<pdfrwt beam="1">  1        2 0.19715217E+00 0.24370511E+04</pdfrwt>
<pdfrwt beam="2">  1       -2 0.17825471E+00 0.24370511E+04</pdfrwt>
<totfact> 0.28332517E+00</totfact>
</mgrwt>
</event>
<event>
 6    1  0.1835594E-005  0.2890599E+04  0.7818608E-02  0.8275680E-01
          2   -1    0    0  501    0  0.00000000000E+00  0.00000000000E+00  0.14015518251E+04  0.14015518251E+04  0.00000000000E+00 0.  1.
         -2   -1    0    0    0  501 -0.00000000000E+00 -0.00000000000E+00 -0.14904122522E+04  0.14904122522E+04  0.00000000000E+00 0. -1.
         23    2    1    2    0    0  0.20902691942E+03  0.28692368126E+03 -0.14446785488E+04  0.14904433921E+04  0.91147921893E+02 0.  0.
         13    1    3    3    0    0  0.19146108270E+03  0.19736131632E+03 -0.11086504513E+04  0.11422410685E+04  0.00000000000E+00 0.  1.
        -13    1    3    3    0    0  0.17565836711E+02  0.89562364938E+02 -0.33602809756E+03  0.34820232363E+03  0.00000000000E+00 0. -1.
         22    1    1    2    0    0 -0.20902691942E+03 -0.28692368126E+03  0.13558181218E+04  0.14015206853E+04  0.00000000000E+00 0.  1.
<mgrwt>
<rscale>  0 0.28905986E+04</rscale>
<asrwt>0</asrwt>
<pdfrwt beam="1">  1        2 0.21562336E+00 0.28905986E+04</pdfrwt>
<pdfrwt beam="2">  1       -2 0.22929419E+00 0.28905986E+04</pdfrwt>
<totfact> 0.10773993E+00</totfact>
</mgrwt>
</event>
<event>
 6    1  0.1817112E-005  0.1020216E+04  0.7818608E-02  0.9286646E-01
          2   -1    0    0  501    0  0.00000000000E+00  0.00000000000E+00  0.55584242866E+03  0.55584242866E+03  0.00000000000E+00 0. -1.
         -2   -1    0    0    0  501 -0.00000000000E+00 -0.00000000000E+00 -0.46813674375E+03  0.46813674375E+03  0.00000000000E+00 0.  1.
         23    2    1    2    0    0 -0.44571096668E+03 -0.75563370758E+02  0.27226037377E+03  0.53568774099E+03  0.92019323486E+02 0.  0.
         11    1    3    3    0    0 -0.32104214605E+03 -0.36759509397E+02  0.23610522596E+03  0.40020619535E+03  0.00000000000E+00 0. -1.
        -11    1    3    3    0    0 -0.12466882063E+03 -0.38803861360E+02  0.36155147812E+02  0.13548154564E+03  0.00000000000E+00 0.  1.
         22    1    1    2    0    0  0.44571096668E+03  0.75563370758E+02 -0.18455468885E+03  0.48829143142E+03  0.00000000000E+00 0.  1.
<mgrwt>
<rscale>  0 0.10202162E+04</rscale>
<asrwt>0</asrwt>
<pdfrwt beam="1">  1        2 0.85514219E-01 0.10202162E+04</pdfrwt>
<pdfrwt beam="2">  1       -2 0.72021038E-01 0.10202162E+04</pdfrwt>
<totfact> 0.94761637E+01</totfact>
</mgrwt>
</event>
<event>
 6    1  0.1817112E-005  0.2125230E+04  0.7818608E-02  0.8550210E-01
          2   -1    0    0  501    0  0.00000000000E+00  0.00000000000E+00  0.20294757089E+04  0.20294757089E+04  0.00000000000E+00 0. -1.
         -2   -1    0    0    0  501 -0.00000000000E+00 -0.00000000000E+00 -0.55637568589E+03  0.55637568589E+03  0.00000000000E+00 0.  1.
         23    2    1    2    0    0  0.37188124611E+03  0.96284112612E+03  0.10351117355E+04  0.14646054649E+04  0.90852448751E+02 0.  0.
         13    1    3    3    0    0  0.26040339581E+03  0.63607903043E+03  0.74523702752E+03  0.10137971635E+04  0.00000000000E+00 0.  1.
        -13    1    3    3    0    0  0.11147785030E+03  0.32676209568E+03  0.28987470801E+03  0.45080830142E+03  0.00000000000E+00 0. -1.
         22    1    1    2    0    0 -0.37188124611E+03 -0.96284112612E+03  0.43798828752E+03  0.11212459299E+04  0.00000000000E+00 0.  1.
<mgrwt>
<rscale>  0 0.21252303E+04</rscale>
<asrwt>0</asrwt>
<pdfrwt beam="1">  1        2 0.31222703E+00 0.21252303E+04</pdfrwt>
<pdfrwt beam="2">  1       -2 0.85596261E-01 0.21252303E+04</pdfrwt>
<totfact> 0.70153730E+00</totfact>
</mgrwt>
</event>
<event>
 6    1  0.1817112E-005  0.3339600E+04  0.7818608E-02  0.8152892E-01
          2   -1    0    0  501    0  0.00000000000E+00  0.00000000000E+00  0.15859079294E+04  0.15859079294E+04  0.00000000000E+00 0. -1.
         -2   -1    0    0    0  501 -0.00000000000E+00 -0.00000000000E+00 -0.17581299340E+04  0.17581299340E+04  0.00000000000E+00 0.  1.
         23    2    1    2    0    0 -0.99445670435E+03 -0.89695986092E+03  0.91046085106E+03  0.16219219281E+04  0.90612639617E+02 0.  0.
         13    1    3    3    0    0 -0.94034577601E+03 -0.84749850792E+03  0.88389028009E+03  0.15439449234E+04  0.00000000000E+00 0.  1.
        -13    1    3    3    0    0 -0.54110928341E+02 -0.49461352999E+02  0.26570570971E+02  0.77977004611E+02  0.00000000000E+00 0. -1.
         22    1    1    2    0    0  0.99445670435E+03  0.89695986092E+03 -0.10826828556E+04  0.17221159353E+04  0.00000000000E+00 0.  1.
<mgrwt>
<rscale>  0 0.33396001E+04</rscale>
<asrwt>0</asrwt>
<pdfrwt beam="1">  1        2 0.24398584E+00 0.33396001E+04</pdfrwt>
<pdfrwt beam="2">  1       -2 0.27048153E+00 0.33396001E+04</pdfrwt>
<totfact> 0.45513569E-01</totfact>
</mgrwt>
</event>
<event>
 6    1  0.1817112E-005  0.1643265E+04  0.7818608E-02  0.8794401E-01
          2   -1    0    0  501    0  0.00000000000E+00  0.00000000000E+00  0.19226678690E+04  0.19226678690E+04  0.00000000000E+00 0. -1.
         -2   -1    0    0    0  501 -0.00000000000E+00 -0.00000000000E+00 -0.35111618151E+03  0.35111618151E+03  0.00000000000E+00 0.  1.
         23    2    1    2    0    0  0.45926654091E+03  0.31810247385E+03 -0.44322859548E+02  0.56405732051E+03  0.63884313232E+02 0.  0.
         13    1    3    3    0    0  0.56926878871E+02  0.55800962314E+02 -0.24352705613E+02  0.83351491911E+02  0.00000000000E+00 0.  1.
        -13    1    3    3    0    0  0.40233966204E+03  0.26230151153E+03 -0.19970153935E+02  0.48070582860E+03  0.00000000000E+00 0. -1.
         22    1    1    2    0    0 -0.45926654091E+03 -0.31810247385E+03  0.16158745470E+04  0.17097267300E+04  0.00000000000E+00 0. -1.
<mgrwt>
<rscale>  0 0.16432648E+04</rscale>
<asrwt>0</asrwt>
<pdfrwt beam="1">  1        2 0.29579505E+00 0.16432648E+04</pdfrwt>
<pdfrwt beam="2">  1       -2 0.54017875E-01 0.16432648E+04</pdfrwt>
<totfact> 0.22756009E+01</totfact>
</mgrwt>
</event>
<event>
 6    1  0.1817112E-005  0.3544356E+04  0.7818608E-02  0.8103358E-01
          2   -1    0    0  501    0  0.00000000000E+00  0.00000000000E+00  0.16100349825E+04  0.16100349825E+04  0.00000000000E+00 0. -1.
         -2   -1    0    0    0  501 -0.00000000000E+00 -0.00000000000E+00 -0.19506505230E+04  0.19506505230E+04  0.00000000000E+00 0.  1.
         23    2    1    2    0    0 -0.11110490577E+04  0.12460464364E+04 -0.76419559219E+03  0.18383377501E+04  0.91809857949E+02 0.  0.
         11    1    3    3    0    0 -0.53807424650E+03  0.67178668912E+03 -0.40011429509E+03  0.94916421106E+03  0.00000000000E+00 0. -1.
        -11    1    3    3    0    0 -0.57297481124E+03  0.57425974731E+03 -0.36408129710E+03  0.88917353908E+03  0.00000000000E+00 0.  1.
         22    1    1    2    0    0  0.11110490577E+04 -0.12460464364E+04  0.42358005167E+03  0.17223477554E+04  0.00000000000E+00 0. -1.
<mgrwt>
<rscale>  0 0.35443564E+04</rscale>
<asrwt>0</asrwt>
<pdfrwt beam="1">  1        2 0.24769769E+00 0.35443564E+04</pdfrwt>
<pdfrwt beam="2">  1       -2 0.30010008E+00 0.35443564E+04</pdfrwt>
<totfact> 0.28604409E-01</totfact>
</mgrwt>
</event>
<event>
 6    1  0.1817112E-005  0.2898655E+04  0.7818608E-02  0.8273278E-01
          1   -1    0    0  501    0  0.00000000000E+00  0.00000000000E+00  0.75740713899E+03  0.75740713899E+03  0.00000000000E+00 0. -1.
         -1   -1    0    0    0  501 -0.00000000000E+00 -0.00000000000E+00 -0.27733426216E+04  0.27733426216E+04  0.00000000000E+00 0.  1.
         23    2    1    2    0    0  0.34615654246E+03 -0.25656901692E+03 -0.26927316847E+04  0.27284374078E+04  0.88964880955E+02 0.  0.
         11    1    3    3    0    0  0.14274500625E+03 -0.95422175284E+02 -0.13483148576E+04  0.13592036211E+04  0.00000000000E+00 0. -1.
        -11    1    3    3    0    0  0.20341153621E+03 -0.16114684164E+03 -0.13444168271E+04  0.13692337867E+04  0.00000000000E+00 0.  1.
         22    1    1    2    0    0 -0.34615654246E+03  0.25656901692E+03  0.67679620208E+03  0.80231235282E+03  0.00000000000E+00 0. -1.
<mgrwt>
<rscale>  0 0.28986545E+04</rscale>
<asrwt>0</asrwt>
<pdfrwt beam="1">  1        1 0.11652417E+00 0.28986545E+04</pdfrwt>
<pdfrwt beam="2">  1       -1 0.42666810E+00 0.28986545E+04</pdfrwt>
<totfact> 0.97015261E-02</totfact>
</mgrwt>
</event>
<event>
 6    1  0.1817112E-005  0.2309553E+04  0.7818608E-02  0.8474164E-01
         -2   -1    0    0    0  501 -0.00000000000E+00  0.00000000000E+00  0.16387786403E+04  0.16387786403E+04  0.00000000000E+00 0.  1.
          2   -1    0    0  501    0  0.00000000000E+00 -0.00000000000E+00 -0.81372117542E+03  0.81372117542E+03  0.00000000000E+00 0. -1.
         23    2    1    2    0    0  0.60415273279E+03  0.95081437304E+01 -0.62868833005E+03  0.87818480098E+03  0.10425257305E+03 0.  0.
         11    1    3    3    0    0  0.44224388546E+03 -0.24943453690E+02 -0.40721739633E+03  0.60168749196E+03  0.00000000000E+00 0. -1.
        -11    1    3    3    0    0  0.16190884733E+03  0.34451597420E+02 -0.22147093372E+03  0.27649730901E+03  0.00000000000E+00 0.  1.
         22    1    1    2    0    0 -0.60415273279E+03 -0.95081437304E+01  0.14537457949E+04  0.15743150147E+04  0.00000000000E+00 0. -1.
<mgrwt>
<rscale>  0 0.23095531E+04</rscale>
<asrwt>0</asrwt>
<pdfrwt beam="1">  1        2 0.12518787E+00 0.23095531E+04</pdfrwt>
<pdfrwt beam="2">  1       -2 0.25211979E+00 0.23095531E+04</pdfrwt>
<totfact> 0.19018877E+00</totfact>
</mgrwt>
</event>
<event>
 6    1  0.1817112E-005  0.3357753E+04  0.7818608E-02  0.8148354E-01
         -2   -1    0    0    0  501 -0.00000000000E+00  0.00000000000E+00  0.16215130997E+04  0.16215130997E+04  0.00000000000E+00 0.  1.
          2   -1    0    0  501    0  0.00000000000E+00 -0.00000000000E+00 -0.17382690963E+04  0.17382690963E+04  0.00000000000E+00 0. -1.
         23    2    1    2    0    0  0.54339705740E+03  0.13189015912E+04  0.82512245456E+03  0.16504206819E+04  0.90992268096E+02 0.  0.
         13    1    3    3    0    0  0.35682356378E+03  0.82586255211E+03  0.47234910693E+03  0.10161130299E+04  0.00000000000E+00 0.  1.
        -13    1    3    3    0    0  0.18657349362E+03  0.49303903908E+03  0.35277334762E+03  0.63430765199E+03  0.00000000000E+00 0. -1.
         22    1    1    2    0    0 -0.54339705740E+03 -0.13189015912E+04 -0.94187845111E+03  0.17093615141E+04  0.00000000000E+00 0. -1.
<mgrwt>
<rscale>  0 0.33577529E+04</rscale>
<asrwt>0</asrwt>
<pdfrwt beam="1">  1        2 0.26742601E+00 0.33577529E+04</pdfrwt>
<pdfrwt beam="2">  1       -2 0.24946356E+00 0.33577529E+04</pdfrwt>
<totfact> 0.50265689E-01</totfact>
</mgrwt>
</event>
<event>
 6    1  0.1817112E-005  0.2287656E+04  0.7818608E-02  0.8482804E-01
         -2   -1    0    0    0  501 -0.00000000000E+00  0.00000000000E+00  0.48214293825E+03  0.48214293825E+03  0.00000000000E+00 0.  1.
          2   -1    0    0  501    0  0.00000000000E+00 -0.00000000000E+00 -0.27135986396E+04  0.27135986396E+04  0.00000000000E+00 0. -1.
         23    2    1    2    0    0  0.11061005909E+04 -0.18519421718E+03 -0.81652677315E+03  0.13902556912E+04  0.91320864760E+02 0.  0.
         11    1    3    3    0    0  0.26617721503E+03 -0.54058749721E+02 -0.24600415023E+03  0.36645695539E+03  0.00000000000E+00 0. -1.
        -11    1    3    3    0    0  0.83992337583E+03 -0.13113546746E+03 -0.57052262292E+03  0.10237987358E+04  0.00000000000E+00 0.  1.
         22    1    1    2    0    0 -0.11061005909E+04  0.18519421718E+03 -0.14149289282E+04  0.18054858867E+04  0.00000000000E+00 0. -1.
<mgrwt>
<rscale>  0 0.22876559E+04</rscale>
<asrwt>0</asrwt>
<pdfrwt beam="1">  1        2 0.41747671E+00 0.22876559E+04</pdfrwt>
<pdfrwt beam="2">  1       -2 0.74175838E-01 0.22876559E+04</pdfrwt>
<totfact> 0.38715874E+00</totfact>
</mgrwt>
</event>
<event>
 6    1  0.1817112E-005  0.2126851E+04  0.7818608E-02  0.8549507E-01
          2   -1    0    0  501    0  0.00000000000E+00  0.00000000000E+00  0.77242315453E+03  0.77242315453E+03  0.00000000000E+00 0. -1.
         -2   -1    0    0    0  501 -0.00000000000E+00 -0.00000000000E+00 -0.14640596093E+04  0.14640596093E+04  0.00000000000E+00 0.  1.
         23    2    1    2    0    0  0.24122690319E+03  0.59410107479E+03  0.54306120691E+03  0.84521542013E+03  0.91253088079E+02 0.  0.
         13    1    3    3    0    0  0.67930622365E+02  0.28664906640E+03  0.25617543056E+03  0.39039481035E+03  0.00000000000E+00 0.  1.
        -13    1    3    3    0    0  0.17329628082E+03  0.30745200838E+03  0.28688577635E+03  0.45482060978E+03  0.00000000000E+00 0. -1.
         22    1    1    2    0    0 -0.24122690319E+03 -0.59410107479E+03 -0.12346976616E+04  0.13912673437E+04  0.00000000000E+00 0.  1.
<mgrwt>
<rscale>  0 0.21268508E+04</rscale>
<asrwt>0</asrwt>
<pdfrwt beam="1">  1        2 0.11883433E+00 0.21268508E+04</pdfrwt>
<pdfrwt beam="2">  1       -2 0.22523994E+00 0.21268508E+04</pdfrwt>
<totfact> 0.30375544E+00</totfact>
</mgrwt>
</event>
<event>
 6    1  0.1817112E-005  0.6463283E+04  0.7818608E-02  0.7635472E-01
         -2   -1    0    0    0  501 -0.00000000000E+00  0.00000000000E+00  0.31722473793E+04  0.31722473793E+04  0.00000000000E+00 0.  1.
          2   -1    0    0  501    0  0.00000000000E+00 -0.00000000000E+00 -0.32921476942E+04  0.32921476942E+04  0.00000000000E+00 0. -1.
         23    2    1    2    0    0  0.72933020848E+03  0.15274116880E+04 -0.28125802151E+04  0.32839180554E+04  0.92743251025E+02 0.  0.
         11    1    3    3    0    0  0.15241963179E+03  0.41324916079E+03 -0.73718158678E+03  0.85874519209E+03  0.00000000000E+00 0.  1.
        -11    1    3    3    0    0  0.57691057670E+03  0.11141625272E+04 -0.20753986284E+04  0.24251728633E+04  0.00000000000E+00 0. -1.
         22    1    1    2    0    0 -0.72933020848E+03 -0.15274116880E+04  0.26926799002E+04  0.31804770181E+04  0.00000000000E+00 0.  1.
<mgrwt>
<rscale>  0 0.64632830E+04</rscale>
<asrwt>0</asrwt>
<pdfrwt beam="1">  1        2 0.50648426E+00 0.64632830E+04</pdfrwt>
<pdfrwt beam="2">  1       -2 0.48803806E+00 0.64632830E+04</pdfrwt>
<totfact> 0.14505336E-03</totfact>
</mgrwt>
</event>
<event>
 6    1  0.1817112E-005  0.1549462E+04  0.7818608E-02  0.8852211E-01
          2   -1    0    0  501    0  0.00000000000E+00  0.00000000000E+00  0.99443316846E+03  0.99443316846E+03  0.00000000000E+00 0. -1.
         -2   -1    0    0    0  501 -0.00000000000E+00 -0.00000000000E+00 -0.60356844954E+03  0.60356844954E+03  0.00000000000E+00 0.  1.
         23    2    1    2    0    0 -0.29405908052E+03 -0.71205240013E+03  0.14157323435E+03  0.78828833068E+03  0.88691308715E+02 0.  0.
         13    1    3    3    0    0 -0.21488890784E+03 -0.43374931828E+03  0.11633377339E+03  0.49784461497E+03  0.00000000000E+00 0.  1.
        -13    1    3    3    0    0 -0.79170172676E+02 -0.27830308185E+03  0.25239460958E+02  0.29044371572E+03  0.00000000000E+00 0. -1.
         22    1    1    2    0    0  0.29405908052E+03  0.71205240013E+03  0.24929148457E+03  0.80971328731E+03  0.00000000000E+00 0. -1.
<mgrwt>
<rscale>  0 0.15494625E+04</rscale>
<asrwt>0</asrwt>
<pdfrwt beam="1">  1        2 0.15298972E+00 0.15494625E+04</pdfrwt>
<pdfrwt beam="2">  1       -2 0.92856684E-01 0.15494625E+04</pdfrwt>
<totfact> 0.24036933E+01</totfact>
</mgrwt>
</event>
<event>
 6    1  0.1817112E-005  0.2165947E+04  0.7818608E-02  0.8532737E-01
          2   -1    0    0  501    0  0.00000000000E+00  0.00000000000E+00  0.14643529872E+04  0.14643529872E+04  0.00000000000E+00 0. -1.
         -2   -1    0    0    0  501 -0.00000000000E+00 -0.00000000000E+00 -0.80092163849E+03  0.80092163849E+03  0.00000000000E+00 0.  1.
         23    2    1    2    0    0  0.98161971787E+02 -0.76342181132E+03  0.11261683978E+04  0.13671798582E+04  0.92069917683E+02 0.  0.
         13    1    3    3    0    0  0.75370436194E+02 -0.29444503154E+03  0.39854151260E+03  0.50121244650E+03  0.00000000000E+00 0. -1.
        -13    1    3    3    0    0  0.22791535593E+02 -0.46897677978E+03  0.72762688519E+03  0.86596741169E+03  0.00000000000E+00 0.  1.
         22    1    1    2    0    0 -0.98161971787E+02  0.76342181132E+03 -0.46273704913E+03  0.89809476746E+03  0.00000000000E+00 0.  1.
<mgrwt>
<rscale>  0 0.21659474E+04</rscale>
<asrwt>0</asrwt>
<pdfrwt beam="1">  1        2 0.22528507E+00 0.21659474E+04</pdfrwt>
<pdfrwt beam="2">  1       -2 0.12321871E+00 0.21659474E+04</pdfrwt>
<totfact> 0.60596138E+00</totfact>
</mgrwt>
</event>
<event>
 6    1  0.1817112E-005  0.3610478E+04  0.7818608E-02  0.8088096E-01
          3   -1    0    0  501    0  0.00000000000E+00  0.00000000000E+00  0.15098633077E+04  0.15098633077E+04  0.00000000000E+00 0. -1.
         -3   -1    0    0    0  501 -0.00000000000E+00 -0.00000000000E+00 -0.21583990748E+04  0.21583990748E+04  0.00000000000E+00 0.  1.
         23    2    1    2    0    0 -0.10262335335E+04 -0.13633850157E+04  0.26879877124E+03  0.17308732575E+04  0.10814567877E+03 0.  0.
         13    1    3    3    0    0 -0.86492709328E+03 -0.12091583027E+04  0.23773444139E+03  0.15055498472E+04  0.00000000000E+00 0. -1.
        -13    1    3    3    0    0 -0.16130644022E+03 -0.15422671297E+03  0.31064329843E+02  0.22532341032E+03  0.00000000000E+00 0.  1.
         22    1    1    2    0    0  0.10262335335E+04  0.13633850157E+04 -0.91733453830E+03  0.19373891249E+04  0.00000000000E+00 0.  1.
<mgrwt>
<rscale>  0 0.36104778E+04</rscale>
<asrwt>0</asrwt>
<pdfrwt beam="1">  1        3 0.23228666E+00 0.36104778E+04</pdfrwt>
<pdfrwt beam="2">  1       -3 0.33206140E+00 0.36104778E+04</pdfrwt>
<totfact> 0.49555505E-03</totfact>
</mgrwt>
</event>
<event>
 6    1  0.1817112E-005  0.1692532E+04  0.7818608E-02  0.8765635E-01
         -2   -1    0    0    0  501 -0.00000000000E+00  0.00000000000E+00  0.29849531559E+03  0.29849531559E+03  0.00000000000E+00 0.  1.
          2   -1    0    0  501    0  0.00000000000E+00 -0.00000000000E+00 -0.23992535359E+04  0.23992535359E+04  0.00000000000E+00 0. -1.
         23    2    1    2    0    0  0.44764442190E+03 -0.48530307413E+03 -0.18911085274E+04  0.20050313074E+04  0.89187884345E+02 0.  0.
         11    1    3    3    0    0  0.56302784480E+02 -0.85184815928E+02 -0.21651287338E+03  0.23938312544E+03  0.00000000000E+00 0.  1.
        -11    1    3    3    0    0  0.39134163742E+03 -0.40011825820E+03 -0.16745956541E+04  0.17656481819E+04  0.00000000000E+00 0. -1.
         22    1    1    2    0    0 -0.44764442190E+03  0.48530307413E+03 -0.20964969287E+03  0.69271754413E+03  0.00000000000E+00 0.  1.
<mgrwt>
<rscale>  0 0.16925318E+04</rscale>
<asrwt>0</asrwt>
<pdfrwt beam="1">  1        2 0.36911592E+00 0.16925318E+04</pdfrwt>
<pdfrwt beam="2">  1       -2 0.45922357E-01 0.16925318E+04</pdfrwt>
<totfact> 0.17056628E+01</totfact>
</mgrwt>
</event>
<event>
 6    1  0.1817112E-005  0.3606407E+04  0.7818608E-02  0.8089026E-01
          2   -1    0    0  501    0  0.00000000000E+00  0.00000000000E+00  0.33879274380E+04  0.33879274380E+04  0.00000000000E+00 0. -1.
         -2   -1    0    0    0  501 -0.00000000000E+00 -0.00000000000E+00 -0.95974389912E+03  0.95974389912E+03  0.00000000000E+00 0.  1.
         23    2    1    2    0    0  0.10561247877E+04 -0.43584776382E+03 -0.46512670844E+03  0.12369468190E+04  0.91278352130E+02 0.  0.
         13    1    3    3    0    0  0.56695070543E+03 -0.25796960195E+03 -0.29610384572E+03  0.68968029214E+03  0.00000000000E+00 0. -1.
        -13    1    3    3    0    0  0.48917408230E+03 -0.17787816186E+03 -0.16902286273E+03  0.54726652683E+03  0.00000000000E+00 0.  1.
         22    1    1    2    0    0 -0.10561247877E+04  0.43584776382E+03  0.28933102473E+04  0.31107245181E+04  0.00000000000E+00 0. -1.
<mgrwt>
<rscale>  0 0.36064069E+04</rscale>
<asrwt>0</asrwt>
<pdfrwt beam="1">  1        2 0.52121960E+00 0.36064069E+04</pdfrwt>
<pdfrwt beam="2">  1       -2 0.14765291E+00 0.36064069E+04</pdfrwt>
<totfact> 0.24691242E-01</totfact>
</mgrwt>
</event>
<event>
 6    1  0.1817112E-005  0.1571032E+04  0.7818608E-02  0.8838544E-01
         -1   -1    0    0    0  501 -0.00000000000E+00  0.00000000000E+00  0.50364545963E+03  0.50364545963E+03  0.00000000000E+00 0.  1.
          1   -1    0    0  501    0  0.00000000000E+00 -0.00000000000E+00 -0.12251387608E+04  0.12251387608E+04  0.00000000000E+00 0. -1.
         23    2    1    2    0    0  0.99141030527E+02  0.73092946477E+03 -0.73295299836E+02  0.74682318487E+03  0.91026600906E+02 0.  0.
         13    1    3    3    0    0  0.32061144209E+02  0.46613061991E+03 -0.14795494160E+02  0.46746612544E+03  0.00000000000E+00 0.  1.
        -13    1    3    3    0    0  0.67079886318E+02  0.26479884486E+03 -0.58499805676E+02  0.27935705943E+03  0.00000000000E+00 0. -1.
         22    1    1    2    0    0 -0.99141030527E+02 -0.73092946477E+03 -0.64819800132E+03  0.98196103554E+03  0.00000000000E+00 0.  1.
<mgrwt>
<rscale>  0 0.15710322E+04</rscale>
<asrwt>0</asrwt>
<pdfrwt beam="1">  1        1 0.18848288E+00 0.15710322E+04</pdfrwt>
<pdfrwt beam="2">  1       -1 0.77483918E-01 0.15710322E+04</pdfrwt>
<totfact> 0.16448772E+01</totfact>
</mgrwt>
</event>
<event>
 6    1  0.1817112E-005  0.1582359E+04  0.7818608E-02  0.8831459E-01
          2   -1    0    0  501    0  0.00000000000E+00  0.00000000000E+00  0.24706021009E+04  0.24706021009E+04  0.00000000000E+00 0. -1.
         -2   -1    0    0    0  501 -0.00000000000E+00 -0.00000000000E+00 -0.25336533732E+03  0.25336533732E+03  0.00000000000E+00 0.  1.
         23    2    1    2    0    0 -0.33220461100E+03  0.57168588663E+03  0.18519715441E+04  0.19685845306E+04  0.91333441269E+02 0.  0.
         11    1    3    3    0    0 -0.30385325858E+02  0.70893379471E+02  0.31065075492E+03  0.32008284992E+03  0.00000000000E+00 0.  1.
        -11    1    3    3    0    0 -0.30181928514E+03  0.50079250716E+03  0.15413207892E+04  0.16485016807E+04  0.00000000000E+00 0. -1.
         22    1    1    2    0    0  0.33220461100E+03 -0.57168588663E+03  0.36526521949E+03  0.75538290761E+03  0.00000000000E+00 0.  1.
<mgrwt>
<rscale>  0 0.15823589E+04</rscale>
<asrwt>0</asrwt>
<pdfrwt beam="1">  1        2 0.38009261E+00 0.15823589E+04</pdfrwt>
<pdfrwt beam="2">  1       -2 0.38979284E-01 0.15823589E+04</pdfrwt>
<totfact> 0.21670913E+01</totfact>
</mgrwt>
</event>
<event>
 6    1  0.1832011E-005  0.2472593E+04  0.7818608E-02  0.8412815E-01
          2   -1    0    0  501    0  0.00000000000E+00  0.00000000000E+00  0.14859172580E+04  0.14859172580E+04  0.00000000000E+00 0. -1.
         -2   -1    0    0    0  501 -0.00000000000E+00 -0.00000000000E+00 -0.10286097313E+04  0.10286097313E+04  0.00000000000E+00 0.  1.
         23    2    1    2    0    0 -0.11715052929E+04 -0.11139696960E+03  0.60865834348E+03  0.13280443701E+04  0.91667518254E+02 0.  0.
         13    1    3    3    0    0 -0.55200868292E+03 -0.75627195128E+02  0.24353156647E+03  0.60806305802E+03  0.00000000000E+00 0. -1.
        -13    1    3    3    0    0 -0.61949660994E+03 -0.35769774471E+02  0.36512677701E+03  0.71998131211E+03  0.00000000000E+00 0.  1.
         22    1    1    2    0    0  0.11715052929E+04  0.11139696960E+03 -0.15135081678E+03  0.11864826192E+04  0.00000000000E+00 0. -1.
<mgrwt>
<rscale>  0 0.24725929E+04</rscale>
<asrwt>0</asrwt>
<pdfrwt beam="1">  1        2 0.22860265E+00 0.24725929E+04</pdfrwt>
<pdfrwt beam="2">  1       -2 0.15824765E+00 0.24725929E+04</pdfrwt>
<totfact> 0.30001186E+00</totfact>
</mgrwt>
</event>
<event>
 6    1  0.1817112E-005  0.7610812E+03  0.7818608E-02  0.9618124E-01
          2   -1    0    0  501    0  0.00000000000E+00  0.00000000000E+00  0.14205833220E+04  0.14205833220E+04  0.00000000000E+00 0. -1.
         -2   -1    0    0    0  501 -0.00000000000E+00 -0.00000000000E+00 -0.10193781353E+03  0.10193781353E+03  0.00000000000E+00 0.  1.
         23    2    1    2    0    0  0.10712600379E+02  0.25015613104E+03  0.11272685698E+03  0.29088294039E+03  0.95982764192E+02 0.  0.
         13    1    3    3    0    0 -0.35306778651E+02  0.76851065668E+02  0.60945525121E+02  0.10424496125E+03  0.00000000000E+00 0. -1.
        -13    1    3    3    0    0  0.46019379029E+02  0.17330506538E+03  0.51781331857E+02  0.18663797915E+03  0.00000000000E+00 0.  1.
         22    1    1    2    0    0 -0.10712600379E+02 -0.25015613104E+03  0.12059186515E+04  0.12316381951E+04  0.00000000000E+00 0. -1.
<mgrwt>
<rscale>  0 0.76108123E+03</rscale>
<asrwt>0</asrwt>
<pdfrwt beam="1">  1        2 0.21855127E+00 0.76108123E+03</pdfrwt>
<pdfrwt beam="2">  1       -2 0.15682742E-01 0.76108123E+03</pdfrwt>
<totfact> 0.46230253E+02</totfact>
</mgrwt>
</event>
<event>
 6    1  0.1817112E-005  0.1446713E+04  0.7818608E-02  0.8920683E-01
         -2   -1    0    0    0  501 -0.00000000000E+00  0.00000000000E+00  0.54249283236E+03  0.54249283236E+03  0.00000000000E+00 0.  1.
          2   -1    0    0  501    0  0.00000000000E+00 -0.00000000000E+00 -0.96451865726E+03  0.96451865726E+03  0.00000000000E+00 0. -1.
         23    2    1    2    0    0 -0.41465721719E+03 -0.51831725330E+03 -0.50335537784E+03  0.83827545873E+03  0.93518583581E+02 0.  0.
         13    1    3    3    0    0 -0.15917250756E+03 -0.27300538792E+03 -0.24523960348E+03  0.40001286493E+03  0.00000000000E+00 0.  1.
        -13    1    3    3    0    0 -0.25548470962E+03 -0.24531186538E+03 -0.25811577436E+03  0.43826259380E+03  0.00000000000E+00 0. -1.
         22    1    1    2    0    0  0.41465721719E+03  0.51831725330E+03  0.81329552949E+02  0.66873603089E+03  0.00000000000E+00 0.  1.
<mgrwt>
<rscale>  0 0.14467128E+04</rscale>
<asrwt>0</asrwt>
<pdfrwt beam="1">  1        2 0.14838748E+00 0.14467128E+04</pdfrwt>
<pdfrwt beam="2">  1       -2 0.83460437E-01 0.14467128E+04</pdfrwt>
<totfact> 0.32369655E+01</totfact>
</mgrwt>
</event>
<event>
 6    1  0.1817112E-005  0.3124807E+04  0.7818608E-02  0.8208963E-01
         -1   -1    0    0    0  501 -0.00000000000E+00  0.00000000000E+00  0.20843629466E+04  0.20843629466E+04  0.00000000000E+00 0.  1.
          1   -1    0    0  501    0  0.00000000000E+00 -0.00000000000E+00 -0.11711517192E+04  0.11711517192E+04  0.00000000000E+00 0. -1.
         23    2    1    2    0    0 -0.12075818952E+04 -0.92719333094E+03  0.97548807216E+02  0.15283068931E+04  0.90910302994E+02 0.  0.
         13    1    3    3    0    0 -0.75804489928E+03 -0.54236031949E+03  0.90902693395E+02  0.93650952218E+03  0.00000000000E+00 0. -1.
        -13    1    3    3    0    0 -0.44953699587E+03 -0.38483301145E+03  0.66461138213E+01  0.59179737089E+03  0.00000000000E+00 0.  1.
         22    1    1    2    0    0  0.12075818952E+04  0.92719333094E+03  0.81566242023E+03  0.17272077727E+04  0.00000000000E+00 0.  1.
<mgrwt>
<rscale>  0 0.31248074E+04</rscale>
<asrwt>0</asrwt>
<pdfrwt beam="1">  1        1 0.18017719E+00 0.31248074E+04</pdfrwt>
<pdfrwt beam="2">  1       -1 0.32067122E+00 0.31248074E+04</pdfrwt>
<totfact> 0.22887308E-01</totfact>
</mgrwt>
</event>
<event>
 6    1  0.1817112E-005  0.4408294E+04  0.7818608E-02  0.7926891E-01
         -2   -1    0    0    0  501 -0.00000000000E+00  0.00000000000E+00  0.18828208466E+04  0.18828208466E+04  0.00000000000E+00 0.  1.
          2   -1    0    0  501    0  0.00000000000E+00 -0.00000000000E+00 -0.25803119306E+04  0.25803119306E+04  0.00000000000E+00 0. -1.
         23    2    1    2    0    0 -0.94811549409E+03 -0.45113391460E+03  0.16121127378E+04  0.19260646637E+04  0.91503061721E+02 0.  0.
         13    1    3    3    0    0 -0.75607999079E+03 -0.35662984781E+03  0.13472266631E+04  0.15855161565E+04  0.00000000000E+00 0.  1.
        -13    1    3    3    0    0 -0.19203550330E+03 -0.94504066793E+02  0.26488607476E+03  0.34054850722E+03  0.00000000000E+00 0. -1.
         22    1    1    2    0    0  0.94811549409E+03  0.45113391460E+03 -0.23096038218E+04  0.25370681135E+04  0.00000000000E+00 0. -1.
<mgrwt>
<rscale>  0 0.44082945E+04</rscale>
<asrwt>0</asrwt>
<pdfrwt beam="1">  1        2 0.39697106E+00 0.44082945E+04</pdfrwt>
<pdfrwt beam="2">  1       -2 0.28966475E+00 0.44082945E+04</pdfrwt>
<totfact> 0.87700454E-02</totfact>
</mgrwt>
</event>
<event>
 6    1  0.2733849E-005  0.3739458E+04  0.7818608E-02  0.8059273E-01
          2   -1    0    0  501    0  0.00000000000E+00  0.00000000000E+00  0.19373168101E+04  0.19373168101E+04  0.00000000000E+00 0. -1.
         -2   -1    0    0    0  501 -0.00000000000E+00 -0.00000000000E+00 -0.18044987606E+04  0.18044987606E+04  0.00000000000E+00 0.  1.
         23    2    1    2    0    0  0.13849802161E+04 -0.62133981215E+03 -0.10239511721E+04  0.18333218208E+04  0.91430489915E+02 0.  0.
         11    1    3    3    0    0  0.94658613200E+03 -0.46180922975E+03 -0.73962247159E+03  0.12869865852E+04  0.00000000000E+00 0.  1.
        -11    1    3    3    0    0  0.43839408410E+03 -0.15953058240E+03 -0.28432870053E+03  0.54633523558E+03  0.00000000000E+00 0. -1.
         22    1    1    2    0    0 -0.13849802161E+04  0.62133981215E+03  0.11567692216E+04  0.19084937499E+04  0.00000000000E+00 0. -1.
<mgrwt>
<rscale>  0 0.37394576E+04</rscale>
<asrwt>0</asrwt>
<pdfrwt beam="1">  1        2 0.29804874E+00 0.37394576E+04</pdfrwt>
<pdfrwt beam="2">  1       -2 0.27761519E+00 0.37394576E+04</pdfrwt>
<totfact> 0.25404779E-01</totfact>
</mgrwt>
</event>
<event>
 6    1  0.1817112E-005  0.3338402E+04  0.7818608E-02  0.8153192E-01
          2   -1    0    0  501    0  0.00000000000E+00  0.00000000000E+00  0.31026514277E+04  0.31026514277E+04  0.00000000000E+00 0. -1.
         -2   -1    0    0    0  501 -0.00000000000E+00 -0.00000000000E+00 -0.89801660578E+03  0.89801660578E+03  0.00000000000E+00 0.  1.
         23    2    1    2    0    0  0.28358111347E+03 -0.16189809464E+04  0.14424981974E+04  0.21889368759E+04  0.95530331922E+02 0.  0.
         11    1    3    3    0    0  0.34222821750E+02 -0.35230788824E+03  0.27332854503E+03  0.44721420279E+03  0.00000000000E+00 0. -1.
        -11    1    3    3    0    0  0.24935829172E+03 -0.12666730582E+04  0.11691696523E+04  0.17417226731E+04  0.00000000000E+00 0.  1.
         22    1    1    2    0    0 -0.28358111347E+03  0.16189809464E+04  0.76213662454E+03  0.18117311576E+04  0.00000000000E+00 0. -1.
<mgrwt>
<rscale>  0 0.33384023E+04</rscale>
<asrwt>0</asrwt>
<pdfrwt beam="1">  1        2 0.47733098E+00 0.33384023E+04</pdfrwt>
<pdfrwt beam="2">  1       -2 0.13815640E+00 0.33384023E+04</pdfrwt>
<totfact> 0.46354562E-01</totfact>
</mgrwt>
</event>
<event>
 6    1  0.1817112E-005  0.2806570E+04  0.7818608E-02  0.8301231E-01
         -1   -1    0    0    0  501 -0.00000000000E+00  0.00000000000E+00  0.21558819560E+04  0.21558819560E+04  0.00000000000E+00 0.  1.
          1   -1    0    0  501    0  0.00000000000E+00 -0.00000000000E+00 -0.91341225842E+03  0.91341225842E+03  0.00000000000E+00 0. -1.
         23    2    1    2    0    0 -0.41928997411E+03  0.83769122372E+02 -0.83798457944E+03  0.94535651593E+03  0.93056104484E+02 0.  0.
         11    1    3    3    0    0 -0.28227267120E+03  0.12541279730E+02 -0.51767034136E+03  0.58976073702E+03  0.00000000000E+00 0. -1.
        -11    1    3    3    0    0 -0.13701730291E+03  0.71227842642E+02 -0.32031423808E+03  0.35559577891E+03  0.00000000000E+00 0.  1.
         22    1    1    2    0    0  0.41928997411E+03 -0.83769122372E+02  0.20804542770E+04  0.21239376985E+04  0.00000000000E+00 0.  1.
<mgrwt>
<rscale>  0 0.28065702E+04</rscale>
<asrwt>0</asrwt>
<pdfrwt beam="1">  1        1 0.14052496E+00 0.28065702E+04</pdfrwt>
<pdfrwt beam="2">  1       -1 0.33167415E+00 0.28065702E+04</pdfrwt>
<totfact> 0.31506922E-01</totfact>
</mgrwt>
</event>
<event>
 6    1  0.1817112E-005  0.1456246E+04  0.7818608E-02  0.8914081E-01
          2   -1    0    0  501    0  0.00000000000E+00  0.00000000000E+00  0.79482036129E+03  0.79482036129E+03  0.00000000000E+00 0. -1.
         -2   -1    0    0    0  501 -0.00000000000E+00 -0.00000000000E+00 -0.66702296615E+03  0.66702296615E+03  0.00000000000E+00 0.  1.
         23    2    1    2    0    0 -0.71317255444E+03  0.18252106018E+01  0.19684135020E+03  0.74533408708E+03  0.90321428300E+02 0.  0.
         13    1    3    3    0    0 -0.46016999581E+03 -0.19551313471E+02  0.16589719200E+03  0.48955138363E+03  0.00000000000E+00 0. -1.
        -13    1    3    3    0    0 -0.25300255863E+03  0.21376524072E+02  0.30944158197E+02  0.25578270344E+03  0.00000000000E+00 0.  1.
         22    1    1    2    0    0  0.71317255444E+03 -0.18252106018E+01 -0.69043955066E+02  0.71650924037E+03  0.00000000000E+00 0. -1.
<mgrwt>
<rscale>  0 0.14562465E+04</rscale>
<asrwt>0</asrwt>
<pdfrwt beam="1">  1        2 0.12228006E+00 0.14562465E+04</pdfrwt>
<pdfrwt beam="2">  1       -2 0.10261892E+00 0.14562465E+04</pdfrwt>
<totfact> 0.26161839E+01</totfact>
</mgrwt>
</event>
<event>
 6    1  0.1817112E-005  0.2427620E+04  0.7818608E-02  0.8429235E-01
         -2   -1    0    0    0  501 -0.00000000000E+00  0.00000000000E+00  0.11330539491E+04  0.11330539491E+04  0.00000000000E+00 0.  1.
          2   -1    0    0  501    0  0.00000000000E+00 -0.00000000000E+00 -0.13003213463E+04  0.13003213463E+04  0.00000000000E+00 0. -1.
         23    2    1    2    0    0 -0.22047162235E+03 -0.61386576477E+03  0.94038362147E+03  0.11479455257E+04  0.89546976911E+02 0.  0.
         11    1    3    3    0    0 -0.88144184321E+01 -0.67745191700E+01  0.40411982755E+02  0.41913201172E+02  0.00000000000E+00 0.  1.
        -11    1    3    3    0    0 -0.21165720392E+03 -0.60709124560E+03  0.89997163872E+03  0.11060323246E+04  0.00000000000E+00 0. -1.
         22    1    1    2    0    0  0.22047162235E+03  0.61386576477E+03 -0.11076510187E+04  0.12854297696E+04  0.00000000000E+00 0. -1.
<mgrwt>
<rscale>  0 0.24276196E+04</rscale>
<asrwt>0</asrwt>
<pdfrwt beam="1">  1        2 0.20004944E+00 0.24276196E+04</pdfrwt>
<pdfrwt beam="2">  1       -2 0.17431599E+00 0.24276196E+04</pdfrwt>
<totfact> 0.29455801E+00</totfact>
</mgrwt>
</event>
<event>
 6    1  0.1817112E-005  0.1062722E+04  0.7818608E-02  0.9242307E-01
         -2   -1    0    0    0  501 -0.00000000000E+00  0.00000000000E+00  0.13586322035E+03  0.13586322035E+03  0.00000000000E+00 0.  1.
          2   -1    0    0  501    0  0.00000000000E+00 -0.00000000000E+00 -0.20781523175E+04  0.20781523175E+04  0.00000000000E+00 0. -1.
         23    2    1    2    0    0 -0.49715424489E+03  0.86101729601E+02 -0.12976682543E+04  0.13954119206E+04  0.93035901693E+02 0.  0.
         13    1    3    3    0    0 -0.35506278344E+03  0.40819993166E+02 -0.10102542146E+04  0.10716106710E+04  0.00000000000E+00 0.  1.
        -13    1    3    3    0    0 -0.14209146145E+03  0.45281736434E+02 -0.28741403969E+03  0.32380124966E+03  0.00000000000E+00 0. -1.
         22    1    1    2    0    0  0.49715424489E+03 -0.86101729601E+02 -0.64462084282E+03  0.81860361718E+03  0.00000000000E+00 0.  1.
<mgrwt>
<rscale>  0 0.10627219E+04</rscale>
<asrwt>0</asrwt>
<pdfrwt beam="1">  1        2 0.31971575E+00 0.10627219E+04</pdfrwt>
<pdfrwt beam="2">  1       -2 0.20902033E-01 0.10627219E+04</pdfrwt>
<totfact> 0.11932656E+02</totfact>
</mgrwt>
</event>
<event>
 6    1  0.1817112E-005  0.4719400E+03  0.7818608E-02  0.1021374E+00
         -2   -1    0    0    0  501 -0.00000000000E+00  0.00000000000E+00  0.25619795802E+03  0.25619795802E+03  0.00000000000E+00 0.  1.
          2   -1    0    0  501    0  0.00000000000E+00 -0.00000000000E+00 -0.21733911556E+03  0.21733911556E+03  0.00000000000E+00 0. -1.
         23    2    1    2    0    0  0.23624457612E+02  0.16550582035E+03 -0.13389450643E+03  0.23313322353E+03  0.92049277523E+02 0.  0.
         11    1    3    3    0    0 -0.23035855050E+02  0.10516958968E+02 -0.40856610519E+01  0.25650529625E+02  0.00000000000E+00 0.  1.
        -11    1    3    3    0    0  0.46660312662E+02  0.15498886138E+03 -0.12980884538E+03  0.20748269390E+03  0.00000000000E+00 0. -1.
         22    1    1    2    0    0 -0.23624457612E+02 -0.16550582035E+03  0.17275334890E+03  0.24040385005E+03  0.00000000000E+00 0.  1.
<mgrwt>
<rscale>  0 0.47193999E+03</rscale>
<asrwt>0</asrwt>
<pdfrwt beam="1">  1        2 0.33436787E-01 0.47193999E+03</pdfrwt>
<pdfrwt beam="2">  1       -2 0.39415071E-01 0.47193999E+03</pdfrwt>
<totfact> 0.95991458E+02</totfact>
</mgrwt>
</event>
<event>
 6    1  0.1817112E-005  0.6569710E+03  0.7818608E-02  0.9793786E-01
         -2   -1    0    0    0  501 -0.00000000000E+00  0.00000000000E+00  0.74517787876E+02  0.74517787876E+02  0.00000000000E+00 0. -1.
          2   -1    0    0  501    0  0.00000000000E+00 -0.00000000000E+00 -0.14480129355E+04  0.14480129355E+04  0.00000000000E+00 0.  1.
         23    2    1    2    0    0  0.11707198547E+03  0.18106237036E+03 -0.14487627903E+03  0.27513593583E+03  0.90670917147E+02 0.  0.
         13    1    3    3    0    0  0.52007573234E+02  0.21174900825E+02 -0.12309602146E+02  0.57486436693E+02  0.00000000000E+00 0. -1.
        -13    1    3    3    0    0  0.65064412237E+02  0.15988746953E+03 -0.13256667689E+03  0.21764949913E+03  0.00000000000E+00 0.  1.
         22    1    1    2    0    0 -0.11707198547E+03 -0.18106237036E+03 -0.12286188686E+04  0.12473947876E+04  0.00000000000E+00 0.  1.
<mgrwt>
<rscale>  0 0.65697099E+03</rscale>
<asrwt>0</asrwt>
<pdfrwt beam="1">  1        2 0.22277120E+00 0.65697099E+03</pdfrwt>
<pdfrwt beam="2">  1       -2 0.11464276E-01 0.65697099E+03</pdfrwt>
<totfact> 0.75720342E+02</totfact>
</mgrwt>
</event>
<event>
 6    1  0.1817112E-005  0.1963410E+04  0.7818608E-02  0.8623922E-01
          2   -1    0    0  501    0  0.00000000000E+00  0.00000000000E+00  0.30219370944E+04  0.30219370944E+04  0.00000000000E+00 0. -1.
         -2   -1    0    0    0  501 -0.00000000000E+00 -0.00000000000E+00 -0.31891607482E+03  0.31891607482E+03  0.00000000000E+00 0.  1.
         23    2    1    2    0    0  0.31261416755E+03  0.86790556912E+03  0.19152870587E+04  0.21277940248E+04  0.90527345110E+02 0.  0.
         13    1    3    3    0    0  0.43231795673E+02  0.12541570735E+03  0.35506053599E+03  0.37903307510E+03  0.00000000000E+00 0. -1.
        -13    1    3    3    0    0  0.26938237188E+03  0.74248986177E+03  0.15602265227E+04  0.17487609497E+04  0.00000000000E+00 0.  1.
         22    1    1    2    0    0 -0.31261416755E+03 -0.86790556912E+03  0.78773396092E+03  0.12130591444E+04  0.00000000000E+00 0.  1.
<mgrwt>
<rscale>  0 0.19634096E+04</rscale>
<asrwt>0</asrwt>
<pdfrwt beam="1">  1        2 0.46491338E+00 0.19634096E+04</pdfrwt>
<pdfrwt beam="2">  1       -2 0.49064013E-01 0.19634096E+04</pdfrwt>
<totfact> 0.61984899E+00</totfact>
</mgrwt>
</event>
<event>
 6    1  0.1817112E-005  0.1462894E+04  0.7818608E-02  0.8909510E-01
          2   -1    0    0  501    0  0.00000000000E+00  0.00000000000E+00  0.12829918418E+04  0.12829918418E+04  0.00000000000E+00 0. -1.
         -2   -1    0    0    0  501 -0.00000000000E+00 -0.00000000000E+00 -0.41700542378E+03  0.41700542378E+03  0.00000000000E+00 0.  1.
         23    2    1    2    0    0  0.40014840850E+03  0.12736383971E+03  0.11265789470E+04  0.12057819657E+04  0.91595461542E+02 0.  0.
         11    1    3    3    0    0  0.37435703886E+03  0.12645186352E+03  0.97506846238E+03  0.10520892418E+04  0.00000000000E+00 0. -1.
        -11    1    3    3    0    0  0.25791369646E+02  0.91197618523E+00  0.15151048460E+03  0.15369272394E+03  0.00000000000E+00 0.  1.
         22    1    1    2    0    0 -0.40014840850E+03 -0.12736383971E+03 -0.26059252895E+03  0.49421529988E+03  0.00000000000E+00 0.  1.
<mgrwt>
<rscale>  0 0.14628938E+04</rscale>
<asrwt>0</asrwt>
<pdfrwt beam="1">  1        2 0.19738336E+00 0.14628938E+04</pdfrwt>
<pdfrwt beam="2">  1       -2 0.64154681E-01 0.14628938E+04</pdfrwt>
<totfact> 0.36797555E+01</totfact>
</mgrwt>
</event>
<event>
 6    1  0.1817112E-005  0.1243714E+04  0.7818608E-02  0.9075432E-01
         -2   -1    0    0    0  501 -0.00000000000E+00  0.00000000000E+00  0.72637578280E+03  0.72637578280E+03  0.00000000000E+00 0. -1.
          2   -1    0    0  501    0  0.00000000000E+00 -0.00000000000E+00 -0.53237727752E+03  0.53237727752E+03  0.00000000000E+00 0.  1.
         23    2    1    2    0    0  0.24756863746E+03 -0.41859237952E+03 -0.28942239399E+03  0.57303768475E+03  0.89983640466E+02 0.  0.
         11    1    3    3    0    0  0.93601622152E+02 -0.23077543882E+03 -0.17630445499E+03  0.30512592103E+03  0.00000000000E+00 0.  1.
        -11    1    3    3    0    0  0.15396701531E+03 -0.18781694069E+03 -0.11311793900E+03  0.26791176372E+03  0.00000000000E+00 0. -1.
         22    1    1    2    0    0 -0.24756863746E+03  0.41859237952E+03  0.48342089928E+03  0.68571537558E+03  0.00000000000E+00 0. -1.
<mgrwt>
<rscale>  0 0.12437137E+04</rscale>
<asrwt>0</asrwt>
<pdfrwt beam="1">  1        2 0.81904196E-01 0.12437137E+04</pdfrwt>
<pdfrwt beam="2">  1       -2 0.11175012E+00 0.12437137E+04</pdfrwt>
<totfact> 0.35594035E+01</totfact>
</mgrwt>
</event>
<event>
 6    1  0.1817112E-005  0.8077690E+03  0.7818608E-02  0.9548839E-01
         -2   -1    0    0    0  501 -0.00000000000E+00  0.00000000000E+00  0.33807800907E+03  0.33807800907E+03  0.00000000000E+00 0.  1.
          2   -1    0    0  501    0  0.00000000000E+00 -0.00000000000E+00 -0.48250009020E+03  0.48250009020E+03  0.00000000000E+00 0. -1.
         23    2    1    2    0    0 -0.34491222785E+03  0.43121445112E+02  0.12529471900E+03  0.38061099115E+03  0.91334856554E+02 0.  0.
         11    1    3    3    0    0 -0.87593780534E+02  0.44340196794E+02  0.60271024360E+02  0.11520121448E+03  0.00000000000E+00 0.  1.
        -11    1    3    3    0    0 -0.25731844732E+03 -0.12187516823E+01  0.65023694637E+02  0.26540977667E+03  0.00000000000E+00 0. -1.
         22    1    1    2    0    0  0.34491222785E+03 -0.43121445112E+02 -0.26971680013E+03  0.43996710812E+03  0.00000000000E+00 0. -1.
<mgrwt>
<rscale>  0 0.80776895E+03</rscale>
<asrwt>0</asrwt>
<pdfrwt beam="1">  1        2 0.74230783E-01 0.80776895E+03</pdfrwt>
<pdfrwt beam="2">  1       -2 0.52012002E-01 0.80776895E+03</pdfrwt>
<totfact> 0.22556628E+02</totfact>
</mgrwt>
</event>
<event>
 6    1  0.1817112E-005  0.3023428E+04  0.7818608E-02  0.8237072E-01
         -2   -1    0    0    0  501 -0.00000000000E+00  0.00000000000E+00  0.13178199481E+04  0.13178199481E+04  0.00000000000E+00 0.  1.
          2   -1    0    0  501    0  0.00000000000E+00 -0.00000000000E+00 -0.17341356211E+04  0.17341356211E+04  0.00000000000E+00 0. -1.
         23    2    1    2    0    0  0.13620979991E+04 -0.27573500076E+03  0.38802899744E+03  0.14462435470E+04  0.98555287366E+02 0.  0.
         11    1    3    3    0    0  0.82820093949E+03 -0.13903221712E+03  0.27484096782E+03  0.88362000383E+03  0.00000000000E+00 0.  1.
        -11    1    3    3    0    0  0.53389705956E+03 -0.13670278364E+03  0.11318802961E+03  0.56262354315E+03  0.00000000000E+00 0. -1.
         22    1    1    2    0    0 -0.13620979991E+04  0.27573500076E+03 -0.80434467042E+03  0.16057120223E+04  0.00000000000E+00 0. -1.
<mgrwt>
<rscale>  0 0.30234275E+04</rscale>
<asrwt>0</asrwt>
<pdfrwt beam="1">  1        2 0.26679009E+00 0.30234275E+04</pdfrwt>
<pdfrwt beam="2">  1       -2 0.20274153E+00 0.30234275E+04</pdfrwt>
<totfact> 0.10235883E+00</totfact>
</mgrwt>
</event>
<event>
 6    1  0.1817112E-005  0.2178314E+04  0.7818608E-02  0.8527509E-01
         -2   -1    0    0    0  501 -0.00000000000E+00  0.00000000000E+00  0.44826329768E+03  0.44826329768E+03  0.00000000000E+00 0.  1.
          2   -1    0    0  501    0  0.00000000000E+00 -0.00000000000E+00 -0.26463531957E+04  0.26463531957E+04  0.00000000000E+00 0. -1.
         23    2    1    2    0    0  0.56763260428E+03 -0.10611110129E+03  0.20690198024E+03  0.62126810025E+03  0.98484941439E+02 0.  0.
         13    1    3    3    0    0  0.14802522782E+03  0.12898967311E+02  0.36490963728E+02  0.15300144399E+03  0.00000000000E+00 0.  1.
        -13    1    3    3    0    0  0.41960737646E+03 -0.11901006860E+03  0.17041101652E+03  0.46826665626E+03  0.00000000000E+00 0. -1.
         22    1    1    2    0    0 -0.56763260428E+03  0.10611110129E+03 -0.24049918782E+04  0.24733483931E+04  0.00000000000E+00 0. -1.
<mgrwt>
<rscale>  0 0.21783140E+04</rscale>
<asrwt>0</asrwt>
<pdfrwt beam="1">  1        2 0.40713126E+00 0.21783140E+04</pdfrwt>
<pdfrwt beam="2">  1       -2 0.68963584E-01 0.21783140E+04</pdfrwt>
<totfact> 0.50270688E+00</totfact>
</mgrwt>
</event>
<event>
 6    1  0.1817112E-005  0.4063124E+04  0.7818608E-02  0.7991932E-01
          2   -1    0    0  501    0  0.00000000000E+00  0.00000000000E+00  0.25261531563E+04  0.25261531563E+04  0.00000000000E+00 0. -1.
         -2   -1    0    0    0  501 -0.00000000000E+00 -0.00000000000E+00 -0.16338061859E+04  0.16338061859E+04  0.00000000000E+00 0.  1.
         23    2    1    2    0    0 -0.25682325699E+03 -0.10792089413E+04 -0.12948027613E+04  0.17075576472E+04  0.92675798168E+02 0.  0.
         11    1    3    3    0    0 -0.13513531885E+03 -0.73104052949E+03 -0.83161660309E+03  0.11154676081E+04  0.00000000000E+00 0.  1.
        -11    1    3    3    0    0 -0.12168793814E+03 -0.34816841180E+03 -0.46318615822E+03  0.59209003912E+03  0.00000000000E+00 0. -1.
         22    1    1    2    0    0  0.25682325699E+03  0.10792089413E+04  0.21871497318E+04  0.24524016950E+04  0.00000000000E+00 0. -1.
<mgrwt>
<rscale>  0 0.40631242E+04</rscale>
<asrwt>0</asrwt>
<pdfrwt beam="1">  1        2 0.38863895E+00 0.40631242E+04</pdfrwt>
<pdfrwt beam="2">  1       -2 0.25135480E+00 0.40631242E+04</pdfrwt>
<totfact> 0.16631716E-01</totfact>
</mgrwt>
</event>
<event>
 6    1  0.1817112E-005  0.1846258E+04  0.7818608E-02  0.8682080E-01
          2   -1    0    0  501    0  0.00000000000E+00  0.00000000000E+00  0.13889240763E+04  0.13889240763E+04  0.00000000000E+00 0. -1.
         -2   -1    0    0    0  501 -0.00000000000E+00 -0.00000000000E+00 -0.61354474761E+03  0.61354474761E+03  0.00000000000E+00 0.  1.
         23    2    1    2    0    0 -0.82584522343E+03  0.40584702739E+03  0.42647166612E+03  0.10183607507E+04  0.91915145151E+02 0.  0.
         11    1    3    3    0    0 -0.53008802007E+03  0.21109232723E+03  0.25723276418E+03  0.62587696443E+03  0.00000000000E+00 0. -1.
        -11    1    3    3    0    0 -0.29575720337E+03  0.19475470016E+03  0.16923890193E+03  0.39248378630E+03  0.00000000000E+00 0.  1.
         22    1    1    2    0    0  0.82584522343E+03 -0.40584702739E+03  0.34890766257E+03  0.98410807319E+03  0.00000000000E+00 0.  1.
<mgrwt>
<rscale>  0 0.18462579E+04</rscale>
<asrwt>0</asrwt>
<pdfrwt beam="1">  1        2 0.21368063E+00 0.18462579E+04</pdfrwt>
<pdfrwt beam="2">  1       -2 0.94391500E-01 0.18462579E+04</pdfrwt>
<totfact> 0.13068643E+01</totfact>
</mgrwt>
</event>
<event>
 6    1  0.1817112E-005  0.1457043E+04  0.7818608E-02  0.8913532E-01
         -2   -1    0    0    0  501 -0.00000000000E+00  0.00000000000E+00  0.20375511317E+03  0.20375511317E+03  0.00000000000E+00 0.  1.
          2   -1    0    0  501    0  0.00000000000E+00 -0.00000000000E+00 -0.26048118668E+04  0.26048118668E+04  0.00000000000E+00 0. -1.
         23    2    1    2    0    0  0.53442154771E+03 -0.13444050089E+02 -0.25975788339E+03  0.60154455489E+03  0.92706851918E+02 0.  0.
         11    1    3    3    0    0  0.22312208168E+03 -0.38653232980E+02 -0.14457965373E+03  0.26866486935E+03  0.00000000000E+00 0. -1.
        -11    1    3    3    0    0  0.31129946603E+03  0.25209182892E+02 -0.11517822966E+03  0.33287968554E+03  0.00000000000E+00 0.  1.
         22    1    1    2    0    0 -0.53442154771E+03  0.13444050089E+02 -0.21412988703E+04  0.22070224251E+04  0.00000000000E+00 0. -1.
<mgrwt>
<rscale>  0 0.14570432E+04</rscale>
<asrwt>0</asrwt>
<pdfrwt beam="1">  1        2 0.40074029E+00 0.14570432E+04</pdfrwt>
<pdfrwt beam="2">  1       -2 0.31346940E-01 0.14570432E+04</pdfrwt>
<totfact> 0.27787150E+01</totfact>
</mgrwt>
</event>
<event>
 6    1  0.1817112E-005  0.3623847E+04  0.7818608E-02  0.8085051E-01
          2   -1    0    0  501    0  0.00000000000E+00  0.00000000000E+00  0.24593215023E+04  0.24593215023E+04  0.00000000000E+00 0. -1.
         -2   -1    0    0    0  501 -0.00000000000E+00 -0.00000000000E+00 -0.13349483098E+04  0.13349483098E+04  0.00000000000E+00 0.  1.
         23    2    1    2    0    0  0.99600233569E+02 -0.90905556581E+03  0.21989228997E+04  0.23832562396E+04  0.91357299880E+02 0.  0.
         11    1    3    3    0    0  0.68746238652E+02 -0.77139585933E+03  0.17787807915E+04  0.19400615251E+04  0.00000000000E+00 0. -1.
        -11    1    3    3    0    0  0.30853994917E+02 -0.13765970648E+03  0.42014210827E+03  0.44319471447E+03  0.00000000000E+00 0.  1.
         22    1    1    2    0    0 -0.99600233569E+02  0.90905556581E+03 -0.10745497073E+04  0.14110135724E+04  0.00000000000E+00 0.  1.
<mgrwt>
<rscale>  0 0.36238472E+04</rscale>
<asrwt>0</asrwt>
<pdfrwt beam="1">  1        2 0.37835715E+00 0.36238472E+04</pdfrwt>
<pdfrwt beam="2">  1       -2 0.20537666E+00 0.36238472E+04</pdfrwt>
<totfact> 0.36668321E-01</totfact>
</mgrwt>
</event>
<event>
 6    1  0.1817112E-005  0.1113621E+04  0.7818608E-02  0.9192017E-01
          2   -1    0    0  501    0  0.00000000000E+00  0.00000000000E+00  0.11544935570E+04  0.11544935570E+04  0.00000000000E+00 0. -1.
         -2   -1    0    0    0  501 -0.00000000000E+00 -0.00000000000E+00 -0.26854866150E+03  0.26854866150E+03  0.00000000000E+00 0.  1.
         23    2    1    2    0    0  0.13158082144E+03 -0.39159093524E+03 -0.23896378266E+02  0.42380845377E+03  0.91572897003E+02 0.  0.
         13    1    3    3    0    0  0.79499233831E+02 -0.29228925614E+03 -0.54054048979E+02  0.30769299252E+03  0.00000000000E+00 0. -1.
        -13    1    3    3    0    0  0.52081587613E+02 -0.99301679095E+02  0.30157670713E+02  0.11611546125E+03  0.00000000000E+00 0.  1.
         22    1    1    2    0    0 -0.13158082144E+03  0.39159093524E+03  0.90984127381E+03  0.99923376477E+03  0.00000000000E+00 0. -1.
<mgrwt>
<rscale>  0 0.11136206E+04</rscale>
<asrwt>0</asrwt>
<pdfrwt beam="1">  1        2 0.17761439E+00 0.11136206E+04</pdfrwt>
<pdfrwt beam="2">  1       -2 0.41315179E-01 0.11136206E+04</pdfrwt>
<totfact> 0.11100131E+02</totfact>
</mgrwt>
</event>
<event>
 6    1  0.1817112E-005  0.1879794E+04  0.7818608E-02  0.8664980E-01
          2   -1    0    0  501    0  0.00000000000E+00  0.00000000000E+00  0.10524246308E+04  0.10524246308E+04  0.00000000000E+00 0. -1.
         -2   -1    0    0    0  501 -0.00000000000E+00 -0.00000000000E+00 -0.83940097517E+03  0.83940097517E+03  0.00000000000E+00 0.  1.
         23    2    1    2    0    0 -0.39559231536E+03 -0.29074886950E+02 -0.74811534258E+03  0.85205312947E+03  0.94759382737E+02 0.  0.
         11    1    3    3    0    0 -0.21941966576E+03  0.25339664916E+02 -0.45477213649E+03  0.50557371814E+03  0.00000000000E+00 0. -1.
        -11    1    3    3    0    0 -0.17617264960E+03 -0.54414551866E+02 -0.29334320608E+03  0.34647941133E+03  0.00000000000E+00 0.  1.
         22    1    1    2    0    0  0.39559231536E+03  0.29074886950E+02  0.96113899817E+03  0.10397724765E+04  0.00000000000E+00 0. -1.
<mgrwt>
<rscale>  0 0.18797939E+04</rscale>
<asrwt>0</asrwt>
<pdfrwt beam="1">  1        2 0.16191148E+00 0.18797939E+04</pdfrwt>
<pdfrwt beam="2">  1       -2 0.12913861E+00 0.18797939E+04</pdfrwt>
<totfact> 0.96651928E+00</totfact>
</mgrwt>
</event>
<event>
 6    1  0.1817112E-005  0.1332127E+04  0.7818608E-02  0.9004469E-01
         -2   -1    0    0    0  501 -0.00000000000E+00  0.00000000000E+00  0.32359855355E+03  0.32359855355E+03  0.00000000000E+00 0.  1.
          2   -1    0    0  501    0  0.00000000000E+00 -0.00000000000E+00 -0.13709602951E+04  0.13709602951E+04  0.00000000000E+00 0. -1.
         23    2    1    2    0    0  0.30391187557E+03  0.34190233679E+02 -0.12743229493E+04  0.13137140115E+04  0.91728537836E+02 0.  0.
         11    1    3    3    0    0  0.18795392397E+03  0.29229729328E+02 -0.95963305102E+03  0.97830294246E+03  0.00000000000E+00 0. -1.
        -11    1    3    3    0    0  0.11595795160E+03  0.49605043506E+01 -0.31468989829E+03  0.33541106903E+03  0.00000000000E+00 0.  1.
         22    1    1    2    0    0 -0.30391187557E+03 -0.34190233679E+02  0.22696120774E+03  0.38084483718E+03  0.00000000000E+00 0.  1.
<mgrwt>
<rscale>  0 0.13321273E+04</rscale>
<asrwt>0</asrwt>
<pdfrwt beam="1">  1        2 0.21091697E+00 0.13321273E+04</pdfrwt>
<pdfrwt beam="2">  1       -2 0.49784393E-01 0.13321273E+04</pdfrwt>
<totfact> 0.56131178E+01</totfact>
</mgrwt>
</event>
<event>
 6    1  0.1817112E-005  0.5887967E+04  0.7818608E-02  0.7704450E-01
          2   -1    0    0  501    0  0.00000000000E+00  0.00000000000E+00  0.24442076607E+04  0.24442076607E+04  0.00000000000E+00 0. -1.
         -2   -1    0    0    0  501 -0.00000000000E+00 -0.00000000000E+00 -0.35459497578E+04  0.35459497578E+04  0.00000000000E+00 0.  1.
         23    2    1    2    0    0  0.71864732285E+03  0.20134656275E+04 -0.26091703204E+04  0.33742756062E+04  0.86419313959E+02 0.  0.
         13    1    3    3    0    0  0.52638233693E+03  0.15034162157E+04 -0.20004233153E+04  0.25571531285E+04  0.00000000000E+00 0. -1.
        -13    1    3    3    0    0  0.19226498592E+03  0.51004941184E+03 -0.60874700512E+03  0.81712247771E+03  0.00000000000E+00 0.  1.
         22    1    1    2    0    0 -0.71864732285E+03 -0.20134656275E+04  0.15074282233E+04  0.26158818123E+04  0.00000000000E+00 0. -1.
<mgrwt>
<rscale>  0 0.58879666E+04</rscale>
<asrwt>0</asrwt>
<pdfrwt beam="1">  1        2 0.37603195E+00 0.58879666E+04</pdfrwt>
<pdfrwt beam="2">  1       -2 0.54553073E+00 0.58879666E+04</pdfrwt>
<totfact> 0.23320294E-03</totfact>
</mgrwt>
</event>
<event>
 6    1  0.1817112E-005  0.1383665E+04  0.7818608E-02  0.8965728E-01
          2   -1    0    0  501    0  0.00000000000E+00  0.00000000000E+00  0.88739390732E+03  0.88739390732E+03  0.00000000000E+00 0. -1.
         -2   -1    0    0    0  501 -0.00000000000E+00 -0.00000000000E+00 -0.53936846891E+03  0.53936846891E+03  0.00000000000E+00 0.  1.
         23    2    1    2    0    0 -0.20169602887E+03 -0.21392161209E+03  0.81697968655E+03  0.87326275471E+03  0.93210977530E+02 0.  0.
         13    1    3    3    0    0 -0.61483816185E+02 -0.13247019475E+03  0.40429574711E+03  0.42986470345E+03  0.00000000000E+00 0. -1.
        -13    1    3    3    0    0 -0.14021221269E+03 -0.81451417340E+02  0.41268393945E+03  0.44339805125E+03  0.00000000000E+00 0.  1.
         22    1    1    2    0    0  0.20169602887E+03  0.21392161209E+03 -0.46895424814E+03  0.55349962153E+03  0.00000000000E+00 0.  1.
<mgrwt>
<rscale>  0 0.13836651E+04</rscale>
<asrwt>0</asrwt>
<pdfrwt beam="1">  1        2 0.13652214E+00 0.13836651E+04</pdfrwt>
<pdfrwt beam="2">  1       -2 0.82979765E-01 0.13836651E+04</pdfrwt>
<totfact> 0.37099522E+01</totfact>
</mgrwt>
</event>
<event>
 6    1  0.1817112E-005  0.1340862E+04  0.7818608E-02  0.8997774E-01
         -2   -1    0    0    0  501 -0.00000000000E+00  0.00000000000E+00  0.88370894332E+03  0.88370894332E+03  0.00000000000E+00 0.  1.
          2   -1    0    0  501    0  0.00000000000E+00 -0.00000000000E+00 -0.50862656053E+03  0.50862656053E+03  0.00000000000E+00 0. -1.
         23    2    1    2    0    0 -0.42839932397E+02 -0.66481931616E+03  0.15201532649E+03  0.68978380144E+03  0.94196869879E+02 0.  0.
         13    1    3    3    0    0 -0.56994418048E+02 -0.43887795833E+03  0.13530011702E+03  0.46278326209E+03  0.00000000000E+00 0. -1.
        -13    1    3    3    0    0  0.14154485651E+02 -0.22594135783E+03  0.16715209471E+02  0.22700053936E+03  0.00000000000E+00 0.  1.
         22    1    1    2    0    0  0.42839932397E+02  0.66481931616E+03  0.22306705629E+03  0.70255170241E+03  0.00000000000E+00 0. -1.
<mgrwt>
<rscale>  0 0.13408622E+04</rscale>
<asrwt>0</asrwt>
<pdfrwt beam="1">  1        2 0.78250240E-01 0.13408622E+04</pdfrwt>
<pdfrwt beam="2">  1       -2 0.13595522E+00 0.13408622E+04</pdfrwt>
<totfact> 0.22844593E+01</totfact>
</mgrwt>
</event>
<event>
 6    1  0.1817112E-005  0.1777595E+04  0.7818608E-02  0.8718306E-01
         -2   -1    0    0    0  501 -0.00000000000E+00  0.00000000000E+00  0.96641002633E+03  0.96641002633E+03  0.00000000000E+00 0. -1.
          2   -1    0    0  501    0  0.00000000000E+00 -0.00000000000E+00 -0.81741770995E+03  0.81741770995E+03  0.00000000000E+00 0.  1.
         23    2    1    2    0    0 -0.41671148140E+03  0.75098147437E+03  0.29458631623E+03  0.91272541945E+03  0.93085767079E+02 0.  0.
         13    1    3    3    0    0 -0.18969129782E+03  0.36807795724E+03  0.18929390433E+03  0.45529809279E+03  0.00000000000E+00 0. -1.
        -13    1    3    3    0    0 -0.22702018358E+03  0.38290351713E+03  0.10529241189E+03  0.45742732667E+03  0.00000000000E+00 0.  1.
         22    1    1    2    0    0  0.41671148140E+03 -0.75098147437E+03 -0.14559399985E+03  0.87110231682E+03  0.00000000000E+00 0.  1.
<mgrwt>
<rscale>  0 0.17775946E+04</rscale>
<asrwt>0</asrwt>
<pdfrwt beam="1">  1        2 0.12575657E+00 0.17775946E+04</pdfrwt>
<pdfrwt beam="2">  1       -2 0.14867846E+00 0.17775946E+04</pdfrwt>
<totfact> 0.97049472E+00</totfact>
</mgrwt>
</event>
<event>
 6    1  0.1817112E-005  0.7771520E+03  0.7818608E-02  0.9593690E-01
         -1   -1    0    0    0  501 -0.00000000000E+00  0.00000000000E+00  0.51152363330E+03  0.51152363330E+03  0.00000000000E+00 0.  1.
          1   -1    0    0  501    0  0.00000000000E+00 -0.00000000000E+00 -0.29517954396E+03  0.29517954396E+03  0.00000000000E+00 0. -1.
         23    2    1    2    0    0  0.30324265918E+03  0.21292522224E+03  0.21103721650E+03  0.43613412362E+03  0.91558759411E+02 0.  0.
         11    1    3    3    0    0  0.67613795249E+02  0.70145369652E+02  0.16381027885E+02  0.98794414144E+02  0.00000000000E+00 0. -1.
        -11    1    3    3    0    0  0.23562886394E+03  0.14277985258E+03  0.19465618861E+03  0.33733970947E+03  0.00000000000E+00 0.  1.
         22    1    1    2    0    0 -0.30324265918E+03 -0.21292522224E+03  0.53068728438E+01  0.37056905364E+03  0.00000000000E+00 0. -1.
<mgrwt>
<rscale>  0 0.77715201E+03</rscale>
<asrwt>0</asrwt>
<pdfrwt beam="1">  1        1 0.45412238E-01 0.77715201E+03</pdfrwt>
<pdfrwt beam="2">  1       -1 0.78695944E-01 0.77715201E+03</pdfrwt>
<totfact> 0.14657492E+02</totfact>
</mgrwt>
</event>
<event>
 6    1  0.1817112E-005  0.7507368E+03  0.7818608E-02  0.9634195E-01
         -1   -1    0    0    0  501 -0.00000000000E+00  0.00000000000E+00  0.54499361458E+02  0.54499361458E+02  0.00000000000E+00 0.  1.
          1   -1    0    0  501    0  0.00000000000E+00 -0.00000000000E+00 -0.25853776789E+04  0.25853776789E+04  0.00000000000E+00 0. -1.
         23    2    1    2    0    0 -0.10799039335E+03  0.24003007074E+03 -0.21974867387E+04  0.22151108639E+04  0.92151031214E+02 0.  0.
         11    1    3    3    0    0 -0.12126318869E+03  0.23453050085E+03 -0.20518549831E+04  0.20687721451E+04  0.00000000000E+00 0. -1.
        -11    1    3    3    0    0  0.13272795346E+02  0.54995698892E+01 -0.14563175567E+03  0.14633871881E+03  0.00000000000E+00 0.  1.
         22    1    1    2    0    0  0.10799039335E+03 -0.24003007074E+03 -0.33339157874E+03  0.42476617649E+03  0.00000000000E+00 0.  1.
<mgrwt>
<rscale>  0 0.75073679E+03</rscale>
<asrwt>0</asrwt>
<pdfrwt beam="1">  1        1 0.39775038E+00 0.75073679E+03</pdfrwt>
<pdfrwt beam="2">  1       -1 0.83845177E-02 0.75073679E+03</pdfrwt>
<totfact> 0.10283290E+02</totfact>
</mgrwt>
</event>
<event>
 6    1  0.1817112E-005  0.1259495E+04  0.7818608E-02  0.9062317E-01
         -2   -1    0    0    0  501 -0.00000000000E+00  0.00000000000E+00  0.50688266968E+03  0.50688266968E+03  0.00000000000E+00 0.  1.
          2   -1    0    0  501    0  0.00000000000E+00 -0.00000000000E+00 -0.78239433958E+03  0.78239433958E+03  0.00000000000E+00 0. -1.
         23    2    1    2    0    0 -0.28623070860E+03  0.22882446177E+03  0.38164703077E+03  0.53685012863E+03  0.90911779570E+02 0.  0.
         11    1    3    3    0    0 -0.10408917594E+03  0.11002730898E+03  0.21445604206E+03  0.26254896542E+03  0.00000000000E+00 0.  1.
        -11    1    3    3    0    0 -0.18214153266E+03  0.11879715280E+03  0.16719098871E+03  0.27430116321E+03  0.00000000000E+00 0. -1.
         22    1    1    2    0    0  0.28623070860E+03 -0.22882446177E+03 -0.65715870066E+03  0.75242688064E+03  0.00000000000E+00 0. -1.
<mgrwt>
<rscale>  0 0.12594953E+04</rscale>
<asrwt>0</asrwt>
<pdfrwt beam="1">  1        2 0.12036836E+00 0.12594953E+04</pdfrwt>
<pdfrwt beam="2">  1       -2 0.77981950E-01 0.12594953E+04</pdfrwt>
<totfact> 0.51070546E+01</totfact>
</mgrwt>
</event>
<event>
 6    1  0.1817112E-005  0.7005185E+03  0.7818608E-02  0.9716346E-01
          2   -1    0    0  501    0  0.00000000000E+00  0.00000000000E+00  0.77681969051E+03  0.77681969051E+03  0.00000000000E+00 0. -1.
         -2   -1    0    0    0  501 -0.00000000000E+00 -0.00000000000E+00 -0.15792794714E+03  0.15792794714E+03  0.00000000000E+00 0.  1.
         23    2    1    2    0    0 -0.29907467421E+03  0.16071869923E+03  0.27774088388E+03  0.45343685450E+03  0.11484259405E+03 0.  0.
         11    1    3    3    0    0 -0.29339689504E+03  0.14185396003E+03  0.28450703338E+03  0.43260667590E+03  0.00000000000E+00 0. -1.
        -11    1    3    3    0    0 -0.56777791698E+01  0.18864739202E+02 -0.67661494995E+01  0.20830178600E+02  0.00000000000E+00 0.  1.
         22    1    1    2    0    0  0.29907467421E+03 -0.16071869923E+03  0.34115085949E+03  0.48131078314E+03  0.00000000000E+00 0.  1.
<mgrwt>
<rscale>  0 0.70051849E+03</rscale>
<asrwt>0</asrwt>
<pdfrwt beam="1">  1        2 0.11951072E+00 0.70051849E+03</pdfrwt>
<pdfrwt beam="2">  1       -2 0.24296608E-01 0.70051849E+03</pdfrwt>
<totfact> 0.54372417E+02</totfact>
</mgrwt>
</event>
<event>
 6    1  0.1817112E-005  0.1946066E+04  0.7818608E-02  0.8632260E-01
         -1   -1    0    0    0  501 -0.00000000000E+00  0.00000000000E+00  0.81192230788E+03  0.81192230788E+03  0.00000000000E+00 0.  1.
          1   -1    0    0  501    0  0.00000000000E+00 -0.00000000000E+00 -0.11661128320E+04  0.11661128320E+04  0.00000000000E+00 0. -1.
         23    2    1    2    0    0 -0.81657953463E+03 -0.31884679368E+03  0.24606768917E+03  0.91559674787E+03  0.96450416487E+02 0.  0.
         11    1    3    3    0    0 -0.34746116748E+03 -0.11650935836E+03  0.57208334099E+02  0.37091304504E+03  0.00000000000E+00 0. -1.
        -11    1    3    3    0    0 -0.46911836715E+03 -0.20233743532E+03  0.18885935507E+03  0.54468370283E+03  0.00000000000E+00 0.  1.
         22    1    1    2    0    0  0.81657953463E+03  0.31884679368E+03 -0.60025821331E+03  0.10624383920E+04  0.00000000000E+00 0. -1.
<mgrwt>
<rscale>  0 0.19460658E+04</rscale>
<asrwt>0</asrwt>
<pdfrwt beam="1">  1        1 0.17940197E+00 0.19460658E+04</pdfrwt>
<pdfrwt beam="2">  1       -1 0.12491113E+00 0.19460658E+04</pdfrwt>
<totfact> 0.59134098E+00</totfact>
</mgrwt>
</event>
<event>
 6    1  0.1817112E-005  0.5328373E+04  0.7818608E-02  0.7779757E-01
          1   -1    0    0  501    0  0.00000000000E+00  0.00000000000E+00  0.30618511952E+04  0.30618511952E+04  0.00000000000E+00 0. -1.
         -1   -1    0    0    0  501 -0.00000000000E+00 -0.00000000000E+00 -0.23181695903E+04  0.23181695903E+04  0.00000000000E+00 0.  1.
         23    2    1    2    0    0  0.11159469593E+04  0.59752159812E+03  0.27380198063E+04  0.30178703801E+04  0.91757805997E+02 0.  0.
         13    1    3    3    0    0  0.59665941950E+03  0.31682890713E+03  0.15694484014E+04  0.17086694542E+04  0.00000000000E+00 0.  1.
        -13    1    3    3    0    0  0.51928753976E+03  0.28069269099E+03  0.11685714050E+04  0.13092009258E+04  0.00000000000E+00 0. -1.
         22    1    1    2    0    0 -0.11159469593E+04 -0.59752159812E+03 -0.19943382015E+04  0.23621504054E+04  0.00000000000E+00 0.  1.
<mgrwt>
<rscale>  0 0.53283732E+04</rscale>
<asrwt>0</asrwt>
<pdfrwt beam="1">  1        1 0.47105403E+00 0.53283732E+04</pdfrwt>
<pdfrwt beam="2">  1       -1 0.35664148E+00 0.53283732E+04</pdfrwt>
<totfact> 0.53172812E-03</totfact>
</mgrwt>
</event>
<event>
 6    1  0.1817112E-005  0.3180010E+04  0.7818608E-02  0.8194117E-01
          2   -1    0    0  501    0  0.00000000000E+00  0.00000000000E+00  0.39651562648E+04  0.39651562648E+04  0.00000000000E+00 0. -1.
         -2   -1    0    0    0  501 -0.00000000000E+00 -0.00000000000E+00 -0.63758290581E+03  0.63758290581E+03  0.00000000000E+00 0.  1.
         23    2    1    2    0    0 -0.27137778639E+03  0.55613895277E+03  0.37830084057E+04  0.38343919057E+04  0.92044833022E+02 0.  0.
         13    1    3    3    0    0 -0.19121070224E+03  0.28749113150E+03  0.20850180091E+04  0.21134125914E+04  0.00000000000E+00 0. -1.
        -13    1    3    3    0    0 -0.80167084151E+02  0.26864782126E+03  0.16979903966E+04  0.17209793143E+04  0.00000000000E+00 0.  1.
         22    1    1    2    0    0  0.27137778639E+03 -0.55613895277E+03 -0.45543504669E+03  0.76834726491E+03  0.00000000000E+00 0.  1.
<mgrwt>
<rscale>  0 0.31800100E+04</rscale>
<asrwt>0</asrwt>
<pdfrwt beam="1">  1        2 0.61002403E+00 0.31800100E+04</pdfrwt>
<pdfrwt beam="2">  1       -2 0.98089680E-01 0.31800100E+04</pdfrwt>
<totfact> 0.26571842E-01</totfact>
</mgrwt>
</event>
<event>
 6    1  0.1817112E-005  0.4086041E+04  0.7818608E-02  0.7987411E-01
          2   -1    0    0  501    0  0.00000000000E+00  0.00000000000E+00  0.45342871780E+04  0.45342871780E+04  0.00000000000E+00 0. -1.
         -2   -1    0    0    0  501 -0.00000000000E+00 -0.00000000000E+00 -0.92052694050E+03  0.92052694050E+03  0.00000000000E+00 0.  1.
         23    2    1    2    0    0 -0.56096548009E+03 -0.11089669098E+04  0.39710954291E+04  0.41616867791E+04  0.74485321182E+02 0.  0.
         11    1    3    3    0    0 -0.35398548600E+03 -0.67114770212E+03  0.25361128271E+04  0.26471896861E+04  0.00000000000E+00 0. -1.
        -11    1    3    3    0    0 -0.20697999409E+03 -0.43781920763E+03  0.14349826021E+04  0.15144970930E+04  0.00000000000E+00 0.  1.
         22    1    1    2    0    0  0.56096548009E+03  0.11089669098E+04 -0.35733519163E+03  0.12931273394E+04  0.00000000000E+00 0.  1.
<mgrwt>
<rscale>  0 0.40860414E+04</rscale>
<asrwt>0</asrwt>
<pdfrwt beam="1">  1        2 0.69758263E+00 0.40860414E+04</pdfrwt>
<pdfrwt beam="2">  1       -2 0.14161953E+00 0.40860414E+04</pdfrwt>
<totfact> 0.30849712E-02</totfact>
</mgrwt>
</event>
<event>
 6    1  0.1817112E-005  0.4688449E+04  0.7818608E-02  0.7878451E-01
         -2   -1    0    0    0  501 -0.00000000000E+00  0.00000000000E+00  0.28227129181E+04  0.28227129181E+04  0.00000000000E+00 0.  1.
          2   -1    0    0  501    0  0.00000000000E+00 -0.00000000000E+00 -0.19468462711E+04  0.19468462711E+04  0.00000000000E+00 0. -1.
         23    2    1    2    0    0  0.14498228815E+04 -0.15443172505E+04 -0.58135901982E+03  0.21984876613E+04  0.92019178920E+02 0.  0.
         13    1    3    3    0    0  0.58296929473E+03 -0.65287172437E+03 -0.19907653020E+03  0.89762249969E+03  0.00000000000E+00 0.  1.
        -13    1    3    3    0    0  0.86685358674E+03 -0.89144552613E+03 -0.38228248962E+03  0.13008651616E+04  0.00000000000E+00 0. -1.
         22    1    1    2    0    0 -0.14498228815E+04  0.15443172505E+04  0.14572256668E+04  0.25710715279E+04  0.00000000000E+00 0.  1.
<mgrwt>
<rscale>  0 0.46884488E+04</rscale>
<asrwt>0</asrwt>
<pdfrwt beam="1">  1        2 0.29951481E+00 0.46884488E+04</pdfrwt>
<pdfrwt beam="2">  1       -2 0.43426353E+00 0.46884488E+04</pdfrwt>
<totfact> 0.23576292E-02</totfact>
</mgrwt>
</event>
<event>
 6    1  0.1817112E-005  0.3172204E+04  0.7818608E-02  0.8196197E-01
         -2   -1    0    0    0  501 -0.00000000000E+00  0.00000000000E+00  0.71418072238E+03  0.71418072238E+03  0.00000000000E+00 0.  1.
          2   -1    0    0  501    0  0.00000000000E+00 -0.00000000000E+00 -0.35225259016E+04  0.35225259016E+04  0.00000000000E+00 0. -1.
         23    2    1    2    0    0 -0.53047421168E+03  0.60388064221E+03 -0.32295531971E+04  0.33292426227E+04  0.88135512544E+02 0.  0.
         11    1    3    3    0    0 -0.79351158086E+02  0.10094470413E+03 -0.39779859507E+03  0.41800737053E+03  0.00000000000E+00 0.  1.
        -11    1    3    3    0    0 -0.45112305359E+03  0.50293593807E+03 -0.28317546021E+04  0.29112352522E+04  0.00000000000E+00 0. -1.
         22    1    1    2    0    0  0.53047421168E+03 -0.60388064221E+03  0.42120801789E+03  0.90746400128E+03  0.00000000000E+00 0.  1.
<mgrwt>
<rscale>  0 0.31722043E+04</rscale>
<asrwt>0</asrwt>
<pdfrwt beam="1">  1        2 0.54192707E+00 0.31722043E+04</pdfrwt>
<pdfrwt beam="2">  1       -2 0.10987395E+00 0.31722043E+04</pdfrwt>
<totfact> 0.43534294E-01</totfact>
</mgrwt>
</event>
<event>
 6    1  0.1817112E-005  0.2160855E+04  0.7818608E-02  0.8534900E-01
         -2   -1    0    0    0  501 -0.00000000000E+00  0.00000000000E+00  0.51645322290E+03  0.51645322290E+03  0.00000000000E+00 0. -1.
          2   -1    0    0  501    0  0.00000000000E+00 -0.00000000000E+00 -0.22602702935E+04  0.22602702935E+04  0.00000000000E+00 0.  1.
         23    2    1    2    0    0  0.16848155133E+03  0.20992849924E+03 -0.22155109351E+04  0.22336295009E+04  0.90310772015E+02 0.  0.
         11    1    3    3    0    0  0.97265519890E+02  0.16133942663E+03 -0.12285524620E+04  0.12429127659E+04  0.00000000000E+00 0.  1.
        -11    1    3    3    0    0  0.71216031438E+02  0.48589072616E+02 -0.98695847317E+03  0.99071673493E+03  0.00000000000E+00 0. -1.
         22    1    1    2    0    0 -0.16848155133E+03 -0.20992849924E+03  0.47169386450E+03  0.54309401556E+03  0.00000000000E+00 0. -1.
<mgrwt>
<rscale>  0 0.21608553E+04</rscale>
<asrwt>0</asrwt>
<pdfrwt beam="1">  1        2 0.34773389E+00 0.21608553E+04</pdfrwt>
<pdfrwt beam="2">  1       -2 0.79454342E-01 0.21608553E+04</pdfrwt>
<totfact> 0.61457749E+00</totfact>
</mgrwt>
</event>
<event>
 6    1  0.1817112E-005  0.1596912E+04  0.7818608E-02  0.8822447E-01
          2   -1    0    0  501    0  0.00000000000E+00  0.00000000000E+00  0.22092087847E+04  0.22092087847E+04  0.00000000000E+00 0.  1.
         -2   -1    0    0    0  501 -0.00000000000E+00 -0.00000000000E+00 -0.28857931538E+03  0.28857931538E+03  0.00000000000E+00 0. -1.
         23    2    1    2    0    0  0.32949650326E+03 -0.41823067913E+02  0.20946567453E+04  0.21228179579E+04  0.91935233275E+02 0.  0.
         13    1    3    3    0    0  0.11617108433E+03  0.16572014625E+02  0.54768177935E+03  0.56011220656E+03  0.00000000000E+00 0. -1.
        -13    1    3    3    0    0  0.21332541892E+03 -0.58395082538E+02  0.15469749660E+04  0.15627057514E+04  0.00000000000E+00 0.  1.
         22    1    1    2    0    0 -0.32949650326E+03  0.41823067913E+02 -0.17402727604E+03  0.37497014211E+03  0.00000000000E+00 0. -1.
<mgrwt>
<rscale>  0 0.15969120E+04</rscale>
<asrwt>0</asrwt>
<pdfrwt beam="1">  1        2 0.33987826E+00 0.15969120E+04</pdfrwt>
<pdfrwt beam="2">  1       -2 0.44396819E-01 0.15969120E+04</pdfrwt>
<totfact> 0.23566318E+01</totfact>
</mgrwt>
</event>
<event>
 6    1  0.1817112E-005  0.3978835E+04  0.7818608E-02  0.8008830E-01
          2   -1    0    0  501    0  0.00000000000E+00  0.00000000000E+00  0.27515220990E+04  0.27515220990E+04  0.00000000000E+00 0. -1.
         -2   -1    0    0    0  501 -0.00000000000E+00 -0.00000000000E+00 -0.14383969716E+04  0.14383969716E+04  0.00000000000E+00 0.  1.
         23    2    1    2    0    0 -0.48551697163E+03 -0.12724733967E+04  0.21824422345E+04  0.25741754313E+04  0.91704792532E+02 0.  0.
         13    1    3    3    0    0 -0.17410133808E+03 -0.47007438514E+03  0.88743032087E+03  0.10192221435E+04  0.00000000000E+00 0. -1.
        -13    1    3    3    0    0 -0.31141563355E+03 -0.80239901159E+03  0.12950119136E+04  0.15549532878E+04  0.00000000000E+00 0.  1.
         22    1    1    2    0    0  0.48551697163E+03  0.12724733967E+04 -0.86931710716E+03  0.16157436393E+04  0.00000000000E+00 0.  1.
<mgrwt>
<rscale>  0 0.39788345E+04</rscale>
<asrwt>0</asrwt>
<pdfrwt beam="1">  1        2 0.42331109E+00 0.39788345E+04</pdfrwt>
<pdfrwt beam="2">  1       -2 0.22129184E+00 0.39788345E+04</pdfrwt>
<totfact> 0.18953765E-01</totfact>
</mgrwt>
</event>
<event>
 6    1  0.1817112E-005  0.4426320E+04  0.7818608E-02  0.7923664E-01
          2   -1    0    0  501    0  0.00000000000E+00  0.00000000000E+00  0.25838916950E+04  0.25838916950E+04  0.00000000000E+00 0. -1.
         -2   -1    0    0    0  501 -0.00000000000E+00 -0.00000000000E+00 -0.18956200246E+04  0.18956200246E+04  0.00000000000E+00 0.  1.
         23    2    1    2    0    0  0.17461927542E+04 -0.10329949230E+04  0.12367505215E+04  0.23778227093E+04  0.90671595832E+02 0.  0.
         13    1    3    3    0    0  0.64533281384E+03 -0.38340777781E+03  0.40666134907E+03  0.85371506812E+03  0.00000000000E+00 0. -1.
        -13    1    3    3    0    0  0.11008599404E+04 -0.64958714522E+03  0.83008917243E+03  0.15241076411E+04  0.00000000000E+00 0.  1.
         22    1    1    2    0    0 -0.17461927542E+04  0.10329949230E+04 -0.54847885117E+03  0.21016890103E+04  0.00000000000E+00 0.  1.
<mgrwt>
<rscale>  0 0.44263198E+04</rscale>
<asrwt>0</asrwt>
<pdfrwt beam="1">  1        2 0.39752180E+00 0.44263198E+04</pdfrwt>
<pdfrwt beam="2">  1       -2 0.29163385E+00 0.44263198E+04</pdfrwt>
<totfact> 0.84769200E-02</totfact>
</mgrwt>
</event>
<event>
 6    1  0.1817112E-005  0.2104465E+04  0.7818608E-02  0.8559279E-01
          1   -1    0    0  501    0  0.00000000000E+00  0.00000000000E+00  0.17410156103E+04  0.17410156103E+04  0.00000000000E+00 0.  1.
         -1   -1    0    0    0  501 -0.00000000000E+00 -0.00000000000E+00 -0.63594685546E+03  0.63594685546E+03  0.00000000000E+00 0. -1.
         23    2    1    2    0    0  0.10616714907E+03  0.10448523049E+04  0.56291477681E+03  0.11950492970E+04  0.91005350785E+02 0.  0.
         11    1    3    3    0    0  0.10817240152E+03  0.69252359202E+03  0.35099041565E+03  0.78389059558E+03  0.00000000000E+00 0.  1.
        -11    1    3    3    0    0 -0.20052524529E+01  0.35232871284E+03  0.21192436117E+03  0.41115870146E+03  0.00000000000E+00 0. -1.
         22    1    1    2    0    0 -0.10616714907E+03 -0.10448523049E+04  0.54215397804E+03  0.11819131687E+04  0.00000000000E+00 0.  1.
<mgrwt>
<rscale>  0 0.21044652E+04</rscale>
<asrwt>0</asrwt>
<pdfrwt beam="1">  1        1 0.26784855E+00 0.21044652E+04</pdfrwt>
<pdfrwt beam="2">  1       -1 0.97837978E-01 0.21044652E+04</pdfrwt>
<totfact> 0.41151980E+00</totfact>
</mgrwt>
</event>
<event>
 6    1  0.1817112E-005  0.3539605E+04  0.7818608E-02  0.8104468E-01
          1   -1    0    0  501    0  0.00000000000E+00  0.00000000000E+00  0.24288698292E+04  0.24288698292E+04  0.00000000000E+00 0. -1.
         -1   -1    0    0    0  501 -0.00000000000E+00 -0.00000000000E+00 -0.12895712623E+04  0.12895712623E+04  0.00000000000E+00 0.  1.
         23    2    1    2    0    0  0.15522677240E+04  0.81883238007E+03  0.33549697262E+03  0.17881254291E+04  0.69374186264E+02 0.  0.
         13    1    3    3    0    0  0.13524778824E+04  0.72616486767E+03  0.27284221001E+03  0.15591519198E+04  0.00000000000E+00 0. -1.
        -13    1    3    3    0    0  0.19978984162E+03  0.92667512402E+02  0.62654762611E+02  0.22897350927E+03  0.00000000000E+00 0.  1.
         22    1    1    2    0    0 -0.15522677240E+04 -0.81883238007E+03  0.80380159431E+03  0.19303156625E+04  0.00000000000E+00 0.  1.
<mgrwt>
<rscale>  0 0.35396049E+04</rscale>
<asrwt>0</asrwt>
<pdfrwt beam="1">  1        1 0.37367228E+00 0.35396049E+04</pdfrwt>
<pdfrwt beam="2">  1       -1 0.19839558E+00 0.35396049E+04</pdfrwt>
<totfact> 0.19049797E-01</totfact>
</mgrwt>
</event>
<event>
 6    1  0.1817112E-005  0.9630113E+03  0.7818608E-02  0.9350070E-01
         -1   -1    0    0    0  501 -0.00000000000E+00  0.00000000000E+00  0.27356811552E+03  0.27356811552E+03  0.00000000000E+00 0.  1.
          1   -1    0    0  501    0  0.00000000000E+00 -0.00000000000E+00 -0.84749531937E+03  0.84749531937E+03  0.00000000000E+00 0. -1.
         23    2    1    2    0    0 -0.38511372081E+03  0.26784228931E+03 -0.39132977098E+03  0.61768098348E+03  0.91316689577E+02 0.  0.
         11    1    3    3    0    0 -0.64461906206E+02  0.44984302592E+02 -0.11503749108E+03  0.13932892444E+03  0.00000000000E+00 0.  1.
        -11    1    3    3    0    0 -0.32065181461E+03  0.22285798672E+03 -0.27629227990E+03  0.47835205904E+03  0.00000000000E+00 0. -1.
         22    1    1    2    0    0  0.38511372081E+03 -0.26784228931E+03 -0.18259743286E+03  0.50338245141E+03  0.00000000000E+00 0.  1.
<mgrwt>
<rscale>  0 0.96301131E+03</rscale>
<asrwt>0</asrwt>
<pdfrwt beam="1">  1        1 0.13038390E+00 0.96301131E+03</pdfrwt>
<pdfrwt beam="2">  1       -1 0.42087402E-01 0.96301131E+03</pdfrwt>
<totfact> 0.11204824E+02</totfact>
</mgrwt>
</event>
<event>
 6    1  0.1817112E-005  0.1874575E+04  0.7818608E-02  0.8667617E-01
         -2   -1    0    0    0  501 -0.00000000000E+00  0.00000000000E+00  0.61434094803E+03  0.61434094803E+03  0.00000000000E+00 0.  1.
          2   -1    0    0  501    0  0.00000000000E+00 -0.00000000000E+00 -0.14300002816E+04  0.14300002816E+04  0.00000000000E+00 0. -1.
         23    2    1    2    0    0  0.29477631179E+03  0.28623669568E+03 -0.13247860633E+04  0.13900977376E+04  0.92136239172E+02 0.  0.
         11    1    3    3    0    0  0.22429253553E+03  0.24307834816E+03 -0.11523842445E+04  0.11989093676E+04  0.00000000000E+00 0. -1.
        -11    1    3    3    0    0  0.70483776262E+02  0.43158347519E+02 -0.17240181883E+03  0.19118836998E+03  0.00000000000E+00 0.  1.
         22    1    1    2    0    0 -0.29477631179E+03 -0.28623669568E+03  0.50912672974E+03  0.65424349204E+03  0.00000000000E+00 0.  1.
<mgrwt>
<rscale>  0 0.18745749E+04</rscale>
<asrwt>0</asrwt>
<pdfrwt beam="1">  1        2 0.22000004E+00 0.18745749E+04</pdfrwt>
<pdfrwt beam="2">  1       -2 0.94513993E-01 0.18745749E+04</pdfrwt>
<totfact> 0.12314742E+01</totfact>
</mgrwt>
</event>
<event>
 6    1  0.1817112E-005  0.7141909E+03  0.7818608E-02  0.9693267E-01
          2   -1    0    0  501    0  0.00000000000E+00  0.00000000000E+00  0.41175372218E+03  0.41175372218E+03  0.00000000000E+00 0. -1.
         -2   -1    0    0    0  501 -0.00000000000E+00 -0.00000000000E+00 -0.30969282410E+03  0.30969282410E+03  0.00000000000E+00 0.  1.
         23    2    1    2    0    0  0.89747559875E+02 -0.26794598928E+01  0.39468336693E+03  0.41535879206E+03  0.93199581542E+02 0.  0.
         11    1    3    3    0    0  0.12120571388E+01 -0.20270961946E+01  0.21532382835E+03  0.21533678101E+03  0.00000000000E+00 0.  1.
        -11    1    3    3    0    0  0.88535502736E+02 -0.65236369820E+00  0.17935953858E+03  0.20002201105E+03  0.00000000000E+00 0. -1.
         22    1    1    2    0    0 -0.89747559875E+02  0.26794598928E+01 -0.29262246885E+03  0.30608775422E+03  0.00000000000E+00 0.  1.
<mgrwt>
<rscale>  0 0.71419094E+03</rscale>
<asrwt>0</asrwt>
<pdfrwt beam="1">  1        2 0.63346726E-01 0.71419094E+03</pdfrwt>
<pdfrwt beam="2">  1       -2 0.47645050E-01 0.71419094E+03</pdfrwt>
<totfact> 0.32407011E+02</totfact>
</mgrwt>
</event>
<event>
 6    1  0.2399381E-005  0.3880610E+04  0.7818608E-02  0.8029074E-01
         -1   -1    0    0    0  501 -0.00000000000E+00  0.00000000000E+00  0.18648438276E+04  0.18648438276E+04  0.00000000000E+00 0.  1.
          1   -1    0    0  501    0  0.00000000000E+00 -0.00000000000E+00 -0.20188201557E+04  0.20188201557E+04  0.00000000000E+00 0. -1.
         23    2    1    2    0    0 -0.14938505616E+04 -0.74895329254E+03 -0.10618330328E+04  0.19818952458E+04  0.88875425475E+02 0.  0.
         11    1    3    3    0    0 -0.95473786058E+03 -0.43385349254E+03 -0.64703519127E+03  0.12322368986E+04  0.00000000000E+00 0.  1.
        -11    1    3    3    0    0 -0.53911270097E+03 -0.31509980000E+03 -0.41479784150E+03  0.74965834726E+03  0.00000000000E+00 0. -1.
         22    1    1    2    0    0  0.14938505616E+04  0.74895329254E+03  0.90785670471E+03  0.19017687375E+04  0.00000000000E+00 0.  1.
<mgrwt>
<rscale>  0 0.38806104E+04</rscale>
<asrwt>0</asrwt>
<pdfrwt beam="1">  1        1 0.31058772E+00 0.38806104E+04</pdfrwt>
<pdfrwt beam="2">  1       -1 0.28689905E+00 0.38806104E+04</pdfrwt>
<totfact> 0.91836159E-02</totfact>
</mgrwt>
</event>
<event>
 6    1  0.1817112E-005  0.3614611E+04  0.7818608E-02  0.8087153E-01
         -2   -1    0    0    0  501 -0.00000000000E+00  0.00000000000E+00  0.14375702452E+04  0.14375702452E+04  0.00000000000E+00 0.  1.
          2   -1    0    0  501    0  0.00000000000E+00 -0.00000000000E+00 -0.22721348621E+04  0.22721348621E+04  0.00000000000E+00 0. -1.
         23    2    1    2    0    0 -0.14658524046E+04 -0.42623407488E+03  0.57306454798E+03  0.16332132040E+04  0.92647908275E+02 0.  0.
         11    1    3    3    0    0 -0.50413300383E+03 -0.12620778308E+03  0.23725496743E+03  0.57128662651E+03  0.00000000000E+00 0.  1.
        -11    1    3    3    0    0 -0.96171940076E+03 -0.30002629180E+03  0.33580958056E+03  0.10619265775E+04  0.00000000000E+00 0. -1.
         22    1    1    2    0    0  0.14658524046E+04  0.42623407488E+03 -0.14076291649E+04  0.20764919033E+04  0.00000000000E+00 0. -1.
<mgrwt>
<rscale>  0 0.36146112E+04</rscale>
<asrwt>0</asrwt>
<pdfrwt beam="1">  1        2 0.34955921E+00 0.36146112E+04</pdfrwt>
<pdfrwt beam="2">  1       -2 0.22116465E+00 0.36146112E+04</pdfrwt>
<totfact> 0.37191804E-01</totfact>
</mgrwt>
</event>
<event>
 6    1  0.1817112E-005  0.1838971E+04  0.7818608E-02  0.8685845E-01
         -2   -1    0    0    0  501 -0.00000000000E+00  0.00000000000E+00  0.38368083426E+03  0.38368083426E+03  0.00000000000E+00 0.  1.
          2   -1    0    0  501    0  0.00000000000E+00 -0.00000000000E+00 -0.22035332256E+04  0.22035332256E+04  0.00000000000E+00 0. -1.
         23    2    1    2    0    0 -0.23013273137E+03  0.33752039859E+03  0.24287470606E+03  0.48442444322E+03  0.93796720842E+02 0.  0.
         11    1    3    3    0    0 -0.99129522944E+02  0.13770776554E+03  0.15510072040E+03  0.22988328447E+03  0.00000000000E+00 0.  1.
        -11    1    3    3    0    0 -0.13100320842E+03  0.19981263305E+03  0.87773985657E+02  0.25454115875E+03  0.00000000000E+00 0. -1.
         22    1    1    2    0    0  0.23013273137E+03 -0.33752039859E+03 -0.20627270974E+04  0.21027896166E+04  0.00000000000E+00 0. -1.
<mgrwt>
<rscale>  0 0.18389709E+04</rscale>
<asrwt>0</asrwt>
<pdfrwt beam="1">  1        2 0.33900511E+00 0.18389709E+04</pdfrwt>
<pdfrwt beam="2">  1       -2 0.59027822E-01 0.18389709E+04</pdfrwt>
<totfact> 0.12972208E+01</totfact>
</mgrwt>
</event>
<event>
 6    1  0.1817112E-005  0.2775666E+04  0.7818608E-02  0.8310863E-01
         -2   -1    0    0    0  501 -0.00000000000E+00  0.00000000000E+00  0.14240303095E+04  0.14240303095E+04  0.00000000000E+00 0.  1.
          2   -1    0    0  501    0  0.00000000000E+00 -0.00000000000E+00 -0.13525559329E+04  0.13525559329E+04  0.00000000000E+00 0. -1.
         23    2    1    2    0    0  0.98935174127E+03 -0.82468243962E+03  0.54864873106E+03  0.14030457957E+04  0.92758183531E+02 0.  0.
         11    1    3    3    0    0  0.76953401890E+03 -0.58984138534E+03  0.40551712257E+03  0.10509707907E+04  0.00000000000E+00 0. -1.
        -11    1    3    3    0    0  0.21981772237E+03 -0.23484105428E+03  0.14313160849E+03  0.35207500507E+03  0.00000000000E+00 0.  1.
         22    1    1    2    0    0 -0.98935174127E+03  0.82468243962E+03 -0.47717435437E+03  0.13735404467E+04  0.00000000000E+00 0. -1.
<mgrwt>
<rscale>  0 0.27756661E+04</rscale>
<asrwt>0</asrwt>
<pdfrwt beam="1">  1        2 0.20808553E+00 0.27756661E+04</pdfrwt>
<pdfrwt beam="2">  1       -2 0.21908158E+00 0.27756661E+04</pdfrwt>
<totfact> 0.13458734E+00</totfact>
</mgrwt>
</event>
<event>
 6    1  0.1817112E-005  0.3532947E+04  0.7818608E-02  0.8106026E-01
         -2   -1    0    0    0  501 -0.00000000000E+00  0.00000000000E+00  0.19320517015E+04  0.19320517015E+04  0.00000000000E+00 0.  1.
          2   -1    0    0  501    0  0.00000000000E+00 -0.00000000000E+00 -0.16150852416E+04  0.16150852416E+04  0.00000000000E+00 0. -1.
         23    2    1    2    0    0  0.31551555941E+03  0.40273244158E+03  0.18549831280E+04  0.19262610197E+04  0.88179493286E+02 0.  0.
         13    1    3    3    0    0  0.46547651721E+02  0.73563373983E+02  0.45151223813E+03  0.45982774498E+03  0.00000000000E+00 0. -1.
        -13    1    3    3    0    0  0.26896790769E+03  0.32916906759E+03  0.14034708899E+04  0.14664332747E+04  0.00000000000E+00 0.  1.
         22    1    1    2    0    0 -0.31551555941E+03 -0.40273244158E+03 -0.15380166681E+04  0.16208759234E+04  0.00000000000E+00 0. -1.
<mgrwt>
<rscale>  0 0.35329468E+04</rscale>
<asrwt>0</asrwt>
<pdfrwt beam="1">  1        2 0.24847465E+00 0.35329468E+04</pdfrwt>
<pdfrwt beam="2">  1       -2 0.29723872E+00 0.35329468E+04</pdfrwt>
<totfact> 0.29616213E-01</totfact>
</mgrwt>
</event>
<event>
 6    1  0.1817112E-005  0.1311437E+04  0.7818608E-02  0.9020545E-01
          2   -1    0    0  501    0  0.00000000000E+00  0.00000000000E+00  0.23466801518E+04  0.23466801518E+04  0.00000000000E+00 0. -1.
         -2   -1    0    0    0  501 -0.00000000000E+00 -0.00000000000E+00 -0.18322334164E+03  0.18322334164E+03  0.00000000000E+00 0.  1.
         23    2    1    2    0    0  0.24420244535E+03  0.50812717472E+03  0.17207732480E+04  0.18131072907E+04  0.92029434302E+02 0.  0.
         13    1    3    3    0    0  0.15290592333E+03  0.21743424492E+03  0.84719587470E+03  0.88791819576E+03  0.00000000000E+00 0.  1.
        -13    1    3    3    0    0  0.91296522025E+02  0.29069292980E+03  0.87357737325E+03  0.92518909496E+03  0.00000000000E+00 0. -1.
         22    1    1    2    0    0 -0.24420244535E+03 -0.50812717472E+03  0.44268356224E+03  0.71679620275E+03  0.00000000000E+00 0.  1.
<mgrwt>
<rscale>  0 0.13114367E+04</rscale>
<asrwt>0</asrwt>
<pdfrwt beam="1">  1        2 0.36102769E+00 0.13114367E+04</pdfrwt>
<pdfrwt beam="2">  1       -2 0.28188208E-01 0.13114367E+04</pdfrwt>
<totfact> 0.48243401E+01</totfact>
</mgrwt>
</event>
<event>
 6    1  0.1817112E-005  0.1993467E+04  0.7818608E-02  0.8609681E-01
          2   -1    0    0  501    0  0.00000000000E+00  0.00000000000E+00  0.25308235125E+04  0.25308235125E+04  0.00000000000E+00 0. -1.
         -2   -1    0    0    0  501 -0.00000000000E+00 -0.00000000000E+00 -0.39255117608E+03  0.39255117608E+03  0.00000000000E+00 0.  1.
         23    2    1    2    0    0  0.87788727217E+03 -0.43041736231E+02  0.38794268591E+03  0.96475462865E+03  0.87825464817E+02 0.  0.
         11    1    3    3    0    0  0.66205619467E+03 -0.69581356220E+02  0.28448868078E+03  0.72394321568E+03  0.00000000000E+00 0. -1.
        -11    1    3    3    0    0  0.21583107750E+03  0.26539619989E+02  0.10345400513E+03  0.24081141298E+03  0.00000000000E+00 0.  1.
         22    1    1    2    0    0 -0.87788727217E+03  0.43041736231E+02  0.17503296505E+04  0.19586200599E+04  0.00000000000E+00 0. -1.
<mgrwt>
<rscale>  0 0.19934671E+04</rscale>
<asrwt>0</asrwt>
<pdfrwt beam="1">  1        2 0.38935745E+00 0.19934671E+04</pdfrwt>
<pdfrwt beam="2">  1       -2 0.60392490E-01 0.19934671E+04</pdfrwt>
<totfact> 0.79368595E+00</totfact>
</mgrwt>
</event>
<event>
 6    1  0.1817112E-005  0.4580950E+04  0.7818608E-02  0.7896616E-01
          2   -1    0    0  501    0  0.00000000000E+00  0.00000000000E+00  0.25322065770E+04  0.25322065770E+04  0.00000000000E+00 0. -1.
         -2   -1    0    0    0  501 -0.00000000000E+00 -0.00000000000E+00 -0.20718193568E+04  0.20718193568E+04  0.00000000000E+00 0.  1.
         23    2    1    2    0    0  0.46576484151E+03 -0.54259792248E+03  0.24162290481E+04  0.25215594517E+04  0.93540700611E+02 0.  0.
         13    1    3    3    0    0  0.28707232969E+03 -0.33837513912E+03  0.13359187620E+04  0.14076886005E+04  0.00000000000E+00 0.  1.
        -13    1    3    3    0    0  0.17869251183E+03 -0.20422278336E+03  0.10803102861E+04  0.11138708512E+04  0.00000000000E+00 0. -1.
         22    1    1    2    0    0 -0.46576484151E+03  0.54259792248E+03 -0.19558418279E+04  0.20824664820E+04  0.00000000000E+00 0.  1.
<mgrwt>
<rscale>  0 0.45809495E+04</rscale>
<asrwt>0</asrwt>
<pdfrwt beam="1">  1        2 0.38957024E+00 0.45809495E+04</pdfrwt>
<pdfrwt beam="2">  1       -2 0.31874144E+00 0.45809495E+04</pdfrwt>
<totfact> 0.61183266E-02</totfact>
</mgrwt>
</event>
<event>
 6    1  0.1817112E-005  0.2042901E+04  0.7818608E-02  0.8586822E-01
         -2   -1    0    0    0  501 -0.00000000000E+00  0.00000000000E+00  0.57473220180E+03  0.57473220180E+03  0.00000000000E+00 0. -1.
          2   -1    0    0  501    0  0.00000000000E+00 -0.00000000000E+00 -0.18153861752E+04  0.18153861752E+04  0.00000000000E+00 0.  1.
         23    2    1    2    0    0  0.99800746964E+03  0.20557076128E+03 -0.63529464557E+03  0.12049018722E+04  0.99553943605E+02 0.  0.
         13    1    3    3    0    0  0.33943734792E+03  0.31606258999E+02 -0.17909023323E+03  0.38508438090E+03  0.00000000000E+00 0. -1.
        -13    1    3    3    0    0  0.65857012171E+03  0.17396450228E+03 -0.45620441234E+03  0.81981749134E+03  0.00000000000E+00 0.  1.
         22    1    1    2    0    0 -0.99800746964E+03 -0.20557076128E+03 -0.60535932782E+03  0.11852165047E+04  0.00000000000E+00 0.  1.
<mgrwt>
<rscale>  0 0.20429008E+04</rscale>
<asrwt>0</asrwt>
<pdfrwt beam="1">  1        2 0.27929018E+00 0.20429008E+04</pdfrwt>
<pdfrwt beam="2">  1       -2 0.88420340E-01 0.20429008E+04</pdfrwt>
<totfact> 0.86227499E+00</totfact>
</mgrwt>
</event>
<event>
 6    1  0.1817112E-005  0.2153764E+04  0.7818608E-02  0.8537923E-01
          1   -1    0    0  501    0  0.00000000000E+00  0.00000000000E+00  0.11490485185E+04  0.11490485185E+04  0.00000000000E+00 0. -1.
         -1   -1    0    0    0  501 -0.00000000000E+00 -0.00000000000E+00 -0.10092475062E+04  0.10092475062E+04  0.00000000000E+00 0.  1.
         23    2    1    2    0    0  0.90574922448E+03 -0.55908044624E+03 -0.78984405616E+02  0.10716407611E+04  0.96035313748E+02 0.  0.
         13    1    3    3    0    0  0.21313561526E+02 -0.34001787977E+02 -0.46684091636E+01  0.40400291270E+02  0.00000000000E+00 0.  1.
        -13    1    3    3    0    0  0.88443566295E+03 -0.52507865826E+03 -0.74315996453E+02  0.10312404698E+04  0.00000000000E+00 0. -1.
         22    1    1    2    0    0 -0.90574922448E+03  0.55908044624E+03  0.21878541791E+03  0.10866552637E+04  0.00000000000E+00 0. -1.
<mgrwt>
<rscale>  0 0.21537635E+04</rscale>
<asrwt>0</asrwt>
<pdfrwt beam="1">  1        1 0.17677670E+00 0.21537635E+04</pdfrwt>
<pdfrwt beam="2">  1       -1 0.15526885E+00 0.21537635E+04</pdfrwt>
<totfact> 0.33877490E+00</totfact>
</mgrwt>
</event>
<event>
 6    1  0.1817112E-005  0.2691439E+04  0.7818608E-02  0.8337788E-01
          1   -1    0    0  501    0  0.00000000000E+00  0.00000000000E+00  0.14250785408E+04  0.14250785408E+04  0.00000000000E+00 0. -1.
         -1   -1    0    0    0  501 -0.00000000000E+00 -0.00000000000E+00 -0.12707794074E+04  0.12707794074E+04  0.00000000000E+00 0.  1.
         23    2    1    2    0    0  0.10277182061E+04 -0.81026106324E+03  0.38435162725E+03  0.13670796177E+04  0.91939143378E+02 0.  0.
         13    1    3    3    0    0  0.56113747409E+03 -0.49604215781E+03  0.20154133519E+03  0.77559783196E+03  0.00000000000E+00 0.  1.
        -13    1    3    3    0    0  0.46658073197E+03 -0.31421890543E+03  0.18281029206E+03  0.59148178574E+03  0.00000000000E+00 0. -1.
         22    1    1    2    0    0 -0.10277182061E+04  0.81026106324E+03 -0.23005249393E+03  0.13287783305E+04  0.00000000000E+00 0.  1.
<mgrwt>
<rscale>  0 0.26914386E+04</rscale>
<asrwt>0</asrwt>
<pdfrwt beam="1">  1        1 0.21924285E+00 0.26914386E+04</pdfrwt>
<pdfrwt beam="2">  1       -1 0.19550453E+00 0.26914386E+04</pdfrwt>
<totfact> 0.10424892E+00</totfact>
</mgrwt>
</event>
<event>
 6    1  0.1817112E-005  0.4471419E+04  0.7818608E-02  0.7915660E-01
          2   -1    0    0  501    0  0.00000000000E+00  0.00000000000E+00  0.25798273199E+04  0.25798273199E+04  0.00000000000E+00 0. -1.
         -2   -1    0    0    0  501 -0.00000000000E+00 -0.00000000000E+00 -0.19374927623E+04  0.19374927623E+04  0.00000000000E+00 0.  1.
         23    2    1    2    0    0 -0.24897647059E+03 -0.11268810032E+04  0.22545518447E+04  0.25346212500E+04  0.97215131967E+02 0.  0.
         13    1    3    3    0    0 -0.51948646218E+02 -0.39478169173E+03  0.71010332770E+03  0.81412405810E+03  0.00000000000E+00 0.  1.
        -13    1    3    3    0    0 -0.19702782437E+03 -0.73209931150E+03  0.15444485170E+04  0.17204971919E+04  0.00000000000E+00 0. -1.
         22    1    1    2    0    0  0.24897647059E+03  0.11268810032E+04 -0.16122172871E+04  0.19826988322E+04  0.00000000000E+00 0.  1.
<mgrwt>
<rscale>  0 0.44714189E+04</rscale>
<asrwt>0</asrwt>
<pdfrwt beam="1">  1        2 0.39689651E+00 0.44714189E+04</pdfrwt>
<pdfrwt beam="2">  1       -2 0.29807581E+00 0.44714189E+04</pdfrwt>
<totfact> 0.77561803E-02</totfact>
</mgrwt>
</event>
<event>
 6    1  0.1817112E-005  0.1624099E+04  0.7818608E-02  0.8805879E-01
         -2   -1    0    0    0  501 -0.00000000000E+00  0.00000000000E+00  0.65917219023E+03  0.65917219023E+03  0.00000000000E+00 0.  1.
          2   -1    0    0  501    0  0.00000000000E+00 -0.00000000000E+00 -0.10003821156E+04  0.10003821156E+04  0.00000000000E+00 0. -1.
         23    2    1    2    0    0 -0.77927018328E+03  0.40167773375E+00  0.52601893462E+02  0.78642778087E+03  0.91866835338E+02 0.  0.
         13    1    3    3    0    0 -0.60139020686E+03 -0.28678253212E+02  0.66048528172E+02  0.60568558774E+03  0.00000000000E+00 0. -1.
        -13    1    3    3    0    0 -0.17787997642E+03  0.29079930946E+02 -0.13446634710E+02  0.18074219314E+03  0.00000000000E+00 0.  1.
         22    1    1    2    0    0  0.77927018328E+03 -0.40167773375E+00 -0.39381181879E+03  0.87312652492E+03  0.00000000000E+00 0.  1.
<mgrwt>
<rscale>  0 0.16240986E+04</rscale>
<asrwt>0</asrwt>
<pdfrwt beam="1">  1        2 0.15390494E+00 0.16240986E+04</pdfrwt>
<pdfrwt beam="2">  1       -2 0.10141111E+00 0.16240986E+04</pdfrwt>
<totfact> 0.19253890E+01</totfact>
</mgrwt>
</event>
<event>
 6    1  0.1817112E-005  0.1966257E+04  0.7818608E-02  0.8622561E-01
          2   -1    0    0  501    0  0.00000000000E+00  0.00000000000E+00  0.23428576596E+04  0.23428576596E+04  0.00000000000E+00 0. -1.
         -2   -1    0    0    0  501 -0.00000000000E+00 -0.00000000000E+00 -0.41254806959E+03  0.41254806959E+03  0.00000000000E+00 0.  1.
         23    2    1    2    0    0  0.28306417098E+03 -0.67635114670E+03  0.18805628378E+04  0.20205241483E+04  0.91788063129E+02 0.  0.
         11    1    3    3    0    0  0.12472785681E+03 -0.18925149520E+03  0.56373975210E+03  0.60759828407E+03  0.00000000000E+00 0. -1.
        -11    1    3    3    0    0  0.15833631417E+03 -0.48709965150E+03  0.13168230857E+04  0.14129258643E+04  0.00000000000E+00 0.  1.
         22    1    1    2    0    0 -0.28306417098E+03  0.67635114670E+03  0.49746752213E+02  0.73488158087E+03  0.00000000000E+00 0.  1.
<mgrwt>
<rscale>  0 0.19662568E+04</rscale>
<asrwt>0</asrwt>
<pdfrwt beam="1">  1        2 0.36043963E+00 0.19662568E+04</pdfrwt>
<pdfrwt beam="2">  1       -2 0.63468935E-01 0.19662568E+04</pdfrwt>
<totfact> 0.91774515E+00</totfact>
</mgrwt>
</event>
<event>
 6    1  0.1817112E-005  0.3668219E+04  0.7818608E-02  0.8075042E-01
          2   -1    0    0  501    0  0.00000000000E+00  0.00000000000E+00  0.27134356750E+04  0.27134356750E+04  0.00000000000E+00 0. -1.
         -2   -1    0    0    0  501 -0.00000000000E+00 -0.00000000000E+00 -0.12397410486E+04  0.12397410486E+04  0.00000000000E+00 0.  1.
         23    2    1    2    0    0  0.18014961632E+04 -0.26504588668E+03  0.96398748412E+03  0.20622935651E+04  0.90250378532E+02 0.  0.
         13    1    3    3    0    0  0.11566369255E+03 -0.25282196712E+02  0.87040337617E+02  0.14694658764E+03  0.00000000000E+00 0.  1.
        -13    1    3    3    0    0  0.16858324707E+04 -0.23976368997E+03  0.87694714650E+03  0.19153469774E+04  0.00000000000E+00 0. -1.
         22    1    1    2    0    0 -0.18014961632E+04  0.26504588668E+03  0.50970714232E+03  0.18908831585E+04  0.00000000000E+00 0.  1.
<mgrwt>
<rscale>  0 0.36682190E+04</rscale>
<asrwt>0</asrwt>
<pdfrwt beam="1">  1        2 0.41745164E+00 0.36682190E+04</pdfrwt>
<pdfrwt beam="2">  1       -2 0.19072939E+00 0.36682190E+04</pdfrwt>
<totfact> 0.32374876E-01</totfact>
</mgrwt>
</event>
<event>
 6    1  0.1817112E-005  0.1663901E+04  0.7818608E-02  0.8782225E-01
         -2   -1    0    0    0  501 -0.00000000000E+00  0.00000000000E+00  0.23876394772E+03  0.23876394772E+03  0.00000000000E+00 0.  1.
          2   -1    0    0  501    0  0.00000000000E+00 -0.00000000000E+00 -0.28988517782E+04  0.28988517782E+04  0.00000000000E+00 0. -1.
         23    2    1    2    0    0  0.70800514484E+03  0.43104543703E+03 -0.12637483550E+04  0.15137821800E+04  0.86053064780E+02 0.  0.
         11    1    3    3    0    0  0.45760700376E+03  0.32080039973E+03 -0.88108752670E+03  0.10433754339E+04  0.00000000000E+00 0.  1.
        -11    1    3    3    0    0  0.25039814108E+03  0.11024503730E+03 -0.38266082826E+03  0.47040674612E+03  0.00000000000E+00 0. -1.
         22    1    1    2    0    0 -0.70800514484E+03 -0.43104543703E+03 -0.13963394756E+04  0.16238335459E+04  0.00000000000E+00 0. -1.
<mgrwt>
<rscale>  0 0.16639006E+04</rscale>
<asrwt>0</asrwt>
<pdfrwt beam="1">  1        2 0.44597721E+00 0.16639006E+04</pdfrwt>
<pdfrwt beam="2">  1       -2 0.36732914E-01 0.16639006E+04</pdfrwt>
<totfact> 0.13463756E+01</totfact>
</mgrwt>
</event>
<event>
 6    1  0.1817112E-005  0.3075342E+03  0.7818608E-02  0.1081534E+00
         -4   -1    0    0    0  501 -0.00000000000E+00  0.00000000000E+00  0.48076155472E+02  0.48076155472E+02  0.00000000000E+00 0.  1.
          4   -1    0    0  501    0  0.00000000000E+00 -0.00000000000E+00 -0.49180958643E+03  0.49180958643E+03  0.00000000000E+00 0. -1.
         23    2    1    2    0    0 -0.96783821876E+02  0.19271648572E+02 -0.41658943800E+03  0.43753682413E+03  0.90295116147E+02 0.  0.
         11    1    3    3    0    0 -0.82470655043E+02 -0.19689893881E+02 -0.34011273098E+03  0.35052214002E+03  0.00000000000E+00 0. -1.
        -11    1    3    3    0    0 -0.14313166833E+02  0.38961542453E+02 -0.76476707013E+02  0.87014684109E+02  0.00000000000E+00 0.  1.
         22    1    1    2    0    0  0.96783821876E+02 -0.19271648572E+02 -0.27143992957E+02  0.10234891777E+03  0.00000000000E+00 0.  1.
<mgrwt>
<rscale>  0 0.30753416E+03</rscale>
<asrwt>0</asrwt>
<pdfrwt beam="1">  1        4 0.75663012E-01 0.30753416E+03</pdfrwt>
<pdfrwt beam="2">  1       -4 0.73963318E-02 0.30753416E+03</pdfrwt>
<totfact> 0.38357836E+02</totfact>
</mgrwt>
</event>
<event>
 6    1  0.1928842E-005  0.1595900E+04  0.7818608E-02  0.8823071E-01
         -2   -1    0    0    0  501 -0.00000000000E+00  0.00000000000E+00  0.53278993637E+03  0.53278993637E+03  0.00000000000E+00 0.  1.
          2   -1    0    0  501    0  0.00000000000E+00 -0.00000000000E+00 -0.11950753602E+04  0.11950753602E+04  0.00000000000E+00 0. -1.
         23    2    1    2    0    0 -0.16356560581E+03 -0.32668061079E+03 -0.10972213851E+04  0.11598483784E+04  0.88766908367E+02 0.  0.
         11    1    3    3    0    0 -0.11879623819E+03 -0.16379991371E+03 -0.50567222775E+03  0.54465343096E+03  0.00000000000E+00 0.  1.
        -11    1    3    3    0    0 -0.44769367622E+02 -0.16288069708E+03 -0.59154915737E+03  0.61519494743E+03  0.00000000000E+00 0. -1.
         22    1    1    2    0    0  0.16356560581E+03  0.32668061079E+03  0.43493596131E+03  0.56801691816E+03  0.00000000000E+00 0.  1.
<mgrwt>
<rscale>  0 0.15958999E+04</rscale>
<asrwt>0</asrwt>
<pdfrwt beam="1">  1        2 0.18385775E+00 0.15958999E+04</pdfrwt>
<pdfrwt beam="2">  1       -2 0.81967682E-01 0.15958999E+04</pdfrwt>
<totfact> 0.23939551E+01</totfact>
</mgrwt>
</event>
<event>
 6    1  0.1996732E-005  0.4225290E+04  0.7818608E-02  0.7960579E-01
          2   -1    0    0  501    0  0.00000000000E+00  0.00000000000E+00  0.32826962093E+04  0.32826962093E+04  0.00000000000E+00 0.  1.
         -2   -1    0    0    0  501 -0.00000000000E+00 -0.00000000000E+00 -0.13596348971E+04  0.13596348971E+04  0.00000000000E+00 0. -1.
         23    2    1    2    0    0  0.25052353604E+03  0.90096505415E+03 -0.11180024049E+04  0.14607326712E+04  0.96490872356E+02 0.  0.
         11    1    3    3    0    0  0.12027904304E+03  0.29834758720E+03 -0.42809995912E+03  0.53548847419E+03  0.00000000000E+00 0.  1.
        -11    1    3    3    0    0  0.13024449300E+03  0.60261746695E+03 -0.68990244582E+03  0.92524419705E+03  0.00000000000E+00 0. -1.
         22    1    1    2    0    0 -0.25052353604E+03 -0.90096505415E+03  0.30410637171E+04  0.31815984352E+04  0.00000000000E+00 0.  1.
<mgrwt>
<rscale>  0 0.42252897E+04</rscale>
<asrwt>0</asrwt>
<pdfrwt beam="1">  1        2 0.50503019E+00 0.42252897E+04</pdfrwt>
<pdfrwt beam="2">  1       -2 0.20917460E+00 0.42252897E+04</pdfrwt>
<totfact> 0.10259331E-01</totfact>
</mgrwt>
</event>
<event>
 6    1  0.1817112E-005  0.3926209E+04  0.7818608E-02  0.8019600E-01
          1   -1    0    0  501    0  0.00000000000E+00  0.00000000000E+00  0.31443792144E+04  0.31443792144E+04  0.00000000000E+00 0. -1.
         -1   -1    0    0    0  501 -0.00000000000E+00 -0.00000000000E+00 -0.12256087185E+04  0.12256087185E+04  0.00000000000E+00 0.  1.
         23    2    1    2    0    0 -0.11352294914E+04  0.12593940513E+04 -0.13912621226E+03  0.17035749424E+04  0.89398584707E+02 0.  0.
         11    1    3    3    0    0 -0.15533465265E+03  0.15643359002E+03  0.10043129296E+02  0.22068345395E+03  0.00000000000E+00 0. -1.
        -11    1    3    3    0    0 -0.97989483878E+03  0.11029604612E+04 -0.14916934156E+03  0.14828914885E+04  0.00000000000E+00 0.  1.
         22    1    1    2    0    0  0.11352294914E+04 -0.12593940513E+04  0.20578967081E+04  0.26664129905E+04  0.00000000000E+00 0. -1.
<mgrwt>
<rscale>  0 0.39262086E+04</rscale>
<asrwt>0</asrwt>
<pdfrwt beam="1">  1        1 0.48375065E+00 0.39262086E+04</pdfrwt>
<pdfrwt beam="2">  1       -1 0.18855519E+00 0.39262086E+04</pdfrwt>
<totfact> 0.66571249E-02</totfact>
</mgrwt>
</event>
<event>
 6    1  0.1817112E-005  0.2685010E+04  0.7818608E-02  0.8339885E-01
         -2   -1    0    0    0  501 -0.00000000000E+00  0.00000000000E+00  0.91353561019E+03  0.91353561019E+03  0.00000000000E+00 0.  1.
          2   -1    0    0  501    0  0.00000000000E+00 -0.00000000000E+00 -0.19729054275E+04  0.19729054275E+04  0.00000000000E+00 0. -1.
         23    2    1    2    0    0 -0.10800694476E+04 -0.79237742954E+03 -0.46332994052E+03  0.14202638529E+04  0.89792958637E+02 0.  0.
         11    1    3    3    0    0 -0.53039174385E+03 -0.42800093376E+03 -0.20148198195E+03  0.71070049268E+03  0.00000000000E+00 0. -1.
        -11    1    3    3    0    0 -0.54967770377E+03 -0.36437649578E+03 -0.26184795857E+03  0.70956336018E+03  0.00000000000E+00 0.  1.
         22    1    1    2    0    0  0.10800694476E+04  0.79237742954E+03 -0.59603987675E+03  0.14661771848E+04  0.00000000000E+00 0. -1.
<mgrwt>
<rscale>  0 0.26850098E+04</rscale>
<asrwt>0</asrwt>
<pdfrwt beam="1">  1        2 0.30352391E+00 0.26850098E+04</pdfrwt>
<pdfrwt beam="2">  1       -2 0.14054394E+00 0.26850098E+04</pdfrwt>
<totfact> 0.21604478E+00</totfact>
</mgrwt>
</event>
<event>
 6    1  0.1817112E-005  0.3440852E+04  0.7818608E-02  0.8127952E-01
         -2   -1    0    0    0  501 -0.00000000000E+00  0.00000000000E+00  0.69457300524E+03  0.69457300524E+03  0.00000000000E+00 0.  1.
          2   -1    0    0  501    0  0.00000000000E+00 -0.00000000000E+00 -0.42614167791E+04  0.42614167791E+04  0.00000000000E+00 0. -1.
         23    2    1    2    0    0  0.89583730501E+03  0.10434684445E+04 -0.29871447388E+03  0.14102853419E+04  0.91233420715E+02 0.  0.
         11    1    3    3    0    0  0.67888006286E+03  0.72817307926E+03 -0.21330722985E+03  0.10181424986E+04  0.00000000000E+00 0. -1.
        -11    1    3    3    0    0  0.21695724215E+03  0.31529536521E+03 -0.85407244033E+02  0.39214284333E+03  0.00000000000E+00 0.  1.
         22    1    1    2    0    0 -0.89583730501E+03 -0.10434684445E+04 -0.32681292999E+04  0.35457044424E+04  0.00000000000E+00 0. -1.
<mgrwt>
<rscale>  0 0.34408517E+04</rscale>
<asrwt>0</asrwt>
<pdfrwt beam="1">  1        2 0.65560259E+00 0.34408517E+04</pdfrwt>
<pdfrwt beam="2">  1       -2 0.10685738E+00 0.34408517E+04</pdfrwt>
<totfact> 0.11909565E-01</totfact>
</mgrwt>
</event>
<event>
 6    1  0.1817112E-005  0.4200458E+04  0.7818608E-02  0.7965285E-01
          2   -1    0    0  501    0  0.00000000000E+00  0.00000000000E+00  0.12969702795E+04  0.12969702795E+04  0.00000000000E+00 0.  1.
         -2   -1    0    0    0  501 -0.00000000000E+00 -0.00000000000E+00 -0.34009732532E+04  0.34009732532E+04  0.00000000000E+00 0. -1.
         23    2    1    2    0    0 -0.15539671842E+04  0.93338968012E+03 -0.22365509727E+04  0.28803629220E+04  0.91104359424E+02 0.  0.
         13    1    3    3    0    0 -0.76510703618E+03  0.41095435785E+03 -0.10413792671E+04  0.13560025955E+04  0.00000000000E+00 0.  1.
        -13    1    3    3    0    0 -0.78886014800E+03  0.52243532227E+03 -0.11951717056E+04  0.15243603264E+04  0.00000000000E+00 0. -1.
         22    1    1    2    0    0  0.15539671842E+04 -0.93338968012E+03  0.13254799893E+03  0.18175806107E+04  0.00000000000E+00 0.  1.
<mgrwt>
<rscale>  0 0.42004577E+04</rscale>
<asrwt>0</asrwt>
<pdfrwt beam="1">  1        2 0.19953389E+00 0.42004577E+04</pdfrwt>
<pdfrwt beam="2">  1       -2 0.52322665E+00 0.42004577E+04</pdfrwt>
<totfact> 0.15459919E-02</totfact>
</mgrwt>
</event>
<event>
 6    1  0.1817112E-005  0.4583743E+04  0.7818608E-02  0.7896138E-01
         -1   -1    0    0    0  501 -0.00000000000E+00  0.00000000000E+00  0.25101453423E+04  0.25101453423E+04  0.00000000000E+00 0.  1.
          1   -1    0    0  501    0  0.00000000000E+00 -0.00000000000E+00 -0.20925781553E+04  0.20925781553E+04  0.00000000000E+00 0. -1.
         23    2    1    2    0    0  0.64469175133E+03  0.19419692008E+04 -0.82576848658E+03  0.22084061778E+04  0.91062735690E+02 0.  0.
         13    1    3    3    0    0  0.35463757582E+03  0.11575315820E+04 -0.52583654523E+03  0.13199057715E+04  0.00000000000E+00 0. -1.
        -13    1    3    3    0    0  0.29005417551E+03  0.78443761881E+03 -0.29993194135E+03  0.88850040629E+03  0.00000000000E+00 0.  1.
         22    1    1    2    0    0 -0.64469175133E+03 -0.19419692008E+04  0.12433356736E+04  0.23943173199E+04  0.00000000000E+00 0.  1.
<mgrwt>
<rscale>  0 0.45837431E+04</rscale>
<asrwt>0</asrwt>
<pdfrwt beam="1">  1        1 0.32193510E+00 0.45837431E+04</pdfrwt>
<pdfrwt beam="2">  1       -1 0.38617621E+00 0.45837431E+04</pdfrwt>
<totfact> 0.17096596E-02</totfact>
</mgrwt>
</event>
<event>
 6    1  0.1817112E-005  0.2131126E+04  0.7818608E-02  0.8547655E-01
         -2   -1    0    0    0  501 -0.00000000000E+00  0.00000000000E+00  0.61840519717E+03  0.61840519717E+03  0.00000000000E+00 0.  1.
          2   -1    0    0  501    0  0.00000000000E+00 -0.00000000000E+00 -0.18360524576E+04  0.18360524576E+04  0.00000000000E+00 0. -1.
         23    2    1    2    0    0  0.28729808566E+03 -0.63191832493E+03 -0.15380003247E+04  0.16899401302E+04  0.92691345287E+02 0.  0.
         13    1    3    3    0    0  0.88363534775E+02 -0.23580327549E+03 -0.46107181182E+03  0.52535560781E+03  0.00000000000E+00 0.  1.
        -13    1    3    3    0    0  0.19893455089E+03 -0.39611504944E+03 -0.10769285129E+04  0.11645845224E+04  0.00000000000E+00 0. -1.
         22    1    1    2    0    0 -0.28729808566E+03  0.63191832493E+03  0.32035306436E+03  0.76451752449E+03  0.00000000000E+00 0.  1.
<mgrwt>
<rscale>  0 0.21311259E+04</rscale>
<asrwt>0</asrwt>
<pdfrwt beam="1">  1        2 0.28246960E+00 0.21311259E+04</pdfrwt>
<pdfrwt beam="2">  1       -2 0.95139263E-01 0.21311259E+04</pdfrwt>
<totfact> 0.70351259E+00</totfact>
</mgrwt>
</event>
<event>
 6    1  0.1817112E-005  0.1869155E+04  0.7818608E-02  0.8670364E-01
          1   -1    0    0  501    0  0.00000000000E+00  0.00000000000E+00  0.22090677318E+04  0.22090677318E+04  0.00000000000E+00 0. -1.
         -1   -1    0    0    0  501 -0.00000000000E+00 -0.00000000000E+00 -0.39538609915E+03  0.39538609915E+03  0.00000000000E+00 0.  1.
         23    2    1    2    0    0  0.78906730093E+03 -0.37586533848E+03  0.45684901758E+03  0.99048459228E+03  0.91906172884E+02 0.  0.
         11    1    3    3    0    0  0.68888104253E+03 -0.30258119177E+03  0.41633870518E+03  0.85991301060E+03  0.00000000000E+00 0. -1.
        -11    1    3    3    0    0  0.10018625840E+03 -0.73284146717E+02  0.40510312401E+02  0.13057158168E+03  0.00000000000E+00 0.  1.
         22    1    1    2    0    0 -0.78906730093E+03  0.37586533848E+03  0.13568326151E+04  0.16139692387E+04  0.00000000000E+00 0. -1.
<mgrwt>
<rscale>  0 0.18691545E+04</rscale>
<asrwt>0</asrwt>
<pdfrwt beam="1">  1        1 0.33985657E+00 0.18691545E+04</pdfrwt>
<pdfrwt beam="2">  1       -1 0.60828632E-01 0.18691545E+04</pdfrwt>
<totfact> 0.55235064E+00</totfact>
</mgrwt>
</event>
<event>
 6    1  0.1817112E-005  0.2361009E+04  0.7818608E-02  0.8454247E-01
          1   -1    0    0  501    0  0.00000000000E+00  0.00000000000E+00  0.13809900133E+04  0.13809900133E+04  0.00000000000E+00 0. -1.
         -1   -1    0    0    0  501 -0.00000000000E+00 -0.00000000000E+00 -0.10091241547E+04  0.10091241547E+04  0.00000000000E+00 0.  1.
         23    2    1    2    0    0 -0.42931151301E+03  0.93655632040E+03 -0.39327164562E+03  0.11068053521E+04  0.94389531257E+02 0.  0.
         11    1    3    3    0    0 -0.47452732793E+02  0.48248277746E+02 -0.25418729010E+02  0.72289487060E+02  0.00000000000E+00 0.  1.
        -11    1    3    3    0    0 -0.38185878022E+03  0.88830804266E+03 -0.36785291661E+03  0.10345158650E+04  0.00000000000E+00 0. -1.
         22    1    1    2    0    0  0.42931151301E+03 -0.93655632040E+03  0.76513750422E+03  0.12833088159E+04  0.00000000000E+00 0. -1.
<mgrwt>
<rscale>  0 0.23610086E+04</rscale>
<asrwt>0</asrwt>
<pdfrwt beam="1">  1        1 0.21246000E+00 0.23610086E+04</pdfrwt>
<pdfrwt beam="2">  1       -1 0.15524987E+00 0.23610086E+04</pdfrwt>
<totfact> 0.22636396E+00</totfact>
</mgrwt>
</event>
<event>
 6    1  0.1817112E-005  0.3557010E+04  0.7818608E-02  0.8100411E-01
          2   -1    0    0  501    0  0.00000000000E+00  0.00000000000E+00  0.23015075850E+04  0.23015075850E+04  0.00000000000E+00 0. -1.
         -2   -1    0    0    0  501 -0.00000000000E+00 -0.00000000000E+00 -0.13743514870E+04  0.13743514870E+04  0.00000000000E+00 0.  1.
         23    2    1    2    0    0 -0.85543442957E+03  0.10012676383E+04 -0.76957686765E+03  0.15280211583E+04  0.91077759873E+02 0.  0.
         13    1    3    3    0    0 -0.66761804368E+03  0.82365936468E+03 -0.64550917464E+03  0.12412939603E+04  0.00000000000E+00 0.  1.
        -13    1    3    3    0    0 -0.18781638589E+03  0.17760827360E+03 -0.12406769301E+03  0.28672719806E+03  0.00000000000E+00 0. -1.
         22    1    1    2    0    0  0.85543442957E+03 -0.10012676383E+04  0.16967329656E+04  0.21478379137E+04  0.00000000000E+00 0. -1.
<mgrwt>
<rscale>  0 0.35570102E+04</rscale>
<asrwt>0</asrwt>
<pdfrwt beam="1">  1        2 0.35407809E+00 0.35570102E+04</pdfrwt>
<pdfrwt beam="2">  1       -2 0.21143869E+00 0.35570102E+04</pdfrwt>
<totfact> 0.41482810E-01</totfact>
</mgrwt>
</event>
<event>
 6    1  0.1817112E-005  0.1460459E+04  0.7818608E-02  0.8911181E-01
          2   -1    0    0  501    0  0.00000000000E+00  0.00000000000E+00  0.12997112470E+04  0.12997112470E+04  0.00000000000E+00 0. -1.
         -2   -1    0    0    0  501 -0.00000000000E+00 -0.00000000000E+00 -0.41027208153E+03  0.41027208153E+03  0.00000000000E+00 0.  1.
         23    2    1    2    0    0  0.54128692554E+03 -0.48023975815E+03  0.53351036124E+03  0.90356713653E+03  0.90435079432E+02 0.  0.
         11    1    3    3    0    0  0.27749102572E+03 -0.30560997650E+03  0.29490240991E+03  0.50731268313E+03  0.00000000000E+00 0. -1.
        -11    1    3    3    0    0  0.26379589982E+03 -0.17462978165E+03  0.23860795133E+03  0.39625445340E+03  0.00000000000E+00 0.  1.
         22    1    1    2    0    0 -0.54128692554E+03  0.48023975815E+03  0.35592880427E+03  0.80641619204E+03  0.00000000000E+00 0.  1.
<mgrwt>
<rscale>  0 0.14604592E+04</rscale>
<asrwt>0</asrwt>
<pdfrwt beam="1">  1        2 0.19995557E+00 0.14604592E+04</pdfrwt>
<pdfrwt beam="2">  1       -2 0.63118783E-01 0.14604592E+04</pdfrwt>
<totfact> 0.37261259E+01</totfact>
</mgrwt>
</event>
<event>
 6    1  0.1817112E-005  0.2275028E+04  0.7818608E-02  0.8487833E-01
         -1   -1    0    0    0  501 -0.00000000000E+00  0.00000000000E+00  0.58891980509E+03  0.58891980509E+03  0.00000000000E+00 0.  1.
          1   -1    0    0  501    0  0.00000000000E+00 -0.00000000000E+00 -0.21971382970E+04  0.21971382970E+04  0.00000000000E+00 0. -1.
         23    2    1    2    0    0 -0.42297414391E+03 -0.35590128577E+03 -0.20203890698E+04  0.20965238848E+04  0.88699235703E+02 0.  0.
         13    1    3    3    0    0 -0.27693114376E+03 -0.26165619568E+03 -0.12501017234E+04  0.13068699790E+04  0.00000000000E+00 0. -1.
        -13    1    3    3    0    0 -0.14604300015E+03 -0.94245090087E+02 -0.77028734639E+03  0.78965390578E+03  0.00000000000E+00 0.  1.
         22    1    1    2    0    0  0.42297414391E+03  0.35590128577E+03  0.41217057786E+03  0.68953421734E+03  0.00000000000E+00 0.  1.
<mgrwt>
<rscale>  0 0.22750281E+04</rscale>
<asrwt>0</asrwt>
<pdfrwt beam="1">  1        1 0.33802128E+00 0.22750281E+04</pdfrwt>
<pdfrwt beam="2">  1       -1 0.90603047E-01 0.22750281E+04</pdfrwt>
<totfact> 0.23588902E+00</totfact>
</mgrwt>
</event>
<event>
 6    1  0.1817112E-005  0.1782942E+04  0.7818608E-02  0.8715424E-01
         -2   -1    0    0    0  501 -0.00000000000E+00  0.00000000000E+00  0.96218908810E+03  0.96218908810E+03  0.00000000000E+00 0.  1.
          2   -1    0    0  501    0  0.00000000000E+00 -0.00000000000E+00 -0.82595073393E+03  0.82595073393E+03  0.00000000000E+00 0. -1.
         23    2    1    2    0    0 -0.16368361876E+02  0.87778764012E+03  0.20927537799E+03  0.90716679676E+03  0.91522395517E+02 0.  0.
         13    1    3    3    0    0 -0.51321987984E+01  0.48670280128E+03  0.16247388020E+03  0.51313128728E+03  0.00000000000E+00 0. -1.
        -13    1    3    3    0    0 -0.11236163077E+02  0.39108483884E+03  0.46801497795E+02  0.39403550948E+03  0.00000000000E+00 0.  1.
         22    1    1    2    0    0  0.16368361876E+02 -0.87778764012E+03 -0.73037023825E+02  0.88097302528E+03  0.00000000000E+00 0.  1.
<mgrwt>
<rscale>  0 0.17829423E+04</rscale>
<asrwt>0</asrwt>
<pdfrwt beam="1">  1        2 0.12706934E+00 0.17829423E+04</pdfrwt>
<pdfrwt beam="2">  1       -2 0.14802909E+00 0.17829423E+04</pdfrwt>
<totfact> 0.96775473E+00</totfact>
</mgrwt>
</event>
<event>
 6    1  0.1817112E-005  0.3307473E+04  0.7818608E-02  0.8160996E-01
         -1   -1    0    0    0  501 -0.00000000000E+00  0.00000000000E+00  0.13937657514E+04  0.13937657514E+04  0.00000000000E+00 0.  1.
          1   -1    0    0  501    0  0.00000000000E+00 -0.00000000000E+00 -0.19621979554E+04  0.19621979554E+04  0.00000000000E+00 0. -1.
         23    2    1    2    0    0 -0.98448609429E+03 -0.13111773111E+04 -0.75614671930E+02  0.16438691034E+04  0.90494417943E+02 0.  0.
         13    1    3    3    0    0 -0.71694015708E+03 -0.92341956934E+03 -0.90242850506E+02  0.11725402603E+04  0.00000000000E+00 0.  1.
        -13    1    3    3    0    0 -0.26754593722E+03 -0.38775774174E+03  0.14628178576E+02  0.47132884318E+03  0.00000000000E+00 0. -1.
         22    1    1    2    0    0  0.98448609429E+03  0.13111773111E+04 -0.49281753204E+03  0.17120946034E+04  0.00000000000E+00 0. -1.
<mgrwt>
<rscale>  0 0.33074729E+04</rscale>
<asrwt>0</asrwt>
<pdfrwt beam="1">  1        1 0.30187661E+00 0.33074729E+04</pdfrwt>
<pdfrwt beam="2">  1       -1 0.21442550E+00 0.33074729E+04</pdfrwt>
<totfact> 0.31450103E-01</totfact>
</mgrwt>
</event>
<event>
 6    1  0.1817112E-005  0.1586235E+04  0.7818608E-02  0.8829049E-01
          2   -1    0    0  501    0  0.00000000000E+00  0.00000000000E+00  0.18683198365E+03  0.18683198365E+03  0.00000000000E+00 0. -1.
         -2   -1    0    0    0  501 -0.00000000000E+00 -0.00000000000E+00 -0.33668511805E+04  0.33668511805E+04  0.00000000000E+00 0.  1.
         23    2    1    2    0    0 -0.71459967370E+02  0.78119800949E+03 -0.13766494608E+04  0.15870822229E+04  0.91046073678E+02 0.  0.
         13    1    3    3    0    0 -0.59875882546E+02  0.42472947859E+03 -0.83178989638E+03  0.93587108248E+03  0.00000000000E+00 0. -1.
        -13    1    3    3    0    0 -0.11584084824E+02  0.35646853090E+03 -0.54485956438E+03  0.65121114045E+03  0.00000000000E+00 0.  1.
         22    1    1    2    0    0  0.71459967370E+02 -0.78119800949E+03 -0.18033697361E+04  0.19666009412E+04  0.00000000000E+00 0.  1.
<mgrwt>
<rscale>  0 0.15862351E+04</rscale>
<asrwt>0</asrwt>
<pdfrwt beam="1">  1        2 0.28743382E-01 0.15862351E+04</pdfrwt>
<pdfrwt beam="2">  1       -2 0.51797710E+00 0.15862351E+04</pdfrwt>
<totfact> 0.22978866E-01</totfact>
</mgrwt>
</event>
<event>
 6    1  0.1817112E-005  0.3177641E+04  0.7818608E-02  0.8194747E-01
          2   -1    0    0  501    0  0.00000000000E+00  0.00000000000E+00  0.27086145650E+04  0.27086145650E+04  0.00000000000E+00 0. -1.
         -2   -1    0    0    0  501 -0.00000000000E+00 -0.00000000000E+00 -0.93197119406E+03  0.93197119406E+03  0.00000000000E+00 0.  1.
         23    2    1    2    0    0 -0.10792907674E+04 -0.10820151141E+04  0.39703402203E+03  0.15817153835E+04  0.92532545530E+02 0.  0.
         11    1    3    3    0    0 -0.27959977860E+03 -0.28018455797E+03  0.14508356226E+03  0.42157877408E+03  0.00000000000E+00 0. -1.
        -11    1    3    3    0    0 -0.79969098879E+03 -0.80183055616E+03  0.25195045978E+03  0.11601366094E+04  0.00000000000E+00 0.  1.
         22    1    1    2    0    0  0.10792907674E+04  0.10820151141E+04  0.13796093490E+04  0.20588703756E+04  0.00000000000E+00 0. -1.
<mgrwt>
<rscale>  0 0.31776411E+04</rscale>
<asrwt>0</asrwt>
<pdfrwt beam="1">  1        2 0.41670993E+00 0.31776411E+04</pdfrwt>
<pdfrwt beam="2">  1       -2 0.14338019E+00 0.31776411E+04</pdfrwt>
<totfact> 0.74684165E-01</totfact>
</mgrwt>
</event>
<event>
 6    1  0.1817112E-005  0.2069770E+04  0.7818608E-02  0.8574678E-01
         -2   -1    0    0    0  501 -0.00000000000E+00  0.00000000000E+00  0.64612198982E+03  0.64612198982E+03  0.00000000000E+00 0.  1.
          2   -1    0    0  501    0  0.00000000000E+00 -0.00000000000E+00 -0.16575618947E+04  0.16575618947E+04  0.00000000000E+00 0. -1.
         23    2    1    2    0    0  0.65499159688E+03  0.56364901963E+03 -0.11363508391E+04  0.14305762446E+04  0.92417275564E+02 0.  0.
         13    1    3    3    0    0  0.28409083077E+03  0.23347154705E+03 -0.41043234637E+03  0.55106376615E+03  0.00000000000E+00 0.  1.
        -13    1    3    3    0    0  0.37090076611E+03  0.33017747258E+03 -0.72591849274E+03  0.87951247848E+03  0.00000000000E+00 0. -1.
         22    1    1    2    0    0 -0.65499159688E+03 -0.56364901963E+03  0.12491093425E+03  0.87310763988E+03  0.00000000000E+00 0.  1.
<mgrwt>
<rscale>  0 0.20697702E+04</rscale>
<asrwt>0</asrwt>
<pdfrwt beam="1">  1        2 0.25500952E+00 0.20697702E+04</pdfrwt>
<pdfrwt beam="2">  1       -2 0.99403384E-01 0.20697702E+04</pdfrwt>
<totfact> 0.80155358E+00</totfact>
</mgrwt>
</event>
<event>
 6    1  0.1817112E-005  0.1955243E+04  0.7818608E-02  0.8627837E-01
         -2   -1    0    0    0  501 -0.00000000000E+00  0.00000000000E+00  0.43305986219E+03  0.43305986219E+03  0.00000000000E+00 0.  1.
          2   -1    0    0  501    0  0.00000000000E+00 -0.00000000000E+00 -0.22069548706E+04  0.22069548706E+04  0.00000000000E+00 0. -1.
         23    2    1    2    0    0  0.45395990456E+03  0.25805761654E+03  0.22332922540E+03  0.57565576001E+03  0.93969583985E+02 0.  0.
         11    1    3    3    0    0  0.30362267180E+03  0.22122024902E+03  0.15261565785E+03  0.40548324802E+03  0.00000000000E+00 0.  1.
        -11    1    3    3    0    0  0.15033723276E+03  0.36837367515E+02  0.70713567552E+02  0.17017251199E+03  0.00000000000E+00 0. -1.
         22    1    1    2    0    0 -0.45395990456E+03 -0.25805761654E+03 -0.19972242338E+04  0.20643589728E+04  0.00000000000E+00 0. -1.
<mgrwt>
<rscale>  0 0.19552428E+04</rscale>
<asrwt>0</asrwt>
<pdfrwt beam="1">  1        2 0.33953152E+00 0.19552428E+04</pdfrwt>
<pdfrwt beam="2">  1       -2 0.66624594E-01 0.19552428E+04</pdfrwt>
<totfact> 0.98775181E+00</totfact>
</mgrwt>
</event>
<event>
 6    1  0.1817112E-005  0.1074325E+04  0.7818608E-02  0.9230584E-01
          2   -1    0    0  501    0  0.00000000000E+00  0.00000000000E+00  0.56626166606E+03  0.56626166606E+03  0.00000000000E+00 0. -1.
         -2   -1    0    0    0  501 -0.00000000000E+00 -0.00000000000E+00 -0.50955868551E+03  0.50955868551E+03  0.00000000000E+00 0.  1.
         23    2    1    2    0    0  0.12639435384E+03 -0.51660235681E+03  0.68387182086E+02  0.54385226201E+03  0.90801698626E+02 0.  0.
         13    1    3    3    0    0  0.25926712733E+02 -0.21009849865E+03 -0.99502714310E+01  0.21192588673E+03  0.00000000000E+00 0. -1.
        -13    1    3    3    0    0  0.10046764111E+03 -0.30650385817E+03  0.78337453517E+02  0.33192637528E+03  0.00000000000E+00 0.  1.
         22    1    1    2    0    0 -0.12639435384E+03  0.51660235681E+03 -0.11684201538E+02  0.53196808956E+03  0.00000000000E+00 0.  1.
<mgrwt>
<rscale>  0 0.10743250E+04</rscale>
<asrwt>0</asrwt>
<pdfrwt beam="1">  1        2 0.87117179E-01 0.10743250E+04</pdfrwt>
<pdfrwt beam="2">  1       -2 0.78393644E-01 0.10743250E+04</pdfrwt>
<totfact> 0.76544557E+01</totfact>
</mgrwt>
</event>
<event>
 6    1  0.1836701E-005  0.2194390E+04  0.7818608E-02  0.8520767E-01
          2   -1    0    0  501    0  0.00000000000E+00  0.00000000000E+00  0.11479705048E+04  0.11479705048E+04  0.00000000000E+00 0. -1.
         -2   -1    0    0    0  501 -0.00000000000E+00 -0.00000000000E+00 -0.10486654597E+04  0.10486654597E+04  0.00000000000E+00 0.  1.
         23    2    1    2    0    0  0.12597454515E+03  0.16176599700E+03 -0.10273740196E+04  0.10514532111E+04  0.89546943173E+02 0.  0.
         13    1    3    3    0    0  0.13015900835E+03  0.10625843408E+03 -0.76264545395E+03  0.78093553556E+03  0.00000000000E+00 0.  1.
        -13    1    3    3    0    0 -0.41844631935E+01  0.55507562917E+02 -0.26472856567E+03  0.27051767549E+03  0.00000000000E+00 0. -1.
         22    1    1    2    0    0 -0.12597454515E+03 -0.16176599700E+03  0.11266790647E+04  0.11451827534E+04  0.00000000000E+00 0. -1.
<mgrwt>
<rscale>  0 0.21943901E+04</rscale>
<asrwt>0</asrwt>
<pdfrwt beam="1">  1        2 0.17661085E+00 0.21943901E+04</pdfrwt>
<pdfrwt beam="2">  1       -2 0.16133315E+00 0.21943901E+04</pdfrwt>
<totfact> 0.45848750E+00</totfact>
</mgrwt>
</event>
<event>
 6    1  0.1817112E-005  0.5709912E+03  0.7818608E-02  0.9967488E-01
          1   -1    0    0  501    0  0.00000000000E+00  0.00000000000E+00  0.40027829366E+03  0.40027829366E+03  0.00000000000E+00 0. -1.
         -1   -1    0    0    0  501 -0.00000000000E+00 -0.00000000000E+00 -0.20362765229E+03  0.20362765229E+03  0.00000000000E+00 0.  1.
         23    2    1    2    0    0  0.10413307017E+02 -0.23912605095E+03  0.24956015800E+03  0.35877511933E+03  0.95653586377E+02 0.  0.
         11    1    3    3    0    0  0.34273292703E+02 -0.14689825337E+03  0.98401528599E+02  0.18010168313E+03  0.00000000000E+00 0. -1.
        -11    1    3    3    0    0 -0.23859985686E+02 -0.92227797587E+02  0.15115862940E+03  0.17867343621E+03  0.00000000000E+00 0.  1.
         22    1    1    2    0    0 -0.10413307017E+02  0.23912605095E+03 -0.52909516633E+02  0.24513082662E+03  0.00000000000E+00 0.  1.
<mgrwt>
<rscale>  0 0.57099117E+03</rscale>
<asrwt>0</asrwt>
<pdfrwt beam="1">  1        1 0.61581276E-01 0.57099117E+03</pdfrwt>
<pdfrwt beam="2">  1       -1 0.31327331E-01 0.57099117E+03</pdfrwt>
<totfact> 0.57213441E+02</totfact>
</mgrwt>
</event>
<event>
 6    1  0.1817112E-005  0.1691395E+04  0.7818608E-02  0.8766287E-01
          2   -1    0    0  501    0  0.00000000000E+00  0.00000000000E+00  0.14565807307E+04  0.14565807307E+04  0.00000000000E+00 0.  1.
         -2   -1    0    0    0  501 -0.00000000000E+00 -0.00000000000E+00 -0.49101578921E+03  0.49101578921E+03  0.00000000000E+00 0. -1.
         23    2    1    2    0    0 -0.24065266327E+02  0.56249657698E+03 -0.23860857300E+03  0.61830520904E+03  0.91573709463E+02 0.  0.
         13    1    3    3    0    0 -0.27581286054E+02  0.53276340458E+03 -0.24600351903E+03  0.58746515129E+03  0.00000000000E+00 0. -1.
        -13    1    3    3    0    0  0.35160197268E+01  0.29733172397E+02  0.73949460322E+01  0.30840057755E+02  0.00000000000E+00 0.  1.
         22    1    1    2    0    0  0.24065266327E+02 -0.56249657698E+03  0.12041735145E+04  0.13292913109E+04  0.00000000000E+00 0.  1.
<mgrwt>
<rscale>  0 0.16913949E+04</rscale>
<asrwt>0</asrwt>
<pdfrwt beam="1">  1        2 0.22408934E+00 0.16913949E+04</pdfrwt>
<pdfrwt beam="2">  1       -2 0.75540891E-01 0.16913949E+04</pdfrwt>
<totfact> 0.20101888E+01</totfact>
</mgrwt>
</event>
<event>
 6    1  0.1817112E-005  0.2453255E+04  0.7818608E-02  0.8419830E-01
          2   -1    0    0  501    0  0.00000000000E+00  0.00000000000E+00  0.24399307410E+04  0.24399307410E+04  0.00000000000E+00 0. -1.
         -2   -1    0    0    0  501 -0.00000000000E+00 -0.00000000000E+00 -0.61666313692E+03  0.61666313692E+03  0.00000000000E+00 0.  1.
         23    2    1    2    0    0 -0.84319434876E+03 -0.73784063226E+03  0.15296124085E+04  0.18983111481E+04  0.92117240985E+02 0.  0.
         13    1    3    3    0    0 -0.30095036862E+03 -0.24228569010E+03  0.59753666689E+03  0.71156415612E+03  0.00000000000E+00 0. -1.
        -13    1    3    3    0    0 -0.54224398014E+03 -0.49555494216E+03  0.93207574166E+03  0.11867469919E+04  0.00000000000E+00 0.  1.
         22    1    1    2    0    0  0.84319434876E+03  0.73784063226E+03  0.29365519552E+03  0.11582827298E+04  0.00000000000E+00 0.  1.
<mgrwt>
<rscale>  0 0.24532553E+04</rscale>
<asrwt>0</asrwt>
<pdfrwt beam="1">  1        2 0.37537396E+00 0.24532553E+04</pdfrwt>
<pdfrwt beam="2">  1       -2 0.94871253E-01 0.24532553E+04</pdfrwt>
<totfact> 0.31560529E+00</totfact>
</mgrwt>
</event>
<event>
 6    1  0.1817112E-005  0.1064648E+04  0.7818608E-02  0.9240350E-01
          2   -1    0    0  501    0  0.00000000000E+00  0.00000000000E+00  0.95893996044E+03  0.95893996044E+03  0.00000000000E+00 0.  1.
         -2   -1    0    0    0  501 -0.00000000000E+00 -0.00000000000E+00 -0.29550239233E+03  0.29550239233E+03  0.00000000000E+00 0. -1.
         23    2    1    2    0    0 -0.34511745598E+03 -0.20871383264E+03 -0.69134004948E+02  0.41818364159E+03  0.86200493593E+02 0.  0.
         11    1    3    3    0    0 -0.20807733694E+03 -0.16736704316E+03 -0.65708551874E+02  0.27500094377E+03  0.00000000000E+00 0.  1.
        -11    1    3    3    0    0 -0.13704011904E+03 -0.41346789482E+02 -0.34254530741E+01  0.14318269782E+03  0.00000000000E+00 0. -1.
         22    1    1    2    0    0  0.34511745598E+03  0.20871383264E+03  0.73257157306E+03  0.83625871117E+03  0.00000000000E+00 0.  1.
<mgrwt>
<rscale>  0 0.10646484E+04</rscale>
<asrwt>0</asrwt>
<pdfrwt beam="1">  1        2 0.14752922E+00 0.10646484E+04</pdfrwt>
<pdfrwt beam="2">  1       -2 0.45461907E-01 0.10646484E+04</pdfrwt>
<totfact> 0.12221644E+02</totfact>
</mgrwt>
</event>
<event>
 6    1  0.1817112E-005  0.1673071E+04  0.7818608E-02  0.8776874E-01
          2   -1    0    0  501    0  0.00000000000E+00  0.00000000000E+00  0.21576112673E+04  0.21576112673E+04  0.00000000000E+00 0. -1.
         -2   -1    0    0    0  501 -0.00000000000E+00 -0.00000000000E+00 -0.32433613499E+03  0.32433613499E+03  0.00000000000E+00 0.  1.
         23    2    1    2    0    0 -0.59137996017E+03  0.14767953376E+03  0.74783803471E+02  0.62081031558E+03  0.90957840172E+02 0.  0.
         13    1    3    3    0    0 -0.23749864473E+03  0.17338115318E+02  0.11436856794E+02  0.23840515553E+03  0.00000000000E+00 0.  1.
        -13    1    3    3    0    0 -0.35388131544E+03  0.13034141844E+03  0.63346946677E+02  0.38240516005E+03  0.00000000000E+00 0. -1.
         22    1    1    2    0    0  0.59137996017E+03 -0.14767953376E+03  0.17584913289E+04  0.18611370867E+04  0.00000000000E+00 0. -1.
<mgrwt>
<rscale>  0 0.16730706E+04</rscale>
<asrwt>0</asrwt>
<pdfrwt beam="1">  1        2 0.33194019E+00 0.16730706E+04</pdfrwt>
<pdfrwt beam="2">  1       -2 0.49897868E-01 0.16730706E+04</pdfrwt>
<totfact> 0.19775936E+01</totfact>
</mgrwt>
</event>
<event>
 6    1  0.1817112E-005  0.3948396E+04  0.7818608E-02  0.8015038E-01
          2   -1    0    0  501    0  0.00000000000E+00  0.00000000000E+00  0.45626996992E+04  0.45626996992E+04  0.00000000000E+00 0. -1.
         -2   -1    0    0    0  501 -0.00000000000E+00 -0.00000000000E+00 -0.85419979371E+03  0.85419979371E+03  0.00000000000E+00 0.  1.
         23    2    1    2    0    0  0.17742108733E+04  0.83023885185E+03  0.15298034069E+04  0.24870805213E+04  0.90278908827E+02 0.  0.
         13    1    3    3    0    0  0.10811892785E+04  0.47135791014E+03  0.88093021202E+03  0.14721367375E+04  0.00000000000E+00 0. -1.
        -13    1    3    3    0    0  0.69302159480E+03  0.35888094171E+03  0.64887319492E+03  0.10149437838E+04  0.00000000000E+00 0.  1.
         22    1    1    2    0    0 -0.17742108733E+04 -0.83023885185E+03  0.21786964986E+04  0.29298189717E+04  0.00000000000E+00 0. -1.
<mgrwt>
<rscale>  0 0.39483957E+04</rscale>
<asrwt>0</asrwt>
<pdfrwt beam="1">  1        2 0.70195379E+00 0.39483957E+04</pdfrwt>
<pdfrwt beam="2">  1       -2 0.13141536E+00 0.39483957E+04</pdfrwt>
<totfact> 0.35425839E-02</totfact>
</mgrwt>
</event>
<event>
 6    1  0.1817112E-005  0.4042697E+04  0.7818608E-02  0.7995988E-01
         -2   -1    0    0    0  501 -0.00000000000E+00  0.00000000000E+00  0.96005846844E+03  0.96005846844E+03  0.00000000000E+00 0.  1.
          2   -1    0    0  501    0  0.00000000000E+00 -0.00000000000E+00 -0.42558336219E+04  0.42558336219E+04  0.00000000000E+00 0. -1.
         23    2    1    2    0    0 -0.14779709593E+04  0.11145804815E+04 -0.60455518698E+03  0.19494945772E+04  0.91402003403E+02 0.  0.
         13    1    3    3    0    0 -0.12094295110E+04  0.94688445979E+03 -0.47976804787E+03  0.16091883986E+04  0.00000000000E+00 0.  1.
        -13    1    3    3    0    0 -0.26854144823E+03  0.16769602167E+03 -0.12478713911E+03  0.34030617859E+03  0.00000000000E+00 0. -1.
         22    1    1    2    0    0  0.14779709593E+04 -0.11145804815E+04 -0.26912199664E+04  0.32663975131E+04  0.00000000000E+00 0. -1.
<mgrwt>
<rscale>  0 0.40426967E+04</rscale>
<asrwt>0</asrwt>
<pdfrwt beam="1">  1        2 0.65474364E+00 0.40426967E+04</pdfrwt>
<pdfrwt beam="2">  1       -2 0.14770130E+00 0.40426967E+04</pdfrwt>
<totfact> 0.50703575E-02</totfact>
</mgrwt>
</event>
<event>
 6    1  0.1817112E-005  0.3435584E+04  0.7818608E-02  0.8129228E-01
         -2   -1    0    0    0  501 -0.00000000000E+00  0.00000000000E+00  0.72677766231E+03  0.72677766231E+03  0.00000000000E+00 0.  1.
          2   -1    0    0  501    0  0.00000000000E+00 -0.00000000000E+00 -0.40601258026E+04  0.40601258026E+04  0.00000000000E+00 0. -1.
         23    2    1    2    0    0  0.62943154773E+03 -0.15937915789E+04 -0.18102494105E+04  0.24942662474E+04  0.89473541098E+02 0.  0.
         13    1    3    3    0    0  0.31914765984E+03 -0.68719106199E+03 -0.79793204433E+03  0.11003555479E+04  0.00000000000E+00 0.  1.
        -13    1    3    3    0    0  0.31028388789E+03 -0.90660051691E+03 -0.10123173662E+04  0.13939106995E+04  0.00000000000E+00 0. -1.
         22    1    1    2    0    0 -0.62943154773E+03  0.15937915789E+04 -0.15230987297E+04  0.22926372174E+04  0.00000000000E+00 0.  1.
<mgrwt>
<rscale>  0 0.34355836E+04</rscale>
<asrwt>0</asrwt>
<pdfrwt beam="1">  1        2 0.62463473E+00 0.34355836E+04</pdfrwt>
<pdfrwt beam="2">  1       -2 0.11181195E+00 0.34355836E+04</pdfrwt>
<totfact> 0.15891546E-01</totfact>
</mgrwt>
</event>
<event>
 6    1  0.1817112E-005  0.1785433E+04  0.7818608E-02  0.8714085E-01
          2   -1    0    0  501    0  0.00000000000E+00  0.00000000000E+00  0.29362964333E+04  0.29362964333E+04  0.00000000000E+00 0.  1.
         -2   -1    0    0    0  501 -0.00000000000E+00 -0.00000000000E+00 -0.27141091535E+03  0.27141091535E+03  0.00000000000E+00 0. -1.
         23    2    1    2    0    0 -0.60124578002E+03 -0.35512947593E+03  0.23273271714E+04  0.24321049570E+04  0.10521086653E+03 0.  0.
         13    1    3    3    0    0 -0.79193888528E+02 -0.40780345171E+02  0.43679613444E+03  0.44578646412E+03  0.00000000000E+00 0.  1.
        -13    1    3    3    0    0 -0.52205189149E+03 -0.31434913076E+03  0.18905310369E+04  0.19863184928E+04  0.00000000000E+00 0. -1.
         22    1    1    2    0    0  0.60124578002E+03  0.35512947593E+03  0.33755834663E+03  0.77560239172E+03  0.00000000000E+00 0. -1.
<mgrwt>
<rscale>  0 0.17854332E+04</rscale>
<asrwt>0</asrwt>
<pdfrwt beam="1">  1        2 0.45173789E+00 0.17854332E+04</pdfrwt>
<pdfrwt beam="2">  1       -2 0.41755528E-01 0.17854332E+04</pdfrwt>
<totfact> 0.98356450E+00</totfact>
</mgrwt>
</event>
<event>
 6    1  0.1817112E-005  0.3953739E+04  0.7818608E-02  0.8013944E-01
         -2   -1    0    0    0  501 -0.00000000000E+00  0.00000000000E+00  0.14659597351E+04  0.14659597351E+04  0.00000000000E+00 0.  1.
          2   -1    0    0  501    0  0.00000000000E+00 -0.00000000000E+00 -0.26658395223E+04  0.26658395223E+04  0.00000000000E+00 0. -1.
         23    2    1    2    0    0  0.62630219294E+03 -0.14036059865E+04 -0.18977143185E+04  0.24438012613E+04  0.92091084292E+02 0.  0.
         13    1    3    3    0    0  0.48636751667E+03 -0.10256118474E+04 -0.14484603388E+04  0.18402365000E+04  0.00000000000E+00 0. -1.
        -13    1    3    3    0    0  0.13993467627E+03 -0.37799413902E+03 -0.44925397974E+03  0.60356476129E+03  0.00000000000E+00 0.  1.
         22    1    1    2    0    0 -0.62630219294E+03  0.14036059865E+04  0.69783453128E+03  0.16879979962E+04  0.00000000000E+00 0.  1.
<mgrwt>
<rscale>  0 0.39537392E+04</rscale>
<asrwt>0</asrwt>
<pdfrwt beam="1">  1        2 0.41012915E+00 0.39537392E+04</pdfrwt>
<pdfrwt beam="2">  1       -2 0.22553227E+00 0.39537392E+04</pdfrwt>
<totfact> 0.20091929E-01</totfact>
</mgrwt>
</event>
<event>
 6    1  0.1817112E-005  0.2125342E+04  0.7818608E-02  0.8550161E-01
         -2   -1    0    0    0  501 -0.00000000000E+00  0.00000000000E+00  0.51281983646E+03  0.51281983646E+03  0.00000000000E+00 0.  1.
          2   -1    0    0  501    0  0.00000000000E+00 -0.00000000000E+00 -0.22020793756E+04  0.22020793756E+04  0.00000000000E+00 0. -1.
         23    2    1    2    0    0 -0.58808133019E+03 -0.15351907271E+03  0.26395499739E+03  0.66930521953E+03  0.94284037031E+02 0.  0.
         11    1    3    3    0    0 -0.32738393074E+03 -0.60664393195E+02  0.10002926472E+03  0.34765825247E+03  0.00000000000E+00 0. -1.
        -11    1    3    3    0    0 -0.26069739945E+03 -0.92854679519E+02  0.16392573268E+03  0.32164696706E+03  0.00000000000E+00 0.  1.
         22    1    1    2    0    0  0.58808133019E+03  0.15351907271E+03 -0.19532145366E+04  0.20455939926E+04  0.00000000000E+00 0. -1.
<mgrwt>
<rscale>  0 0.21253423E+04</rscale>
<asrwt>0</asrwt>
<pdfrwt beam="1">  1        2 0.33878144E+00 0.21253423E+04</pdfrwt>
<pdfrwt beam="2">  1       -2 0.78895361E-01 0.21253423E+04</pdfrwt>
<totfact> 0.67540311E+00</totfact>
</mgrwt>
</event>
<event>
 6    1  0.1817112E-005  0.1822675E+04  0.7818608E-02  0.8694333E-01
          2   -1    0    0  501    0  0.00000000000E+00  0.00000000000E+00  0.95184578412E+03  0.95184578412E+03  0.00000000000E+00 0. -1.
         -2   -1    0    0    0  501 -0.00000000000E+00 -0.00000000000E+00 -0.87255298974E+03  0.87255298974E+03  0.00000000000E+00 0.  1.
         23    2    1    2    0    0  0.25317039159E+03 -0.77921925767E+03  0.43412164412E+03  0.93154861213E+03  0.89684536966E+02 0.  0.
         11    1    3    3    0    0  0.23984731863E+03 -0.66791203852E+03  0.39861722663E+03  0.81395879553E+03  0.00000000000E+00 0. -1.
        -11    1    3    3    0    0  0.13323072964E+02 -0.11130721914E+03  0.35504417495E+02  0.11758981660E+03  0.00000000000E+00 0.  1.
         22    1    1    2    0    0 -0.25317039159E+03  0.77921925767E+03 -0.35482884974E+03  0.89285016173E+03  0.00000000000E+00 0. -1.
<mgrwt>
<rscale>  0 0.18226748E+04</rscale>
<asrwt>0</asrwt>
<pdfrwt beam="1">  1        2 0.14643781E+00 0.18226748E+04</pdfrwt>
<pdfrwt beam="2">  1       -2 0.13423892E+00 0.18226748E+04</pdfrwt>
<totfact> 0.10211241E+01</totfact>
</mgrwt>
</event>
<event>
 6    1  0.1817112E-005  0.3179363E+04  0.7818608E-02  0.8194289E-01
         -2   -1    0    0    0  501 -0.00000000000E+00  0.00000000000E+00  0.73548265976E+03  0.73548265976E+03  0.00000000000E+00 0.  1.
          2   -1    0    0  501    0  0.00000000000E+00 -0.00000000000E+00 -0.34359579509E+04  0.34359579509E+04  0.00000000000E+00 0. -1.
         23    2    1    2    0    0 -0.11182142698E+04 -0.59773021544E+03 -0.26065466152E+04  0.29000212622E+04  0.91397483620E+02 0.  0.
         11    1    3    3    0    0 -0.79617964760E+03 -0.45099265561E+03 -0.17991929615E+04  0.20185122539E+04  0.00000000000E+00 0. -1.
        -11    1    3    3    0    0 -0.32203462221E+03 -0.14673755983E+03 -0.80735365375E+03  0.88150900823E+03  0.00000000000E+00 0.  1.
         22    1    1    2    0    0  0.11182142698E+04  0.59773021544E+03 -0.93928675942E+02  0.12714193485E+04  0.00000000000E+00 0.  1.
<mgrwt>
<rscale>  0 0.31793631E+04</rscale>
<asrwt>0</asrwt>
<pdfrwt beam="1">  1        2 0.52860892E+00 0.31793631E+04</pdfrwt>
<pdfrwt beam="2">  1       -2 0.11315118E+00 0.31793631E+04</pdfrwt>
<totfact> 0.46551115E-01</totfact>
</mgrwt>
</event>
<event>
 6    1  0.1817112E-005  0.2257165E+04  0.7818608E-02  0.8495004E-01
         -2   -1    0    0    0  501 -0.00000000000E+00  0.00000000000E+00  0.31857340282E+03  0.31857340282E+03  0.00000000000E+00 0.  1.
          2   -1    0    0  501    0  0.00000000000E+00 -0.00000000000E+00 -0.39981315583E+04  0.39981315583E+04  0.00000000000E+00 0. -1.
         23    2    1    2    0    0 -0.84726759843E+03  0.18090210433E+03 -0.32204900880E+04  0.33362298491E+04  0.91023317947E+02 0.  0.
         13    1    3    3    0    0 -0.50456126692E+03  0.67604385627E+02 -0.18005697739E+04  0.18711504311E+04  0.00000000000E+00 0.  1.
        -13    1    3    3    0    0 -0.34270633151E+03  0.11329771871E+03 -0.14199203141E+04  0.14650794180E+04  0.00000000000E+00 0. -1.
         22    1    1    2    0    0  0.84726759843E+03 -0.18090210433E+03 -0.45906806748E+03  0.98047511201E+03  0.00000000000E+00 0.  1.
<mgrwt>
<rscale>  0 0.22571649E+04</rscale>
<asrwt>0</asrwt>
<pdfrwt beam="1">  1        2 0.61509720E+00 0.22571649E+04</pdfrwt>
<pdfrwt beam="2">  1       -2 0.49011290E-01 0.22571649E+04</pdfrwt>
<totfact> 0.12389623E+00</totfact>
</mgrwt>
</event>
<event>
 6    1  0.1817112E-005  0.6206977E+03  0.7818608E-02  0.9863372E-01
         -2   -1    0    0    0  501 -0.00000000000E+00  0.00000000000E+00  0.34222423036E+03  0.34222423036E+03  0.00000000000E+00 0.  1.
          2   -1    0    0  501    0  0.00000000000E+00 -0.00000000000E+00 -0.28144239384E+03  0.28144239384E+03  0.00000000000E+00 0. -1.
         23    2    1    2    0    0  0.88912235239E+02 -0.15579912185E+03 -0.21531129869E+03  0.29441569974E+03  0.90238001778E+02 0.  0.
         11    1    3    3    0    0  0.60530977102E+02 -0.24755520775E+02 -0.55220675533E+02  0.85592978708E+02  0.00000000000E+00 0. -1.
        -11    1    3    3    0    0  0.28381258137E+02 -0.13104360107E+03 -0.16009062316E+03  0.20882272103E+03  0.00000000000E+00 0.  1.
         22    1    1    2    0    0 -0.88912235239E+02  0.15579912185E+03  0.27609313522E+03  0.32925092446E+03  0.00000000000E+00 0.  1.
<mgrwt>
<rscale>  0 0.62069769E+03</rscale>
<asrwt>0</asrwt>
<pdfrwt beam="1">  1        2 0.43298830E-01 0.62069769E+03</pdfrwt>
<pdfrwt beam="2">  1       -2 0.52649882E-01 0.62069769E+03</pdfrwt>
<totfact> 0.40502869E+02</totfact>
</mgrwt>
</event>
<event>
 6    1  0.1817112E-005  0.3059883E+04  0.7818608E-02  0.8226835E-01
          2   -1    0    0  501    0  0.00000000000E+00  0.00000000000E+00  0.39918284497E+04  0.39918284497E+04  0.00000000000E+00 0. -1.
         -2   -1    0    0    0  501 -0.00000000000E+00 -0.00000000000E+00 -0.58637827737E+03  0.58637827737E+03  0.00000000000E+00 0.  1.
         23    2    1    2    0    0  0.18259064909E+03 -0.10035059372E+04  0.89457455384E+00  0.10241439351E+04  0.92230625767E+02 0.  0.
         11    1    3    3    0    0  0.14032900756E+03 -0.57597954418E+03  0.29682860532E+02  0.59357033104E+03  0.00000000000E+00 0.  1.
        -11    1    3    3    0    0  0.42261641521E+02 -0.42752639303E+03 -0.28788285978E+02  0.43057360403E+03  0.00000000000E+00 0. -1.
         22    1    1    2    0    0 -0.18259064909E+03  0.10035059372E+04  0.34045555978E+04  0.35540627920E+04  0.00000000000E+00 0. -1.
<mgrwt>
<rscale>  0 0.30598833E+04</rscale>
<asrwt>0</asrwt>
<pdfrwt beam="1">  1        2 0.61412744E+00 0.30598833E+04</pdfrwt>
<pdfrwt beam="2">  1       -2 0.90212045E-01 0.30598833E+04</pdfrwt>
<totfact> 0.31071890E-01</totfact>
</mgrwt>
</event>
<event>
 6    1  0.1817112E-005  0.2003942E+04  0.7818608E-02  0.8604780E-01
          2   -1    0    0  501    0  0.00000000000E+00  0.00000000000E+00  0.38374730375E+03  0.38374730375E+03  0.00000000000E+00 0.  1.
         -2   -1    0    0    0  501 -0.00000000000E+00 -0.00000000000E+00 -0.26161644772E+04  0.26161644772E+04  0.00000000000E+00 0. -1.
         23    2    1    2    0    0 -0.88579114535E+03 -0.39071647273E+03 -0.74438475249E+03  0.12246580523E+04  0.91615337791E+02 0.  0.
         11    1    3    3    0    0 -0.38199356653E+03 -0.11944881969E+03 -0.31179087433E+03  0.50734668099E+03  0.00000000000E+00 0. -1.
        -11    1    3    3    0    0 -0.50379757881E+03 -0.27126765305E+03 -0.43259387816E+03  0.71731137132E+03  0.00000000000E+00 0.  1.
         22    1    1    2    0    0  0.88579114535E+03  0.39071647273E+03 -0.14880324210E+04  0.17752537287E+04  0.00000000000E+00 0.  1.
<mgrwt>
<rscale>  0 0.20039422E+04</rscale>
<asrwt>0</asrwt>
<pdfrwt beam="1">  1        2 0.59038046E-01 0.20039422E+04</pdfrwt>
<pdfrwt beam="2">  1       -2 0.40248685E+00 0.20039422E+04</pdfrwt>
<totfact> 0.55490843E-01</totfact>
</mgrwt>
</event>
<event>
 6    1  0.1817112E-005  0.2637183E+04  0.7818608E-02  0.8355680E-01
          2   -1    0    0  501    0  0.00000000000E+00  0.00000000000E+00  0.22470627611E+04  0.22470627611E+04  0.00000000000E+00 0. -1.
         -2   -1    0    0    0  501 -0.00000000000E+00 -0.00000000000E+00 -0.77375813473E+03  0.77375813473E+03  0.00000000000E+00 0.  1.
         23    2    1    2    0    0 -0.10773015564E+04  0.42892376043E+03  0.21738905144E+02  0.11629734105E+04  0.86488946151E+02 0.  0.
         13    1    3    3    0    0 -0.20419159664E+03  0.11654231860E+03 -0.70851980618E+01  0.23521590124E+03  0.00000000000E+00 0. -1.
        -13    1    3    3    0    0 -0.87310995978E+03  0.31238144182E+03  0.28824103206E+02  0.92775750926E+03  0.00000000000E+00 0.  1.
         22    1    1    2    0    0  0.10773015564E+04 -0.42892376043E+03  0.14515657213E+04  0.18578474854E+04  0.00000000000E+00 0. -1.
<mgrwt>
<rscale>  0 0.26371827E+04</rscale>
<asrwt>0</asrwt>
<pdfrwt beam="1">  1        2 0.34570196E+00 0.26371827E+04</pdfrwt>
<pdfrwt beam="2">  1       -2 0.11903971E+00 0.26371827E+04</pdfrwt>
<totfact> 0.23202861E+00</totfact>
</mgrwt>
</event>
<event>
 6    1  0.1817112E-005  0.6259526E+03  0.7818608E-02  0.9852979E-01
         -2   -1    0    0    0  501 -0.00000000000E+00  0.00000000000E+00  0.36117993903E+03  0.36117993903E+03  0.00000000000E+00 0.  1.
          2   -1    0    0  501    0  0.00000000000E+00 -0.00000000000E+00 -0.27120599834E+03  0.27120599834E+03  0.00000000000E+00 0. -1.
         23    2    1    2    0    0  0.57800598509E+02  0.15916377788E+03 -0.21248484486E+03  0.28575164256E+03  0.88488273545E+02 0.  0.
         11    1    3    3    0    0  0.64470127535E+02  0.49860446499E+02 -0.87352078952E+02  0.11946902179E+03  0.00000000000E+00 0. -1.
        -11    1    3    3    0    0 -0.66695290260E+01  0.10930333138E+03 -0.12513276591E+03  0.16628262078E+03  0.00000000000E+00 0.  1.
         22    1    1    2    0    0 -0.57800598509E+02 -0.15916377788E+03  0.30245878556E+03  0.34663429481E+03  0.00000000000E+00 0.  1.
<mgrwt>
<rscale>  0 0.62595261E+03</rscale>
<asrwt>0</asrwt>
<pdfrwt beam="1">  1        2 0.41724000E-01 0.62595261E+03</pdfrwt>
<pdfrwt beam="2">  1       -2 0.55566145E-01 0.62595261E+03</pdfrwt>
<totfact> 0.37754768E+02</totfact>
</mgrwt>
</event>
<event>
 6    1  0.1817112E-005  0.1208798E+04  0.7818608E-02  0.9105190E-01
         -2   -1    0    0    0  501 -0.00000000000E+00  0.00000000000E+00  0.65112000680E+03  0.65112000680E+03  0.00000000000E+00 0.  1.
          2   -1    0    0  501    0  0.00000000000E+00 -0.00000000000E+00 -0.56103033879E+03  0.56103033879E+03  0.00000000000E+00 0. -1.
         23    2    1    2    0    0  0.38863576654E+03  0.27357531691E+03  0.41077243877E+03  0.63881043548E+03  0.11603259444E+03 0.  0.
         13    1    3    3    0    0  0.15382572082E+03  0.84535634526E+02  0.85194445744E+02  0.19510694369E+03  0.00000000000E+00 0.  1.
        -13    1    3    3    0    0  0.23481004572E+03  0.18903968239E+03  0.32557799303E+03  0.44370349180E+03  0.00000000000E+00 0. -1.
         22    1    1    2    0    0 -0.38863576654E+03 -0.27357531691E+03 -0.32068277076E+03  0.57333991010E+03  0.00000000000E+00 0. -1.
<mgrwt>
<rscale>  0 0.12087979E+04</rscale>
<asrwt>0</asrwt>
<pdfrwt beam="1">  1        2 0.86312360E-01 0.12087979E+04</pdfrwt>
<pdfrwt beam="2">  1       -2 0.10017231E+00 0.12087979E+04</pdfrwt>
<totfact> 0.43629363E+01</totfact>
</mgrwt>
</event>
<event>
 6    1  0.1817112E-005  0.1579032E+04  0.7818608E-02  0.8833534E-01
         -2   -1    0    0    0  501 -0.00000000000E+00  0.00000000000E+00  0.24838171524E+03  0.24838171524E+03  0.00000000000E+00 0.  1.
          2   -1    0    0  501    0  0.00000000000E+00 -0.00000000000E+00 -0.25095869061E+04  0.25095869061E+04  0.00000000000E+00 0. -1.
         23    2    1    2    0    0 -0.26784730094E+03 -0.72634754610E+03 -0.13808851392E+04  0.15856690317E+04  0.90441010364E+02 0.  0.
         11    1    3    3    0    0 -0.22199940468E+03 -0.52004349835E+03 -0.10611606068E+04  0.12024104163E+04  0.00000000000E+00 0.  1.
        -11    1    3    3    0    0 -0.45847896258E+02 -0.20630404775E+03 -0.31972453239E+03  0.38325861546E+03  0.00000000000E+00 0. -1.
         22    1    1    2    0    0  0.26784730094E+03  0.72634754610E+03 -0.88032005173E+03  0.11722995896E+04  0.00000000000E+00 0.  1.
<mgrwt>
<rscale>  0 0.15790320E+04</rscale>
<asrwt>0</asrwt>
<pdfrwt beam="1">  1        2 0.38609029E+00 0.15790320E+04</pdfrwt>
<pdfrwt beam="2">  1       -2 0.38212572E-01 0.15790320E+04</pdfrwt>
<totfact> 0.21395001E+01</totfact>
</mgrwt>
</event>
<event>
 6    1  0.1817112E-005  0.9837783E+03  0.7818608E-02  0.9326518E-01
         -2   -1    0    0    0  501 -0.00000000000E+00  0.00000000000E+00  0.21534207139E+04  0.21534207139E+04  0.00000000000E+00 0. -1.
          2   -1    0    0  501    0  0.00000000000E+00 -0.00000000000E+00 -0.11235841280E+03  0.11235841280E+03  0.00000000000E+00 0.  1.
         23    2    1    2    0    0 -0.39545143307E+03  0.13105520143E+03  0.44617086868E+03  0.61737505519E+03  0.92337494974E+02 0.  0.
         13    1    3    3    0    0 -0.27945580956E+03  0.13371077986E+03  0.30642879317E+03  0.43574387824E+03  0.00000000000E+00 0.  1.
        -13    1    3    3    0    0 -0.11599562351E+03 -0.26555784339E+01  0.13974207551E+03  0.18163117695E+03  0.00000000000E+00 0. -1.
         22    1    1    2    0    0  0.39545143307E+03 -0.13105520143E+03  0.15948914324E+04  0.16484040715E+04  0.00000000000E+00 0. -1.
<mgrwt>
<rscale>  0 0.98377830E+03</rscale>
<asrwt>0</asrwt>
<pdfrwt beam="1">  1        2 0.17285911E-01 0.98377830E+03</pdfrwt>
<pdfrwt beam="2">  1       -2 0.33129546E+00 0.98377830E+03</pdfrwt>
<totfact> 0.70404794E+00</totfact>
</mgrwt>
</event>
<event>
 6    1  0.1817112E-005  0.2977988E+04  0.7818608E-02  0.8250045E-01
          2   -1    0    0  501    0  0.00000000000E+00  0.00000000000E+00  0.30050310987E+04  0.30050310987E+04  0.00000000000E+00 0. -1.
         -2   -1    0    0    0  501 -0.00000000000E+00 -0.00000000000E+00 -0.73779704492E+03  0.73779704492E+03  0.00000000000E+00 0.  1.
         23    2    1    2    0    0  0.96945086120E+03  0.53899220117E+03  0.23804657370E+04  0.26278532653E+04  0.92995129522E+02 0.  0.
         11    1    3    3    0    0  0.36525790799E+03  0.15555940165E+03  0.81171631643E+03  0.90360137514E+03  0.00000000000E+00 0. -1.
        -11    1    3    3    0    0  0.60419295321E+03  0.38343279952E+03  0.15687494205E+04  0.17242518902E+04  0.00000000000E+00 0.  1.
         22    1    1    2    0    0 -0.96945086120E+03 -0.53899220117E+03 -0.11323168315E+03  0.11149748783E+04  0.00000000000E+00 0.  1.
<mgrwt>
<rscale>  0 0.29779880E+04</rscale>
<asrwt>0</asrwt>
<pdfrwt beam="1">  1        2 0.46231247E+00 0.29779880E+04</pdfrwt>
<pdfrwt beam="2">  1       -2 0.11350724E+00 0.29779880E+04</pdfrwt>
<totfact> 0.90184732E-01</totfact>
</mgrwt>
</event>
<event>
 6    1  0.1817112E-005  0.3600844E+04  0.7818608E-02  0.8090298E-01
         -2   -1    0    0    0  501 -0.00000000000E+00  0.00000000000E+00  0.17650567441E+04  0.17650567441E+04  0.00000000000E+00 0.  1.
          2   -1    0    0  501    0  0.00000000000E+00 -0.00000000000E+00 -0.18364962236E+04  0.18364962236E+04  0.00000000000E+00 0. -1.
         23    2    1    2    0    0 -0.10766454655E+04  0.13427880510E+04 -0.56040972184E+03  0.18123248921E+04  0.90649046748E+02 0.  0.
         11    1    3    3    0    0 -0.34336097740E+03  0.42281770721E+03 -0.13343277672E+03  0.56078149063E+03  0.00000000000E+00 0. -1.
        -11    1    3    3    0    0 -0.73328448815E+03  0.91997034383E+03 -0.42697694512E+03  0.12515434015E+04  0.00000000000E+00 0.  1.
         22    1    1    2    0    0  0.10766454655E+04 -0.13427880510E+04  0.48897024232E+03  0.17892280756E+04  0.00000000000E+00 0.  1.
<mgrwt>
<rscale>  0 0.36008444E+04</rscale>
<asrwt>0</asrwt>
<pdfrwt beam="1">  1        2 0.28253788E+00 0.36008444E+04</pdfrwt>
<pdfrwt beam="2">  1       -2 0.27154719E+00 0.36008444E+04</pdfrwt>
<totfact> 0.31830548E-01</totfact>
</mgrwt>
</event>
<event>
 6    1  0.1817112E-005  0.5388814E+04  0.7818608E-02  0.7771176E-01
          2   -1    0    0  501    0  0.00000000000E+00  0.00000000000E+00  0.38426776971E+04  0.38426776971E+04  0.00000000000E+00 0. -1.
         -2   -1    0    0    0  501 -0.00000000000E+00 -0.00000000000E+00 -0.18892627989E+04  0.18892627989E+04  0.00000000000E+00 0.  1.
         23    2    1    2    0    0  0.10374467788E+04 -0.23309563237E+04  0.58507936157E+02  0.25538395541E+04  0.94974141310E+02 0.  0.
         13    1    3    3    0    0  0.14204539501E+03 -0.27657028355E+03 -0.18663790742E+02  0.31147448221E+03  0.00000000000E+00 0. -1.
        -13    1    3    3    0    0  0.89540138381E+03 -0.20543860402E+04  0.77171726898E+02  0.22423650719E+04  0.00000000000E+00 0.  1.
         22    1    1    2    0    0 -0.10374467788E+04  0.23309563237E+04  0.18949069621E+04  0.31781009419E+04  0.00000000000E+00 0. -1.
<mgrwt>
<rscale>  0 0.53888136E+04</rscale>
<asrwt>0</asrwt>
<pdfrwt beam="1">  1        2 0.59118118E+00 0.53888136E+04</pdfrwt>
<pdfrwt beam="2">  1       -2 0.29065582E+00 0.53888136E+04</pdfrwt>
<totfact> 0.11613187E-02</totfact>
</mgrwt>
</event>
<event>
 6    1  0.1817112E-005  0.5693533E+04  0.7818608E-02  0.7729606E-01
          1   -1    0    0  501    0  0.00000000000E+00  0.00000000000E+00  0.34988119883E+04  0.34988119883E+04  0.00000000000E+00 0. -1.
         -1   -1    0    0    0  501 -0.00000000000E+00 -0.00000000000E+00 -0.23162374575E+04  0.23162374575E+04  0.00000000000E+00 0.  1.
         23    2    1    2    0    0  0.10456201754E+04 -0.28852032496E+03 -0.20959198205E+04  0.23617769774E+04  0.92439538448E+02 0.  0.
         11    1    3    3    0    0  0.28961939540E+03 -0.58500544589E+02 -0.49572203733E+03  0.57709795200E+03  0.00000000000E+00 0. -1.
        -11    1    3    3    0    0  0.75600077999E+03 -0.23001978037E+03 -0.16001977831E+04  0.17846790254E+04  0.00000000000E+00 0.  1.
         22    1    1    2    0    0 -0.10456201754E+04  0.28852032496E+03  0.32784943513E+04  0.34532724684E+04  0.00000000000E+00 0. -1.
<mgrwt>
<rscale>  0 0.56935330E+04</rscale>
<asrwt>0</asrwt>
<pdfrwt beam="1">  1        1 0.53827877E+00 0.56935330E+04</pdfrwt>
<pdfrwt beam="2">  1       -1 0.35634422E+00 0.56935330E+04</pdfrwt>
<totfact> 0.24122271E-03</totfact>
</mgrwt>
</event>
<event>
 6    1  0.1817112E-005  0.4063803E+04  0.7818608E-02  0.7991798E-01
          2   -1    0    0  501    0  0.00000000000E+00  0.00000000000E+00  0.25900607674E+04  0.25900607674E+04  0.00000000000E+00 0. -1.
         -2   -1    0    0    0  501 -0.00000000000E+00 -0.00000000000E+00 -0.15940255685E+04  0.15940255685E+04  0.00000000000E+00 0.  1.
         23    2    1    2    0    0 -0.93389033565E+03 -0.14366880920E+04  0.16203078267E+04  0.23603703090E+04  0.98624081637E+02 0.  0.
         11    1    3    3    0    0 -0.20556768835E+03 -0.37963693014E+03  0.44297661739E+03  0.61855521724E+03  0.00000000000E+00 0. -1.
        -11    1    3    3    0    0 -0.72832264730E+03 -0.10570511619E+04  0.11773312093E+04  0.17418150918E+04  0.00000000000E+00 0.  1.
         22    1    1    2    0    0  0.93389033565E+03  0.14366880920E+04 -0.62427262781E+03  0.18237160269E+04  0.00000000000E+00 0.  1.
<mgrwt>
<rscale>  0 0.40638027E+04</rscale>
<asrwt>0</asrwt>
<pdfrwt beam="1">  1        2 0.39847089E+00 0.40638027E+04</pdfrwt>
<pdfrwt beam="2">  1       -2 0.24523470E+00 0.40638027E+04</pdfrwt>
<totfact> 0.16643588E-01</totfact>
</mgrwt>
</event>
<event>
 6    1  0.1817112E-005  0.1431556E+04  0.7818608E-02  0.8931288E-01
         -2   -1    0    0    0  501 -0.00000000000E+00  0.00000000000E+00  0.39207079019E+03  0.39207079019E+03  0.00000000000E+00 0. -1.
          2   -1    0    0  501    0  0.00000000000E+00 -0.00000000000E+00 -0.13067487993E+04  0.13067487993E+04  0.00000000000E+00 0.  1.
         23    2    1    2    0    0 -0.13170470360E+03 -0.16657633060E+03 -0.12666337668E+04  0.12877640478E+04  0.94240865614E+02 0.  0.
         13    1    3    3    0    0 -0.56186995998E+02 -0.12911810868E+02 -0.42486206784E+03  0.42875572307E+03  0.00000000000E+00 0.  1.
        -13    1    3    3    0    0 -0.75517707597E+02 -0.15366451973E+03 -0.84177169899E+03  0.85900832476E+03  0.00000000000E+00 0. -1.
         22    1    1    2    0    0  0.13170470360E+03  0.16657633060E+03  0.35195575777E+03  0.41105554161E+03  0.00000000000E+00 0. -1.
<mgrwt>
<rscale>  0 0.14315558E+04</rscale>
<asrwt>0</asrwt>
<pdfrwt beam="1">  1        2 0.20103828E+00 0.14315558E+04</pdfrwt>
<pdfrwt beam="2">  1       -2 0.60318582E-01 0.14315558E+04</pdfrwt>
<totfact> 0.40739935E+01</totfact>
</mgrwt>
</event>
<event>
 6    1  0.1817112E-005  0.1299455E+04  0.7818608E-02  0.9029998E-01
          2   -1    0    0  501    0  0.00000000000E+00  0.00000000000E+00  0.31722661190E+04  0.31722661190E+04  0.00000000000E+00 0. -1.
         -2   -1    0    0    0  501 -0.00000000000E+00 -0.00000000000E+00 -0.13307381450E+03  0.13307381450E+03  0.00000000000E+00 0.  1.
         23    2    1    2    0    0 -0.61693822337E+03 -0.19134639490E+03  0.14691799891E+04  0.16076459432E+04  0.93858531373E+02 0.  0.
         11    1    3    3    0    0 -0.50636017217E+03 -0.12292874529E+03  0.11283670412E+04  0.12428693737E+04  0.00000000000E+00 0. -1.
        -11    1    3    3    0    0 -0.11057805121E+03 -0.68417649608E+02  0.34081294797E+03  0.36477656955E+03  0.00000000000E+00 0.  1.
         22    1    1    2    0    0  0.61693822337E+03  0.19134639490E+03  0.15700123154E+04  0.16976939903E+04  0.00000000000E+00 0. -1.
<mgrwt>
<rscale>  0 0.12994546E+04</rscale>
<asrwt>0</asrwt>
<pdfrwt beam="1">  1        2 0.48804089E+00 0.12994546E+04</pdfrwt>
<pdfrwt beam="2">  1       -2 0.20472897E-01 0.12994546E+04</pdfrwt>
<totfact> 0.27574629E+01</totfact>
</mgrwt>
</event>
<event>
 6    1  0.1817112E-005  0.2156274E+04  0.7818608E-02  0.8536851E-01
         -2   -1    0    0    0  501 -0.00000000000E+00  0.00000000000E+00  0.10443701861E+04  0.10443701861E+04  0.00000000000E+00 0.  1.
          2   -1    0    0  501    0  0.00000000000E+00 -0.00000000000E+00 -0.11129957410E+04  0.11129957410E+04  0.00000000000E+00 0. -1.
         23    2    1    2    0    0 -0.40694868851E+03  0.15992633399E+03 -0.10181370215E+04  0.11120163720E+04  0.93774995448E+02 0.  0.
         11    1    3    3    0    0 -0.82516886079E+02  0.75349051907E+02 -0.26799041489E+03  0.29035388508E+03  0.00000000000E+00 0.  1.
        -11    1    3    3    0    0 -0.32443180243E+03  0.84577282082E+02 -0.75014660657E+03  0.82166248693E+03  0.00000000000E+00 0. -1.
         22    1    1    2    0    0  0.40694868851E+03 -0.15992633399E+03  0.94951146647E+03  0.10453495551E+04  0.00000000000E+00 0.  1.
<mgrwt>
<rscale>  0 0.21562742E+04</rscale>
<asrwt>0</asrwt>
<pdfrwt beam="1">  1        2 0.17123011E+00 0.21562742E+04</pdfrwt>
<pdfrwt beam="2">  1       -2 0.16067234E+00 0.21562742E+04</pdfrwt>
<totfact> 0.48857000E+00</totfact>
</mgrwt>
</event>
<event>
 6    1  0.1817112E-005  0.2139269E+04  0.7818608E-02  0.8544140E-01
         -2   -1    0    0    0  501 -0.00000000000E+00  0.00000000000E+00  0.72737434877E+03  0.72737434877E+03  0.00000000000E+00 0.  1.
          2   -1    0    0  501    0  0.00000000000E+00 -0.00000000000E+00 -0.15729422219E+04  0.15729422219E+04  0.00000000000E+00 0. -1.
         23    2    1    2    0    0  0.49679651074E+03 -0.83286829994E+03 -0.90390549414E+03  0.13287818795E+04  0.90220634510E+02 0.  0.
         13    1    3    3    0    0  0.66742075931E+02 -0.18054605548E+03 -0.16930301372E+03  0.25634916287E+03  0.00000000000E+00 0. -1.
        -13    1    3    3    0    0  0.43005443481E+03 -0.65232224446E+03 -0.73460248042E+03  0.10724327167E+04  0.00000000000E+00 0.  1.
         22    1    1    2    0    0 -0.49679651074E+03  0.83286829994E+03  0.58337620980E+02  0.97153469117E+03  0.00000000000E+00 0.  1.
<mgrwt>
<rscale>  0 0.21392689E+04</rscale>
<asrwt>0</asrwt>
<pdfrwt beam="1">  1        2 0.24199111E+00 0.21392689E+04</pdfrwt>
<pdfrwt beam="2">  1       -2 0.11190375E+00 0.21392689E+04</pdfrwt>
<totfact> 0.66863049E+00</totfact>
</mgrwt>
</event>
<event>
 6    1  0.1817112E-005  0.1554900E+04  0.7818608E-02  0.8848744E-01
          1   -1    0    0  501    0  0.00000000000E+00  0.00000000000E+00  0.52036779645E+03  0.52036779645E+03  0.00000000000E+00 0. -1.
         -1   -1    0    0    0  501 -0.00000000000E+00 -0.00000000000E+00 -0.11615405935E+04  0.11615405935E+04  0.00000000000E+00 0.  1.
         23    2    1    2    0    0 -0.30647468983E+03  0.59832463183E+03  0.95031093818E+02  0.68495539734E+03  0.90630497025E+02 0.  0.
         11    1    3    3    0    0 -0.10595638353E+03  0.19175714255E+03 -0.11124651610E+02  0.21936571018E+03  0.00000000000E+00 0.  1.
        -11    1    3    3    0    0 -0.20051830630E+03  0.40656748928E+03  0.10615574543E+03  0.46558968716E+03  0.00000000000E+00 0. -1.
         22    1    1    2    0    0  0.30647468983E+03 -0.59832463183E+03 -0.73620389088E+03  0.99695299262E+03  0.00000000000E+00 0.  1.
<mgrwt>
<rscale>  0 0.15548998E+04</rscale>
<asrwt>0</asrwt>
<pdfrwt beam="1">  1        1 0.80056585E-01 0.15548998E+04</pdfrwt>
<pdfrwt beam="2">  1       -1 0.17869855E+00 0.15548998E+04</pdfrwt>
<totfact> 0.85859440E+00</totfact>
</mgrwt>
</event>
<event>
 6    1  0.1817112E-005  0.1148722E+04  0.7818608E-02  0.9158963E-01
         -2   -1    0    0    0  501 -0.00000000000E+00  0.00000000000E+00  0.47333664563E+03  0.47333664563E+03  0.00000000000E+00 0.  1.
          2   -1    0    0  501    0  0.00000000000E+00 -0.00000000000E+00 -0.69694710706E+03  0.69694710706E+03  0.00000000000E+00 0. -1.
         23    2    1    2    0    0  0.10738631447E+03  0.40513084331E+03  0.28216364154E+03  0.51341979115E+03  0.91218093591E+02 0.  0.
         11    1    3    3    0    0  0.84622473941E+01  0.14566017571E+03  0.59853182742E+02  0.15770510424E+03  0.00000000000E+00 0. -1.
        -11    1    3    3    0    0  0.98924067072E+02  0.25947066760E+03  0.22231045880E+03  0.35571468691E+03  0.00000000000E+00 0.  1.
         22    1    1    2    0    0 -0.10738631447E+03 -0.40513084331E+03 -0.50577410297E+03  0.65686396154E+03  0.00000000000E+00 0. -1.
<mgrwt>
<rscale>  0 0.11487221E+04</rscale>
<asrwt>0</asrwt>
<pdfrwt beam="1">  1        2 0.10722263E+00 0.11487221E+04</pdfrwt>
<pdfrwt beam="2">  1       -2 0.72821023E-01 0.11487221E+04</pdfrwt>
<totfact> 0.69557313E+01</totfact>
</mgrwt>
</event>
<event>
 6    1  0.1817112E-005  0.2280307E+04  0.7818608E-02  0.8485727E-01
         -2   -1    0    0    0  501 -0.00000000000E+00  0.00000000000E+00  0.29622930055E+03  0.29622930055E+03  0.00000000000E+00 0.  1.
          2   -1    0    0  501    0  0.00000000000E+00 -0.00000000000E+00 -0.43883217041E+04  0.43883217041E+04  0.00000000000E+00 0. -1.
         23    2    1    2    0    0 -0.68495036016E+03  0.55584319215E+03 -0.35273547417E+04  0.36371507579E+04  0.92279530856E+02 0.  0.
         13    1    3    3    0    0 -0.16484757727E+03  0.13342008993E+03 -0.10199823655E+04  0.10417963669E+04  0.00000000000E+00 0.  1.
        -13    1    3    3    0    0 -0.52010278289E+03  0.42242310222E+03 -0.25073723762E+04  0.25953543910E+04  0.00000000000E+00 0. -1.
         22    1    1    2    0    0  0.68495036016E+03 -0.55584319215E+03 -0.56473766182E+03  0.10474002467E+04  0.00000000000E+00 0.  1.
<mgrwt>
<rscale>  0 0.22803065E+04</rscale>
<asrwt>0</asrwt>
<pdfrwt beam="1">  1        2 0.67512639E+00 0.22803065E+04</pdfrwt>
<pdfrwt beam="2">  1       -2 0.45573741E-01 0.22803065E+04</pdfrwt>
<totfact> 0.65843101E-01</totfact>
</mgrwt>
</event>
<event>
 6    1  0.1817112E-005  0.3990644E+04  0.7818608E-02  0.8006437E-01
          2   -1    0    0  501    0  0.00000000000E+00  0.00000000000E+00  0.25012409264E+04  0.25012409264E+04  0.00000000000E+00 0. -1.
         -2   -1    0    0    0  501 -0.00000000000E+00 -0.00000000000E+00 -0.15917336550E+04  0.15917336550E+04  0.00000000000E+00 0.  1.
         23    2    1    2    0    0 -0.22258550680E+03 -0.10218813210E+04 -0.12866014759E+04  0.16605520499E+04  0.91126343395E+02 0.  0.
         13    1    3    3    0    0 -0.91303713418E+02 -0.24119464357E+03 -0.30043181695E+03  0.39594254735E+03  0.00000000000E+00 0.  1.
        -13    1    3    3    0    0 -0.13128179338E+03 -0.78068667747E+03 -0.98616965893E+03  0.12646095025E+04  0.00000000000E+00 0. -1.
         22    1    1    2    0    0  0.22258550680E+03  0.10218813210E+04  0.21961087473E+04  0.24324225316E+04  0.00000000000E+00 0. -1.
<mgrwt>
<rscale>  0 0.39906437E+04</rscale>
<asrwt>0</asrwt>
<pdfrwt beam="1">  1        2 0.38480630E+00 0.39906437E+04</pdfrwt>
<pdfrwt beam="2">  1       -2 0.24488210E+00 0.39906437E+04</pdfrwt>
<totfact> 0.18959723E-01</totfact>
</mgrwt>
</event>
<event>
 6    1  0.1817112E-005  0.1209580E+04  0.7818608E-02  0.9104512E-01
         -1   -1    0    0    0  501 -0.00000000000E+00  0.00000000000E+00  0.76653151271E+03  0.76653151271E+03  0.00000000000E+00 0.  1.
          1   -1    0    0  501    0  0.00000000000E+00 -0.00000000000E+00 -0.47717674935E+03  0.47717674935E+03  0.00000000000E+00 0. -1.
         23    2    1    2    0    0  0.15497667372E+03  0.41058963958E+03 -0.27773926827E+03  0.52663276936E+03  0.87185727593E+02 0.  0.
         13    1    3    3    0    0  0.11671331954E+03  0.18596984484E+03 -0.13905156293E+03  0.25988866713E+03  0.00000000000E+00 0. -1.
        -13    1    3    3    0    0  0.38263354174E+02  0.22461979474E+03 -0.13868770534E+03  0.26674410223E+03  0.00000000000E+00 0.  1.
         22    1    1    2    0    0 -0.15497667372E+03 -0.41058963958E+03  0.56709403163E+03  0.71707549270E+03  0.00000000000E+00 0.  1.
<mgrwt>
<rscale>  0 0.12095801E+04</rscale>
<asrwt>0</asrwt>
<pdfrwt beam="1">  1        1 0.73411808E-01 0.12095801E+04</pdfrwt>
<pdfrwt beam="2">  1       -1 0.11792792E+00 0.12095801E+04</pdfrwt>
<totfact> 0.30212898E+01</totfact>
</mgrwt>
</event>
<event>
 6    1  0.1817112E-005  0.2374357E+04  0.7818608E-02  0.8449167E-01
         -1   -1    0    0    0  501 -0.00000000000E+00  0.00000000000E+00  0.15884514999E+04  0.15884514999E+04  0.00000000000E+00 0.  1.
          1   -1    0    0  501    0  0.00000000000E+00 -0.00000000000E+00 -0.88727451901E+03  0.88727451901E+03  0.00000000000E+00 0. -1.
         23    2    1    2    0    0 -0.96445630218E+03  0.46018252613E+03 -0.18402505590E+03  0.10880925795E+04  0.90201575305E+02 0.  0.
         11    1    3    3    0    0 -0.57481786148E+03  0.28181359262E+03 -0.65785155109E+02  0.64355431899E+03  0.00000000000E+00 0.  1.
        -11    1    3    3    0    0 -0.38963844070E+03  0.17836893351E+03 -0.11823990080E+03  0.44453826051E+03  0.00000000000E+00 0. -1.
         22    1    1    2    0    0  0.96445630218E+03 -0.46018252613E+03  0.88520203678E+03  0.13876334394E+04  0.00000000000E+00 0.  1.
<mgrwt>
<rscale>  0 0.23743568E+04</rscale>
<asrwt>0</asrwt>
<pdfrwt beam="1">  1        1 0.13650377E+00 0.23743568E+04</pdfrwt>
<pdfrwt beam="2">  1       -1 0.24437715E+00 0.23743568E+04</pdfrwt>
<totfact> 0.12703846E+00</totfact>
</mgrwt>
</event>
<event>
 6    1  0.1817112E-005  0.8777605E+03  0.7818608E-02  0.9453817E-01
         -2   -1    0    0    0  501 -0.00000000000E+00  0.00000000000E+00  0.59289623977E+03  0.59289623977E+03  0.00000000000E+00 0.  1.
          2   -1    0    0  501    0  0.00000000000E+00 -0.00000000000E+00 -0.32487283720E+03  0.32487283720E+03  0.00000000000E+00 0. -1.
         23    2    1    2    0    0 -0.21352740955E+03  0.22335766140E+03 -0.18297417988E+03  0.37106859324E+03  0.93433135711E+02 0.  0.
         13    1    3    3    0    0 -0.62021343921E+02  0.75661350775E+02 -0.11009743315E+03  0.14728452698E+03  0.00000000000E+00 0. -1.
        -13    1    3    3    0    0 -0.15150606563E+03  0.14769631063E+03 -0.72876746730E+02  0.22378406625E+03  0.00000000000E+00 0.  1.
         22    1    1    2    0    0  0.21352740955E+03 -0.22335766140E+03  0.45099758245E+03  0.54670048373E+03  0.00000000000E+00 0.  1.
<mgrwt>
<rscale>  0 0.87776052E+03</rscale>
<asrwt>0</asrwt>
<pdfrwt beam="1">  1        2 0.49980437E-01 0.87776052E+03</pdfrwt>
<pdfrwt beam="2">  1       -2 0.91214806E-01 0.87776052E+03</pdfrwt>
<totfact> 0.10338257E+02</totfact>
</mgrwt>
</event>
<event>
 6    1  0.1817112E-005  0.2415334E+04  0.7818608E-02  0.8433785E-01
         -2   -1    0    0    0  501 -0.00000000000E+00  0.00000000000E+00  0.11483907295E+04  0.11483907295E+04  0.00000000000E+00 0.  1.
          2   -1    0    0  501    0  0.00000000000E+00 -0.00000000000E+00 -0.12700024700E+04  0.12700024700E+04  0.00000000000E+00 0. -1.
         23    2    1    2    0    0  0.85868982767E+03  0.52743497104E+03 -0.72387495622E+03  0.12444013555E+04  0.94888948768E+02 0.  0.
         11    1    3    3    0    0  0.25062495975E+03  0.10909674533E+03 -0.17414514036E+03  0.32410106480E+03  0.00000000000E+00 0.  1.
        -11    1    3    3    0    0  0.60806486791E+03  0.41833822571E+03 -0.54972981586E+03  0.92030029074E+03  0.00000000000E+00 0. -1.
         22    1    1    2    0    0 -0.85868982767E+03 -0.52743497104E+03  0.60226321574E+03  0.11739918440E+04  0.00000000000E+00 0.  1.
<mgrwt>
<rscale>  0 0.24153336E+04</rscale>
<asrwt>0</asrwt>
<pdfrwt beam="1">  1        2 0.19538500E+00 0.24153336E+04</pdfrwt>
<pdfrwt beam="2">  1       -2 0.17667550E+00 0.24153336E+04</pdfrwt>
<totfact> 0.29567139E+00</totfact>
</mgrwt>
</event>
<event>
 6    1  0.1817112E-005  0.5351111E+04  0.7818608E-02  0.7776515E-01
          2   -1    0    0  501    0  0.00000000000E+00  0.00000000000E+00  0.35488583700E+04  0.35488583700E+04  0.00000000000E+00 0. -1.
         -2   -1    0    0    0  501 -0.00000000000E+00 -0.00000000000E+00 -0.20171551631E+04  0.20171551631E+04  0.00000000000E+00 0.  1.
         23    2    1    2    0    0  0.20462949789E+04  0.12998499362E+04  0.19416356203E+04  0.31073599217E+04  0.93828584824E+02 0.  0.
         11    1    3    3    0    0  0.16855945577E+04  0.10778821163E+04  0.15565158824E+04  0.25349162829E+04  0.00000000000E+00 0.  1.
        -11    1    3    3    0    0  0.36070042129E+03  0.22196781991E+03  0.38511973792E+03  0.57244363874E+03  0.00000000000E+00 0. -1.
         22    1    1    2    0    0 -0.20462949789E+04 -0.12998499362E+04 -0.40993241341E+03  0.24586536114E+04  0.00000000000E+00 0.  1.
<mgrwt>
<rscale>  0 0.53511113E+04</rscale>
<asrwt>0</asrwt>
<pdfrwt beam="1">  1        2 0.54597821E+00 0.53511113E+04</pdfrwt>
<pdfrwt beam="2">  1       -2 0.31033156E+00 0.53511113E+04</pdfrwt>
<totfact> 0.14572087E-02</totfact>
</mgrwt>
</event>
<event>
 6    1  0.1817112E-005  0.1362613E+04  0.7818608E-02  0.8981335E-01
          2   -1    0    0  501    0  0.00000000000E+00  0.00000000000E+00  0.99749215529E+03  0.99749215529E+03  0.00000000000E+00 0.  1.
         -2   -1    0    0    0  501 -0.00000000000E+00 -0.00000000000E+00 -0.46534568405E+03  0.46534568405E+03  0.00000000000E+00 0. -1.
         23    2    1    2    0    0 -0.47834911310E+03  0.33698233824E+03  0.63581316580E+03  0.86859735447E+03  0.88476053743E+02 0.  0.
         11    1    3    3    0    0 -0.34318044140E+03  0.19180167181E+03  0.43497525326E+03  0.58631405204E+03  0.00000000000E+00 0.  1.
        -11    1    3    3    0    0 -0.13516867170E+03  0.14518066644E+03  0.20083791254E+03  0.28228330243E+03  0.00000000000E+00 0. -1.
         22    1    1    2    0    0  0.47834911310E+03 -0.33698233824E+03 -0.10366669456E+03  0.59424048487E+03  0.00000000000E+00 0. -1.
<mgrwt>
<rscale>  0 0.13626132E+04</rscale>
<asrwt>0</asrwt>
<pdfrwt beam="1">  1        2 0.15346033E+00 0.13626132E+04</pdfrwt>
<pdfrwt beam="2">  1       -2 0.71591644E-01 0.13626132E+04</pdfrwt>
<totfact> 0.43670754E+01</totfact>
</mgrwt>
</event>
<event>
 6    1  0.1817112E-005  0.3576774E+04  0.7818608E-02  0.8095833E-01
         -2   -1    0    0    0  501 -0.00000000000E+00  0.00000000000E+00  0.10679781026E+04  0.10679781026E+04  0.00000000000E+00 0.  1.
          2   -1    0    0  501    0  0.00000000000E+00 -0.00000000000E+00 -0.29947503340E+04  0.29947503340E+04  0.00000000000E+00 0. -1.
         23    2    1    2    0    0 -0.17331708162E+04 -0.19037598773E+02 -0.14593168157E+04  0.22675242493E+04  0.88414616170E+02 0.  0.
         13    1    3    3    0    0 -0.94370603958E+03 -0.33996384568E+02 -0.84318560174E+03  0.12659774099E+04  0.00000000000E+00 0. -1.
        -13    1    3    3    0    0 -0.78946477664E+03  0.14958785795E+02 -0.61613121392E+03  0.10015468394E+04  0.00000000000E+00 0.  1.
         22    1    1    2    0    0  0.17331708162E+04  0.19037598773E+02 -0.46745541574E+03  0.17952041873E+04  0.00000000000E+00 0.  1.
<mgrwt>
<rscale>  0 0.35767738E+04</rscale>
<asrwt>0</asrwt>
<pdfrwt beam="1">  1        2 0.46073081E+00 0.35767738E+04</pdfrwt>
<pdfrwt beam="2">  1       -2 0.16430433E+00 0.35767738E+04</pdfrwt>
<totfact> 0.33532456E-01</totfact>
</mgrwt>
</event>
<event>
 6    1  0.1817112E-005  0.3611288E+04  0.7818608E-02  0.8087911E-01
          2   -1    0    0  501    0  0.00000000000E+00  0.00000000000E+00  0.30346091012E+04  0.30346091012E+04  0.00000000000E+00 0. -1.
         -2   -1    0    0    0  501 -0.00000000000E+00 -0.00000000000E+00 -0.10743886420E+04  0.10743886420E+04  0.00000000000E+00 0.  1.
         23    2    1    2    0    0  0.16656860923E+04  0.55693575382E+03  0.50824100890E+03  0.18301971999E+04  0.81395794503E+02 0.  0.
         11    1    3    3    0    0  0.39257890970E+03  0.10422975373E+03  0.14133466491E+03  0.43006688946E+03  0.00000000000E+00 0.  1.
        -11    1    3    3    0    0  0.12731071826E+04  0.45270600008E+03  0.36690634399E+03  0.14001303105E+04  0.00000000000E+00 0. -1.
         22    1    1    2    0    0 -0.16656860923E+04 -0.55693575382E+03  0.14519794503E+04  0.22788005433E+04  0.00000000000E+00 0. -1.
<mgrwt>
<rscale>  0 0.36112876E+04</rscale>
<asrwt>0</asrwt>
<pdfrwt beam="1">  1        2 0.46686293E+00 0.36112876E+04</pdfrwt>
<pdfrwt beam="2">  1       -2 0.16529056E+00 0.36112876E+04</pdfrwt>
<totfact> 0.31044168E-01</totfact>
</mgrwt>
</event>
<event>
 6    1  0.1899084E-005  0.2394961E+04  0.7818608E-02  0.8441393E-01
          2   -1    0    0  501    0  0.00000000000E+00  0.00000000000E+00  0.16748443081E+04  0.16748443081E+04  0.00000000000E+00 0. -1.
         -2   -1    0    0    0  501 -0.00000000000E+00 -0.00000000000E+00 -0.85617456620E+03  0.85617456620E+03  0.00000000000E+00 0.  1.
         23    2    1    2    0    0 -0.73545105553E+03  0.15357669424E+03  0.13930093165E+04  0.15853233614E+04  0.91110637506E+02 0.  0.
         11    1    3    3    0    0 -0.21512433234E+03  0.47003635785E+02  0.32553565109E+03  0.39301562345E+03  0.00000000000E+00 0.  1.
        -11    1    3    3    0    0 -0.52032672319E+03  0.10657305845E+03  0.10674736654E+04  0.11923077380E+04  0.00000000000E+00 0. -1.
         22    1    1    2    0    0  0.73545105553E+03 -0.15357669424E+03 -0.57433957462E+03  0.94569551287E+03  0.00000000000E+00 0.  1.
<mgrwt>
<rscale>  0 0.23949606E+04</rscale>
<asrwt>0</asrwt>
<pdfrwt beam="1">  1        2 0.25766835E+00 0.23949606E+04</pdfrwt>
<pdfrwt beam="2">  1       -2 0.13171916E+00 0.23949606E+04</pdfrwt>
<totfact> 0.38279485E+00</totfact>
</mgrwt>
</event>
<event>
 6    1  0.1817112E-005  0.2304444E+04  0.7818608E-02  0.8476171E-01
          2   -1    0    0  501    0  0.00000000000E+00  0.00000000000E+00  0.18610967111E+04  0.18610967111E+04  0.00000000000E+00 0. -1.
         -2   -1    0    0    0  501 -0.00000000000E+00 -0.00000000000E+00 -0.71335096954E+03  0.71335096954E+03  0.00000000000E+00 0.  1.
         23    2    1    2    0    0  0.15365507782E+03  0.51650552647E+03 -0.56046052599E+03  0.78325911036E+03  0.94820836075E+02 0.  0.
         13    1    3    3    0    0  0.81874702741E+02  0.31182669861E+03 -0.26858983183E+03  0.41961870153E+03  0.00000000000E+00 0. -1.
        -13    1    3    3    0    0  0.71780375083E+02  0.20467882786E+03 -0.29187069416E+03  0.36364040883E+03  0.00000000000E+00 0.  1.
         22    1    1    2    0    0 -0.15365507782E+03 -0.51650552647E+03  0.17082062675E+04  0.17911885702E+04  0.00000000000E+00 0. -1.
<mgrwt>
<rscale>  0 0.23044437E+04</rscale>
<asrwt>0</asrwt>
<pdfrwt beam="1">  1        2 0.28632257E+00 0.23044437E+04</pdfrwt>
<pdfrwt beam="2">  1       -2 0.10974630E+00 0.23044437E+04</pdfrwt>
<totfact> 0.47787653E+00</totfact>
</mgrwt>
</event>
<event>
 6    1  0.1817112E-005  0.1383954E+04  0.7818608E-02  0.8965516E-01
         -2   -1    0    0    0  501 -0.00000000000E+00  0.00000000000E+00  0.28684925669E+03  0.28684925669E+03  0.00000000000E+00 0.  1.
          2   -1    0    0  501    0  0.00000000000E+00 -0.00000000000E+00 -0.16692823685E+04  0.16692823685E+04  0.00000000000E+00 0. -1.
         23    2    1    2    0    0 -0.62592258661E+03 -0.23483998481E+03 -0.45874629765E+03  0.81590084436E+03  0.91198241897E+02 0.  0.
         11    1    3    3    0    0 -0.13886631325E+03 -0.84156902221E+02 -0.14182862034E+03  0.21559590602E+03  0.00000000000E+00 0. -1.
        -11    1    3    3    0    0 -0.48705627336E+03 -0.15068308259E+03 -0.31691767731E+03  0.60030493834E+03  0.00000000000E+00 0.  1.
         22    1    1    2    0    0  0.62592258661E+03  0.23483998481E+03 -0.92368681416E+03  0.11402307808E+04  0.00000000000E+00 0. -1.
<mgrwt>
<rscale>  0 0.13839543E+04</rscale>
<asrwt>0</asrwt>
<pdfrwt beam="1">  1        2 0.25681267E+00 0.13839543E+04</pdfrwt>
<pdfrwt beam="2">  1       -2 0.44130655E-01 0.13839543E+04</pdfrwt>
<totfact> 0.48395112E+01</totfact>
</mgrwt>
</event>
<event>
 6    1  0.1817112E-005  0.1012069E+04  0.7818608E-02  0.9295405E-01
         -2   -1    0    0    0  501 -0.00000000000E+00  0.00000000000E+00  0.38173074434E+03  0.38173074434E+03  0.00000000000E+00 0.  1.
          2   -1    0    0  501    0  0.00000000000E+00 -0.00000000000E+00 -0.67081611845E+03  0.67081611845E+03  0.00000000000E+00 0. -1.
         23    2    1    2    0    0 -0.71473995646E+02 -0.20060355993E+03  0.32688994654E+03  0.40079850954E+03  0.91826400276E+02 0.  0.
         11    1    3    3    0    0 -0.53589562703E+02 -0.50421891021E+02  0.64061428634E+02  0.97560621992E+02  0.00000000000E+00 0.  1.
        -11    1    3    3    0    0 -0.17884432943E+02 -0.15018166891E+03  0.26282851790E+03  0.30323788754E+03  0.00000000000E+00 0. -1.
         22    1    1    2    0    0  0.71473995646E+02  0.20060355993E+03 -0.61597532065E+03  0.65174835325E+03  0.00000000000E+00 0. -1.
<mgrwt>
<rscale>  0 0.10120694E+04</rscale>
<asrwt>0</asrwt>
<pdfrwt beam="1">  1        2 0.10320248E+00 0.10120694E+04</pdfrwt>
<pdfrwt beam="2">  1       -2 0.58727808E-01 0.10120694E+04</pdfrwt>
<totfact> 0.11694929E+02</totfact>
</mgrwt>
</event>
<event>
 6    1  0.1817112E-005  0.1106220E+04  0.7818608E-02  0.9199150E-01
          2   -1    0    0  501    0  0.00000000000E+00  0.00000000000E+00  0.16426222995E+03  0.16426222995E+03  0.00000000000E+00 0. -1.
         -2   -1    0    0    0  501 -0.00000000000E+00 -0.00000000000E+00 -0.18624538515E+04  0.18624538515E+04  0.00000000000E+00 0.  1.
         23    2    1    2    0    0  0.25760503900E+03 -0.20299289212E+03 -0.47611079716E+02  0.34386653515E+03  0.91711006498E+02 0.  0.
         13    1    3    3    0    0  0.13690349691E+03 -0.15816198194E+03 -0.87290122150E+01  0.20936565060E+03  0.00000000000E+00 0. -1.
        -13    1    3    3    0    0  0.12070154209E+03 -0.44830910180E+02 -0.38882067501E+02  0.13450088455E+03  0.00000000000E+00 0.  1.
         22    1    1    2    0    0 -0.25760503900E+03  0.20299289212E+03 -0.16505805418E+04  0.16828495463E+04  0.00000000000E+00 0.  1.
<mgrwt>
<rscale>  0 0.11062203E+04</rscale>
<asrwt>0</asrwt>
<pdfrwt beam="1">  1        2 0.25271112E-01 0.11062203E+04</pdfrwt>
<pdfrwt beam="2">  1       -2 0.28653136E+00 0.11062203E+04</pdfrwt>
<totfact> 0.83371979E+00</totfact>
</mgrwt>
</event>
<event>
 6    1  0.1817112E-005  0.3134804E+04  0.7818608E-02  0.8206251E-01
         -2   -1    0    0    0  501 -0.00000000000E+00  0.00000000000E+00  0.93335290755E+03  0.93335290755E+03  0.00000000000E+00 0.  1.
          2   -1    0    0  501    0  0.00000000000E+00 -0.00000000000E+00 -0.26321762829E+04  0.26321762829E+04  0.00000000000E+00 0. -1.
         23    2    1    2    0    0 -0.94910749552E+03 -0.10777043104E+04 -0.13952971216E+03  0.14457064746E+04  0.91362197940E+02 0.  0.
         13    1    3    3    0    0 -0.55263553762E+03 -0.69470637011E+03 -0.86362804189E+02  0.89189770269E+03  0.00000000000E+00 0.  1.
        -13    1    3    3    0    0 -0.39647195790E+03 -0.38299794032E+03 -0.53166907971E+02  0.55380877187E+03  0.00000000000E+00 0. -1.
         22    1    1    2    0    0  0.94910749552E+03  0.10777043104E+04 -0.15592936632E+04  0.21198227159E+04  0.00000000000E+00 0.  1.
<mgrwt>
<rscale>  0 0.31348042E+04</rscale>
<asrwt>0</asrwt>
<pdfrwt beam="1">  1        2 0.40495019E+00 0.31348042E+04</pdfrwt>
<pdfrwt beam="2">  1       -2 0.14359276E+00 0.31348042E+04</pdfrwt>
<totfact> 0.82885710E-01</totfact>
</mgrwt>
</event>
<event>
 6    1  0.1817112E-005  0.1839182E+04  0.7818608E-02  0.8685736E-01
          2   -1    0    0  501    0  0.00000000000E+00  0.00000000000E+00  0.26858633094E+04  0.26858633094E+04  0.00000000000E+00 0. -1.
         -2   -1    0    0    0  501 -0.00000000000E+00 -0.00000000000E+00 -0.31485139550E+03  0.31485139550E+03  0.00000000000E+00 0.  1.
         23    2    1    2    0    0  0.33970635810E+03  0.79447215393E+03  0.16909596142E+04  0.19011431777E+04  0.91730868706E+02 0.  0.
         13    1    3    3    0    0  0.10909676845E+03  0.34350190869E+03  0.64034026287E+03  0.73480018945E+03  0.00000000000E+00 0.  1.
        -13    1    3    3    0    0  0.23060958964E+03  0.45097024524E+03  0.10506193513E+04  0.11663429883E+04  0.00000000000E+00 0. -1.
         22    1    1    2    0    0 -0.33970635810E+03 -0.79447215393E+03  0.68005229977E+03  0.10995715272E+04  0.00000000000E+00 0.  1.
<mgrwt>
<rscale>  0 0.18391822E+04</rscale>
<asrwt>0</asrwt>
<pdfrwt beam="1">  1        2 0.41320973E+00 0.18391822E+04</pdfrwt>
<pdfrwt beam="2">  1       -2 0.48438678E-01 0.18391822E+04</pdfrwt>
<totfact> 0.10304432E+01</totfact>
</mgrwt>
</event>
<event>
 6    1  0.1817112E-005  0.2516902E+04  0.7818608E-02  0.8396989E-01
          2   -1    0    0  501    0  0.00000000000E+00  0.00000000000E+00  0.18125780910E+04  0.18125780910E+04  0.00000000000E+00 0. -1.
         -2   -1    0    0    0  501 -0.00000000000E+00 -0.00000000000E+00 -0.87372708660E+03  0.87372708660E+03  0.00000000000E+00 0.  1.
         23    2    1    2    0    0 -0.10396371460E+04 -0.48555482046E+03 -0.77122929926E+02  0.11537217657E+04  0.92288067096E+02 0.  0.
         13    1    3    3    0    0 -0.50973293474E+03 -0.18905380775E+03 -0.48733509330E+02  0.54584243323E+03  0.00000000000E+00 0. -1.
        -13    1    3    3    0    0 -0.52990421130E+03 -0.29650101272E+03 -0.28389420597E+02  0.60787933251E+03  0.00000000000E+00 0.  1.
         22    1    1    2    0    0  0.10396371460E+04  0.48555482046E+03  0.10159739343E+04  0.15325834119E+04  0.00000000000E+00 0. -1.
<mgrwt>
<rscale>  0 0.25169017E+04</rscale>
<asrwt>0</asrwt>
<pdfrwt beam="1">  1        2 0.27885817E+00 0.25169017E+04</pdfrwt>
<pdfrwt beam="2">  1       -2 0.13441955E+00 0.25169017E+04</pdfrwt>
<totfact> 0.30169236E+00</totfact>
</mgrwt>
</event>
<event>
 6    1  0.1817112E-005  0.3011607E+04  0.7818608E-02  0.8240424E-01
          2   -1    0    0  501    0  0.00000000000E+00  0.00000000000E+00  0.20185773528E+04  0.20185773528E+04  0.00000000000E+00 0.  1.
         -2   -1    0    0    0  501 -0.00000000000E+00 -0.00000000000E+00 -0.11232883327E+04  0.11232883327E+04  0.00000000000E+00 0. -1.
         23    2    1    2    0    0  0.10126867277E+04  0.60620454559E+03 -0.52525345149E+03  0.12949874348E+04  0.89904996816E+02 0.  0.
         11    1    3    3    0    0  0.70670357166E+03  0.37408741637E+03 -0.35751771331E+03  0.87589397110E+03  0.00000000000E+00 0.  1.
        -11    1    3    3    0    0  0.30598315604E+03  0.23211712922E+03 -0.16773573818E+03  0.41909346371E+03  0.00000000000E+00 0. -1.
         22    1    1    2    0    0 -0.10126867277E+04 -0.60620454559E+03  0.14205424716E+04  0.18468782507E+04  0.00000000000E+00 0.  1.
<mgrwt>
<rscale>  0 0.30116071E+04</rscale>
<asrwt>0</asrwt>
<pdfrwt beam="1">  1        2 0.31055036E+00 0.30116071E+04</pdfrwt>
<pdfrwt beam="2">  1       -2 0.17281359E+00 0.30116071E+04</pdfrwt>
<totfact> 0.11358716E+00</totfact>
</mgrwt>
</event>
<event>
 6    1  0.1817112E-005  0.1172888E+04  0.7818608E-02  0.9136924E-01
          2   -1    0    0  501    0  0.00000000000E+00  0.00000000000E+00  0.30355806874E+04  0.30355806874E+04  0.00000000000E+00 0.  1.
         -2   -1    0    0    0  501 -0.00000000000E+00 -0.00000000000E+00 -0.11329524391E+03  0.11329524391E+03  0.00000000000E+00 0. -1.
         23    2    1    2    0    0 -0.43922350790E+03  0.17494498690E+03  0.23851569562E+04  0.24333131806E+04  0.92283752534E+02 0.  0.
         11    1    3    3    0    0 -0.30897165805E+03  0.94262919508E+02  0.14373321358E+04  0.14731845275E+04  0.00000000000E+00 0.  1.
        -11    1    3    3    0    0 -0.13025184985E+03  0.80682067389E+02  0.94782482036E+03  0.96012865309E+03  0.00000000000E+00 0. -1.
         22    1    1    2    0    0  0.43922350790E+03 -0.17494498690E+03  0.53712848736E+03  0.71556275076E+03  0.00000000000E+00 0. -1.
<mgrwt>
<rscale>  0 0.11728885E+04</rscale>
<asrwt>0</asrwt>
<pdfrwt beam="1">  1        2 0.46701235E+00 0.11728885E+04</pdfrwt>
<pdfrwt beam="2">  1       -2 0.17430040E-01 0.11728885E+04</pdfrwt>
<totfact> 0.45129637E+01</totfact>
</mgrwt>
</event>
<event>
 6    1  0.1817112E-005  0.3462754E+04  0.7818608E-02  0.8122674E-01
          2   -1    0    0  501    0  0.00000000000E+00  0.00000000000E+00  0.16769242339E+04  0.16769242339E+04  0.00000000000E+00 0. -1.
         -2   -1    0    0    0  501 -0.00000000000E+00 -0.00000000000E+00 -0.17875979995E+04  0.17875979995E+04  0.00000000000E+00 0.  1.
         23    2    1    2    0    0 -0.83296645608E+03  0.97545787147E+03 -0.12170510218E+04  0.17705854551E+04  0.91697809413E+02 0.  0.
         13    1    3    3    0    0 -0.40293763310E+03  0.53283111704E+03 -0.66434122920E+03  0.94213428144E+03  0.00000000000E+00 0. -1.
        -13    1    3    3    0    0 -0.43002882298E+03  0.44262675442E+03 -0.55270979257E+03  0.82845117365E+03  0.00000000000E+00 0.  1.
         22    1    1    2    0    0  0.83296645608E+03 -0.97545787147E+03  0.11063772562E+04  0.16939367783E+04  0.00000000000E+00 0. -1.
<mgrwt>
<rscale>  0 0.34627541E+04</rscale>
<asrwt>0</asrwt>
<pdfrwt beam="1">  1        2 0.25798834E+00 0.34627541E+04</pdfrwt>
<pdfrwt beam="2">  1       -2 0.27501508E+00 0.34627541E+04</pdfrwt>
<totfact> 0.37605154E-01</totfact>
</mgrwt>
</event>
<event>
 6    1  0.1817112E-005  0.2444530E+04  0.7818608E-02  0.8423018E-01
          1   -1    0    0  501    0  0.00000000000E+00  0.00000000000E+00  0.25024186882E+04  0.25024186882E+04  0.00000000000E+00 0. -1.
         -1   -1    0    0    0  501 -0.00000000000E+00 -0.00000000000E+00 -0.59699528866E+03  0.59699528866E+03  0.00000000000E+00 0.  1.
         23    2    1    2    0    0 -0.92051469831E+03  0.62169923102E+03  0.15954897234E+04  0.19461940814E+04  0.90701165627E+02 0.  0.
         13    1    3    3    0    0 -0.33948825950E+03  0.17809868476E+03  0.53586148808E+03  0.65887704032E+03  0.00000000000E+00 0. -1.
        -13    1    3    3    0    0 -0.58102643882E+03  0.44360054626E+03  0.10596282353E+04  0.12873170411E+04  0.00000000000E+00 0.  1.
         22    1    1    2    0    0  0.92051469831E+03 -0.62169923102E+03  0.30993367618E+03  0.11532198955E+04  0.00000000000E+00 0.  1.
<mgrwt>
<rscale>  0 0.24445304E+04</rscale>
<asrwt>0</asrwt>
<pdfrwt beam="1">  1        1 0.38498749E+00 0.24445304E+04</pdfrwt>
<pdfrwt beam="2">  1       -1 0.91845430E-01 0.24445304E+04</pdfrwt>
<totfact> 0.13907661E+00</totfact>
</mgrwt>
</event>
<event>
 6    1  0.1817112E-005  0.5151648E+04  0.7818608E-02  0.7805531E-01
         -2   -1    0    0    0  501 -0.00000000000E+00  0.00000000000E+00  0.24170093869E+04  0.24170093869E+04  0.00000000000E+00 0.  1.
          2   -1    0    0  501    0  0.00000000000E+00 -0.00000000000E+00 -0.27450734440E+04  0.27450734440E+04  0.00000000000E+00 0. -1.
         23    2    1    2    0    0 -0.54780535873E+01 -0.16671027627E+04  0.18023195783E+04  0.24569403088E+04  0.94541992946E+02 0.  0.
         11    1    3    3    0    0 -0.42797636494E+01 -0.22595470471E+03  0.19898045103E+03  0.30110972228E+03  0.00000000000E+00 0.  1.
        -11    1    3    3    0    0 -0.11982899379E+01 -0.14411480580E+04  0.16033391272E+04  0.21558305865E+04  0.00000000000E+00 0. -1.
         22    1    1    2    0    0  0.54780535873E+01  0.16671027627E+04 -0.21303836354E+04  0.27051425220E+04  0.00000000000E+00 0. -1.
<mgrwt>
<rscale>  0 0.51516476E+04</rscale>
<asrwt>0</asrwt>
<pdfrwt beam="1">  1        2 0.42231899E+00 0.51516476E+04</pdfrwt>
<pdfrwt beam="2">  1       -2 0.37184760E+00 0.51516476E+04</pdfrwt>
<totfact> 0.20285149E-02</totfact>
</mgrwt>
</event>
<event>
 6    1  0.1817112E-005  0.2835463E+04  0.7818608E-02  0.8292342E-01
          1   -1    0    0  501    0  0.00000000000E+00  0.00000000000E+00  0.14511800474E+04  0.14511800474E+04  0.00000000000E+00 0. -1.
         -1   -1    0    0    0  501 -0.00000000000E+00 -0.00000000000E+00 -0.13850536767E+04  0.13850536767E+04  0.00000000000E+00 0.  1.
         23    2    1    2    0    0  0.10590852350E+04  0.68193874599E+03  0.68113812337E+03  0.14344700336E+04  0.83983009712E+02 0.  0.
         13    1    3    3    0    0  0.36438964674E+03  0.18795574893E+03  0.22397720087E+03  0.46719692285E+03  0.00000000000E+00 0.  1.
        -13    1    3    3    0    0  0.69469558824E+03  0.49398299706E+03  0.45716092250E+03  0.96727311074E+03  0.00000000000E+00 0. -1.
         22    1    1    2    0    0 -0.10590852350E+04 -0.68193874599E+03 -0.61501175259E+03  0.14017636905E+04  0.00000000000E+00 0.  1.
<mgrwt>
<rscale>  0 0.28354628E+04</rscale>
<asrwt>0</asrwt>
<pdfrwt beam="1">  1        1 0.22325847E+00 0.28354628E+04</pdfrwt>
<pdfrwt beam="2">  1       -1 0.21308518E+00 0.28354628E+04</pdfrwt>
<totfact> 0.74803646E-01</totfact>
</mgrwt>
</event>
<event>
 6    1  0.1817112E-005  0.1834718E+04  0.7818608E-02  0.8688052E-01
         -2   -1    0    0    0  501 -0.00000000000E+00  0.00000000000E+00  0.70678912098E+03  0.70678912098E+03  0.00000000000E+00 0.  1.
          2   -1    0    0  501    0  0.00000000000E+00 -0.00000000000E+00 -0.11906625679E+04  0.11906625679E+04  0.00000000000E+00 0. -1.
         23    2    1    2    0    0  0.52565122312E+03  0.60452139214E+03 -0.70001625408E+03  0.10677089365E+04  0.90687900493E+02 0.  0.
         13    1    3    3    0    0  0.37341703177E+03  0.36358856151E+03 -0.44835779332E+03  0.68750391454E+03  0.00000000000E+00 0. -1.
        -13    1    3    3    0    0  0.15223419134E+03  0.24093283063E+03 -0.25165846076E+03  0.38020502201E+03  0.00000000000E+00 0.  1.
         22    1    1    2    0    0 -0.52565122312E+03 -0.60452139214E+03  0.21614280717E+03  0.82974275231E+03  0.00000000000E+00 0. -1.
<mgrwt>
<rscale>  0 0.18347178E+04</rscale>
<asrwt>0</asrwt>
<pdfrwt beam="1">  1        2 0.18317885E+00 0.18347178E+04</pdfrwt>
<pdfrwt beam="2">  1       -2 0.10873679E+00 0.18347178E+04</pdfrwt>
<totfact> 0.12206601E+01</totfact>
</mgrwt>
</event>
<event>
 6    1  0.1817112E-005  0.3317580E+04  0.7818608E-02  0.8158436E-01
         -2   -1    0    0    0  501 -0.00000000000E+00  0.00000000000E+00  0.15768284743E+04  0.15768284743E+04  0.00000000000E+00 0.  1.
          2   -1    0    0  501    0  0.00000000000E+00 -0.00000000000E+00 -0.17450120194E+04  0.17450120194E+04  0.00000000000E+00 0. -1.
         23    2    1    2    0    0 -0.55391557326E+03  0.15621967860E+04 -0.10960260729E+03  0.16633131389E+04  0.85537161230E+02 0.  0.
         11    1    3    3    0    0 -0.25539831513E+03  0.84600734584E+03 -0.50832804520E+02  0.88517834508E+03  0.00000000000E+00 0.  1.
        -11    1    3    3    0    0 -0.29851725813E+03  0.71618944015E+03 -0.58769802768E+02  0.77813479379E+03  0.00000000000E+00 0. -1.
         22    1    1    2    0    0  0.55391557326E+03 -0.15621967860E+04 -0.58580937854E+02  0.16585273548E+04  0.00000000000E+00 0. -1.
<mgrwt>
<rscale>  0 0.33175802E+04</rscale>
<asrwt>0</asrwt>
<pdfrwt beam="1">  1        2 0.26846339E+00 0.33175802E+04</pdfrwt>
<pdfrwt beam="2">  1       -2 0.24258900E+00 0.33175802E+04</pdfrwt>
<totfact> 0.55124581E-01</totfact>
</mgrwt>
</event>
<event>
 6    1  0.1817112E-005  0.4706351E+04  0.7818608E-02  0.7875474E-01
         -2   -1    0    0    0  501 -0.00000000000E+00  0.00000000000E+00  0.17324861241E+04  0.17324861241E+04  0.00000000000E+00 0.  1.
          2   -1    0    0  501    0  0.00000000000E+00 -0.00000000000E+00 -0.31962366709E+04  0.31962366709E+04  0.00000000000E+00 0. -1.
         23    2    1    2    0    0 -0.16875910256E+04  0.11757910130E+04  0.46311638634E+03  0.21103430914E+04  0.92861187757E+02 0.  0.
         11    1    3    3    0    0 -0.50684444562E+03  0.34955190874E+03  0.18231326559E+03  0.64211833471E+03  0.00000000000E+00 0.  1.
        -11    1    3    3    0    0 -0.11807465799E+04  0.82623910424E+03  0.28080312075E+03  0.14682247566E+04  0.00000000000E+00 0. -1.
         22    1    1    2    0    0  0.16875910256E+04 -0.11757910130E+04 -0.19268669331E+04  0.28183797036E+04  0.00000000000E+00 0. -1.
<mgrwt>
<rscale>  0 0.47063513E+04</rscale>
<asrwt>0</asrwt>
<pdfrwt beam="1">  1        2 0.49172871E+00 0.47063513E+04</pdfrwt>
<pdfrwt beam="2">  1       -2 0.26653633E+00 0.47063513E+04</pdfrwt>
<totfact> 0.49406132E-02</totfact>
</mgrwt>
</event>
<event>
 6    1  0.1817112E-005  0.1489219E+04  0.7818608E-02  0.8891654E-01
         -1   -1    0    0    0  501 -0.00000000000E+00  0.00000000000E+00  0.47936328346E+03  0.47936328346E+03  0.00000000000E+00 0.  1.
          1   -1    0    0  501    0  0.00000000000E+00 -0.00000000000E+00 -0.11566237320E+04  0.11566237320E+04  0.00000000000E+00 0. -1.
         23    2    1    2    0    0  0.55043596227E+03  0.49525774383E+03 -0.29806548267E+03  0.80409230844E+03  0.97269867697E+02 0.  0.
         11    1    3    3    0    0  0.35798735956E+03  0.26188365979E+03 -0.15927282100E+03  0.47128105456E+03  0.00000000000E+00 0.  1.
        -11    1    3    3    0    0  0.19244860270E+03  0.23337408403E+03 -0.13879266167E+03  0.33281125389E+03  0.00000000000E+00 0. -1.
         22    1    1    2    0    0 -0.55043596227E+03 -0.49525774383E+03 -0.37919496582E+03  0.83189470697E+03  0.00000000000E+00 0. -1.
<mgrwt>
<rscale>  0 0.14892185E+04</rscale>
<asrwt>0</asrwt>
<pdfrwt beam="1">  1        1 0.17794211E+00 0.14892185E+04</pdfrwt>
<pdfrwt beam="2">  1       -1 0.73748198E-01 0.14892185E+04</pdfrwt>
<totfact> 0.20624338E+01</totfact>
</mgrwt>
</event>
<event>
 6    1  0.1817112E-005  0.1480650E+04  0.7818608E-02  0.8897423E-01
          2   -1    0    0  501    0  0.00000000000E+00  0.00000000000E+00  0.12527736259E+04  0.12527736259E+04  0.00000000000E+00 0. -1.
         -2   -1    0    0    0  501 -0.00000000000E+00 -0.00000000000E+00 -0.43749440441E+03  0.43749440441E+03  0.00000000000E+00 0.  1.
         23    2    1    2    0    0  0.17404627374E+03 -0.14544821374E+03 -0.39204194944E+03  0.46182523635E+03  0.90212917733E+02 0.  0.
         13    1    3    3    0    0  0.74251886568E+02 -0.52361577834E+02 -0.24454986187E+03  0.26088256444E+03  0.00000000000E+00 0. -1.
        -13    1    3    3    0    0  0.99794387173E+02 -0.93086635908E+02 -0.14749208757E+03  0.20094267190E+03  0.00000000000E+00 0.  1.
         22    1    1    2    0    0 -0.17404627374E+03  0.14544821374E+03  0.12073211709E+04  0.12284427939E+04  0.00000000000E+00 0. -1.
<mgrwt>
<rscale>  0 0.14806505E+04</rscale>
<asrwt>0</asrwt>
<pdfrwt beam="1">  1        2 0.19273440E+00 0.14806505E+04</pdfrwt>
<pdfrwt beam="2">  1       -2 0.67306832E-01 0.14806505E+04</pdfrwt>
<totfact> 0.34522313E+01</totfact>
</mgrwt>
</event>
<event>
 6    1  0.1817112E-005  0.2117351E+04  0.7818608E-02  0.8553639E-01
          2   -1    0    0  501    0  0.00000000000E+00  0.00000000000E+00  0.65186739484E+03  0.65186739484E+03  0.00000000000E+00 0. -1.
         -2   -1    0    0    0  501 -0.00000000000E+00 -0.00000000000E+00 -0.17193580627E+04  0.17193580627E+04  0.00000000000E+00 0.  1.
         23    2    1    2    0    0 -0.90794213800E+03  0.52702740052E+03 -0.67353089118E+03  0.12499221478E+04  0.80899365051E+02 0.  0.
         11    1    3    3    0    0 -0.17958120938E+03  0.14223164087E+03 -0.13990141539E+03  0.26842439616E+03  0.00000000000E+00 0.  1.
        -11    1    3    3    0    0 -0.72836092862E+03  0.38479575965E+03 -0.53362947579E+03  0.98149775162E+03  0.00000000000E+00 0. -1.
         22    1    1    2    0    0  0.90794213800E+03 -0.52702740052E+03 -0.39395977669E+03  0.11213033098E+04  0.00000000000E+00 0.  1.
<mgrwt>
<rscale>  0 0.21173507E+04</rscale>
<asrwt>0</asrwt>
<pdfrwt beam="1">  1        2 0.10028729E+00 0.21173507E+04</pdfrwt>
<pdfrwt beam="2">  1       -2 0.26451662E+00 0.21173507E+04</pdfrwt>
<totfact> 0.21586036E+00</totfact>
</mgrwt>
</event>
<event>
 6    1  0.1817112E-005  0.3531214E+04  0.7818608E-02  0.8106432E-01
         -2   -1    0    0    0  501 -0.00000000000E+00  0.00000000000E+00  0.14365388541E+04  0.14365388541E+04  0.00000000000E+00 0.  1.
          2   -1    0    0  501    0  0.00000000000E+00 -0.00000000000E+00 -0.21700550253E+04  0.21700550253E+04  0.00000000000E+00 0. -1.
         23    2    1    2    0    0 -0.11662783548E+04  0.54755257988E+03 -0.15984830317E+04  0.20547605447E+04  0.82908773605E+02 0.  0.
         13    1    3    3    0    0 -0.13848334358E+03  0.63508805620E+02 -0.23419806182E+03  0.27939172679E+03  0.00000000000E+00 0.  1.
        -13    1    3    3    0    0 -0.10277950113E+04  0.48404377426E+03 -0.13642849699E+04  0.17753688179E+04  0.00000000000E+00 0. -1.
         22    1    1    2    0    0  0.11662783548E+04 -0.54755257988E+03  0.86496686050E+03  0.15518333346E+04  0.00000000000E+00 0.  1.
<mgrwt>
<rscale>  0 0.35312142E+04</rscale>
<asrwt>0</asrwt>
<pdfrwt beam="1">  1        2 0.33385462E+00 0.35312142E+04</pdfrwt>
<pdfrwt beam="2">  1       -2 0.22100598E+00 0.35312142E+04</pdfrwt>
<totfact> 0.42853096E-01</totfact>
</mgrwt>
</event>
<event>
 6    1  0.1817112E-005  0.3507042E+04  0.7818608E-02  0.8112123E-01
          2   -1    0    0  501    0  0.00000000000E+00  0.00000000000E+00  0.17063376857E+04  0.17063376857E+04  0.00000000000E+00 0. -1.
         -2   -1    0    0    0  501 -0.00000000000E+00 -0.00000000000E+00 -0.18020094080E+04  0.18020094080E+04  0.00000000000E+00 0.  1.
         23    2    1    2    0    0 -0.11777129801E+02 -0.17421193581E+04  0.14214857936E+03  0.17500305538E+04  0.85335584703E+02 0.  0.
         11    1    3    3    0    0  0.33599308894E+02 -0.63848383310E+03  0.36155178045E+02  0.64038872225E+03  0.00000000000E+00 0. -1.
        -11    1    3    3    0    0 -0.45376438694E+02 -0.11036355250E+04  0.10599340131E+03  0.11096418315E+04  0.00000000000E+00 0.  1.
         22    1    1    2    0    0  0.11777129801E+02  0.17421193581E+04 -0.23782030162E+03  0.17583165399E+04  0.00000000000E+00 0. -1.
<mgrwt>
<rscale>  0 0.35070424E+04</rscale>
<asrwt>0</asrwt>
<pdfrwt beam="1">  1        2 0.26251349E+00 0.35070424E+04</pdfrwt>
<pdfrwt beam="2">  1       -2 0.27723221E+00 0.35070424E+04</pdfrwt>
<totfact> 0.34975891E-01</totfact>
</mgrwt>
</event>
<event>
 6    1  0.1817112E-005  0.5049791E+04  0.7818608E-02  0.7820872E-01
         -2   -1    0    0    0  501 -0.00000000000E+00  0.00000000000E+00  0.21746537749E+04  0.21746537749E+04  0.00000000000E+00 0.  1.
          2   -1    0    0  501    0  0.00000000000E+00 -0.00000000000E+00 -0.29315462837E+04  0.29315462837E+04  0.00000000000E+00 0. -1.
         23    2    1    2    0    0 -0.83048639626E+02 -0.88517962906E+03 -0.27672911562E+04  0.29079865171E+04  0.89694974243E+02 0.  0.
         11    1    3    3    0    0 -0.18107857657E+02 -0.56073491181E+03 -0.16534230591E+04  0.17460124135E+04  0.00000000000E+00 0.  1.
        -11    1    3    3    0    0 -0.64940781970E+02 -0.32444471726E+03 -0.11138680971E+04  0.11619741036E+04  0.00000000000E+00 0. -1.
         22    1    1    2    0    0  0.83048639626E+02  0.88517962906E+03  0.20103986474E+04  0.21982135414E+04  0.00000000000E+00 0.  1.
<mgrwt>
<rscale>  0 0.50497914E+04</rscale>
<asrwt>0</asrwt>
<pdfrwt beam="1">  1        2 0.45100712E+00 0.50497914E+04</pdfrwt>
<pdfrwt beam="2">  1       -2 0.33456212E+00 0.50497914E+04</pdfrwt>
<totfact> 0.27076002E-02</totfact>
</mgrwt>
</event>
<event>
 6    1  0.1817112E-005  0.1837667E+04  0.7818608E-02  0.8686521E-01
          1   -1    0    0  501    0  0.00000000000E+00  0.00000000000E+00  0.32469816460E+04  0.32469816460E+04  0.00000000000E+00 0.  1.
         -1   -1    0    0    0  501 -0.00000000000E+00 -0.00000000000E+00 -0.26001213805E+03  0.26001213805E+03  0.00000000000E+00 0. -1.
         23    2    1    2    0    0 -0.84235404494E+03  0.27577371893E+03  0.19420498722E+04  0.21367863085E+04  0.93201613241E+02 0.  0.
         13    1    3    3    0    0 -0.66588540275E+03  0.17891776318E+03  0.14749426590E+04  0.16281494965E+04  0.00000000000E+00 0. -1.
        -13    1    3    3    0    0 -0.17646864219E+03  0.96855955749E+02  0.46710721322E+03  0.50863681196E+03  0.00000000000E+00 0.  1.
         22    1    1    2    0    0  0.84235404494E+03 -0.27577371893E+03  0.10449196357E+04  0.13702074756E+04  0.00000000000E+00 0. -1.
<mgrwt>
<rscale>  0 0.18376666E+04</rscale>
<asrwt>0</asrwt>
<pdfrwt beam="1">  1        1 0.49953561E+00 0.18376666E+04</pdfrwt>
<pdfrwt beam="2">  1       -1 0.40001870E-01 0.18376666E+04</pdfrwt>
<totfact> 0.22540627E+00</totfact>
</mgrwt>
</event>
<event>
 6    1  0.1817112E-005  0.1636057E+04  0.7818608E-02  0.8798698E-01
         -2   -1    0    0    0  501 -0.00000000000E+00  0.00000000000E+00  0.49053768057E+03  0.49053768057E+03  0.00000000000E+00 0.  1.
          2   -1    0    0  501    0  0.00000000000E+00 -0.00000000000E+00 -0.13641569038E+04  0.13641569038E+04  0.00000000000E+00 0. -1.
         23    2    1    2    0    0 -0.58306778713E+03 -0.55932729564E+03 -0.56351705510E+03  0.98925918946E+03  0.90924169020E+02 0.  0.
         13    1    3    3    0    0 -0.36763842048E+03 -0.38670781229E+03 -0.41372713728E+03  0.67518226015E+03  0.00000000000E+00 0. -1.
        -13    1    3    3    0    0 -0.21542936665E+03 -0.17261948335E+03 -0.14978991783E+03  0.31407692932E+03  0.00000000000E+00 0.  1.
         22    1    1    2    0    0  0.58306778713E+03  0.55932729564E+03 -0.31010216808E+03  0.86543539486E+03  0.00000000000E+00 0.  1.
<mgrwt>
<rscale>  0 0.16360567E+04</rscale>
<asrwt>0</asrwt>
<pdfrwt beam="1">  1        2 0.20987029E+00 0.16360567E+04</pdfrwt>
<pdfrwt beam="2">  1       -2 0.75467336E-01 0.16360567E+04</pdfrwt>
<totfact> 0.22853203E+01</totfact>
</mgrwt>
</event>
<event>
 6    1  0.1817112E-005  0.3059604E+04  0.7818608E-02  0.8226912E-01
          2   -1    0    0  501    0  0.00000000000E+00  0.00000000000E+00  0.16044897664E+04  0.16044897664E+04  0.00000000000E+00 0. -1.
         -2   -1    0    0    0  501 -0.00000000000E+00 -0.00000000000E+00 -0.14585912931E+04  0.14585912931E+04  0.00000000000E+00 0.  1.
         23    2    1    2    0    0 -0.15180231594E+04  0.12670030353E+03  0.19844307004E+03  0.15388736543E+04  0.91132827789E+02 0.  0.
         11    1    3    3    0    0 -0.38712361182E+03 -0.52976700645E+01  0.37355917445E+02  0.38895786495E+03  0.00000000000E+00 0. -1.
        -11    1    3    3    0    0 -0.11308995476E+04  0.13199797359E+03  0.16108715260E+03  0.11499157893E+04  0.00000000000E+00 0.  1.
         22    1    1    2    0    0  0.15180231594E+04 -0.12670030353E+03 -0.52544596704E+02  0.15242074052E+04  0.00000000000E+00 0.  1.
<mgrwt>
<rscale>  0 0.30596044E+04</rscale>
<asrwt>0</asrwt>
<pdfrwt beam="1">  1        2 0.24684458E+00 0.30596044E+04</pdfrwt>
<pdfrwt beam="2">  1       -2 0.22439866E+00 0.30596044E+04</pdfrwt>
<totfact> 0.87567831E-01</totfact>
</mgrwt>
</event>
<event>
 6    1  0.1817112E-005  0.1121176E+04  0.7818608E-02  0.9184794E-01
          2   -1    0    0  501    0  0.00000000000E+00  0.00000000000E+00  0.65674591078E+03  0.65674591078E+03  0.00000000000E+00 0. -1.
         -2   -1    0    0    0  501 -0.00000000000E+00 -0.00000000000E+00 -0.47850935339E+03  0.47850935339E+03  0.00000000000E+00 0.  1.
         23    2    1    2    0    0 -0.75905863888E+02 -0.49972741455E+03  0.32729248041E+03  0.60827627293E+03  0.85967827942E+02 0.  0.
         11    1    3    3    0    0 -0.24694826461E+01 -0.16333228160E+03  0.66616711474E+02  0.17641235445E+03  0.00000000000E+00 0. -1.
        -11    1    3    3    0    0 -0.73436381242E+02 -0.33639513296E+03  0.26067576894E+03  0.43186391847E+03  0.00000000000E+00 0.  1.
         22    1    1    2    0    0  0.75905863888E+02  0.49972741455E+03 -0.14905592302E+03  0.52697899125E+03  0.00000000000E+00 0.  1.
<mgrwt>
<rscale>  0 0.11211763E+04</rscale>
<asrwt>0</asrwt>
<pdfrwt beam="1">  1        2 0.10103783E+00 0.11211763E+04</pdfrwt>
<pdfrwt beam="2">  1       -2 0.73616823E-01 0.11211763E+04</pdfrwt>
<totfact> 0.73290954E+01</totfact>
</mgrwt>
</event>
<event>
 6    1  0.1817112E-005  0.2781188E+04  0.7818608E-02  0.8309133E-01
          2   -1    0    0  501    0  0.00000000000E+00  0.00000000000E+00  0.14834878795E+04  0.14834878795E+04  0.00000000000E+00 0. -1.
         -2   -1    0    0    0  501 -0.00000000000E+00 -0.00000000000E+00 -0.13035172320E+04  0.13035172320E+04  0.00000000000E+00 0.  1.
         23    2    1    2    0    0  0.28627902364E+03  0.78350459707E+03  0.12031187427E+04  0.14669039194E+04  0.92072073432E+02 0.  0.
         13    1    3    3    0    0  0.22687060222E+03  0.69019891149E+03  0.10068027369E+04  0.12415701988E+04  0.00000000000E+00 0. -1.
        -13    1    3    3    0    0  0.59408421424E+02  0.93305685579E+02  0.19631600574E+03  0.22533372053E+03  0.00000000000E+00 0.  1.
         22    1    1    2    0    0 -0.28627902364E+03 -0.78350459707E+03 -0.10231480952E+04  0.13201011922E+04  0.00000000000E+00 0.  1.
<mgrwt>
<rscale>  0 0.27811882E+04</rscale>
<asrwt>0</asrwt>
<pdfrwt beam="1">  1        2 0.22822890E+00 0.27811882E+04</pdfrwt>
<pdfrwt beam="2">  1       -2 0.20054111E+00 0.27811882E+04</pdfrwt>
<totfact> 0.14912204E+00</totfact>
</mgrwt>
</event>
<event>
 6    1  0.1817112E-005  0.4210313E+04  0.7818608E-02  0.7963413E-01
          2   -1    0    0  501    0  0.00000000000E+00  0.00000000000E+00  0.28672085897E+04  0.28672085897E+04  0.00000000000E+00 0. -1.
         -2   -1    0    0    0  501 -0.00000000000E+00 -0.00000000000E+00 -0.15456443056E+04  0.15456443056E+04  0.00000000000E+00 0.  1.
         23    2    1    2    0    0  0.12673945940E+04  0.13450885274E+04 -0.39302794868E+03  0.18918652460E+04  0.95555936883E+02 0.  0.
         11    1    3    3    0    0  0.49506393317E+03  0.57676377116E+03 -0.19340727054E+03  0.78431570043E+03  0.00000000000E+00 0. -1.
        -11    1    3    3    0    0  0.77233066080E+03  0.76832475626E+03 -0.19962067814E+03  0.11075495455E+04  0.00000000000E+00 0.  1.
         22    1    1    2    0    0 -0.12673945940E+04 -0.13450885274E+04  0.17145922328E+04  0.25209876493E+04  0.00000000000E+00 0. -1.
<mgrwt>
<rscale>  0 0.42103134E+04</rscale>
<asrwt>0</asrwt>
<pdfrwt beam="1">  1        2 0.44110901E+00 0.42103134E+04</pdfrwt>
<pdfrwt beam="2">  1       -2 0.23779143E+00 0.42103134E+04</pdfrwt>
<totfact> 0.12474076E-01</totfact>
</mgrwt>
</event>
<event>
 6    1  0.1817112E-005  0.4191656E+04  0.7818608E-02  0.7966961E-01
         -2   -1    0    0    0  501 -0.00000000000E+00  0.00000000000E+00  0.25380218427E+04  0.25380218427E+04  0.00000000000E+00 0.  1.
          2   -1    0    0  501    0  0.00000000000E+00 -0.00000000000E+00 -0.17306762173E+04  0.17306762173E+04  0.00000000000E+00 0. -1.
         23    2    1    2    0    0 -0.13937497149E+04 -0.13792263784E+04 -0.34691400887E+03  0.19933697377E+04  0.91487217078E+02 0.  0.
         13    1    3    3    0    0 -0.92505671669E+03 -0.93235939025E+03 -0.27418559053E+03  0.13417159534E+04  0.00000000000E+00 0. -1.
        -13    1    3    3    0    0 -0.46869299822E+03 -0.44686698814E+03 -0.72728418335E+02  0.65165378424E+03  0.00000000000E+00 0.  1.
         22    1    1    2    0    0  0.13937497149E+04  0.13792263784E+04  0.11542596343E+04  0.22753283222E+04  0.00000000000E+00 0.  1.
<mgrwt>
<rscale>  0 0.41916555E+04</rscale>
<asrwt>0</asrwt>
<pdfrwt beam="1">  1        2 0.26625788E+00 0.41916555E+04</pdfrwt>
<pdfrwt beam="2">  1       -2 0.39046490E+00 0.41916555E+04</pdfrwt>
<totfact> 0.62716566E-02</totfact>
</mgrwt>
</event>
<event>
 6    1  0.1817112E-005  0.2971424E+04  0.7818608E-02  0.8251938E-01
          2   -1    0    0  501    0  0.00000000000E+00  0.00000000000E+00  0.89068537607E+03  0.89068537607E+03  0.00000000000E+00 0. -1.
         -2   -1    0    0    0  501 -0.00000000000E+00 -0.00000000000E+00 -0.24782488642E+04  0.24782488642E+04  0.00000000000E+00 0.  1.
         23    2    1    2    0    0  0.73032547235E+03  0.18890607730E+03  0.65488982703E+03  0.10029972858E+04  0.89789020776E+02 0.  0.
         13    1    3    3    0    0  0.71504641330E+03  0.16931551363E+03  0.63207699417E+03  0.96926799332E+03  0.00000000000E+00 0.  1.
        -13    1    3    3    0    0  0.15279059052E+02  0.19590563671E+02  0.22812832866E+02  0.33729292519E+02  0.00000000000E+00 0. -1.
         22    1    1    2    0    0 -0.73032547235E+03 -0.18890607730E+03 -0.22424533151E+04  0.23659369544E+04  0.00000000000E+00 0.  1.
<mgrwt>
<rscale>  0 0.29714239E+04</rscale>
<asrwt>0</asrwt>
<pdfrwt beam="1">  1        2 0.13702852E+00 0.29714239E+04</pdfrwt>
<pdfrwt beam="2">  1       -2 0.38126905E+00 0.29714239E+04</pdfrwt>
<totfact> 0.25069654E-01</totfact>
</mgrwt>
</event>
<event>
 6    1  0.1817112E-005  0.8278625E+03  0.7818608E-02  0.9520540E-01
         -2   -1    0    0    0  501 -0.00000000000E+00  0.00000000000E+00  0.76772209246E+02  0.76772209246E+02  0.00000000000E+00 0.  1.
          2   -1    0    0  501    0  0.00000000000E+00 -0.00000000000E+00 -0.22317854284E+04  0.22317854284E+04  0.00000000000E+00 0. -1.
         23    2    1    2    0    0  0.25646495492E+03  0.29962371705E+03 -0.78700391992E+03  0.88483080720E+03  0.89452459342E+02 0.  0.
         13    1    3    3    0    0  0.64874151957E+02  0.37363612724E+02 -0.99971135152E+02  0.12489564849E+03  0.00000000000E+00 0. -1.
        -13    1    3    3    0    0  0.19159080296E+03  0.26226010433E+03 -0.68703278477E+03  0.75993515872E+03  0.00000000000E+00 0.  1.
         22    1    1    2    0    0 -0.25646495492E+03 -0.29962371705E+03 -0.13680092992E+04  0.14237268304E+04  0.00000000000E+00 0. -1.
<mgrwt>
<rscale>  0 0.82786254E+03</rscale>
<asrwt>0</asrwt>
<pdfrwt beam="1">  1        2 0.34335162E+00 0.82786254E+03</pdfrwt>
<pdfrwt beam="2">  1       -2 0.11811109E-01 0.82786254E+03</pdfrwt>
<totfact> 0.26485446E+02</totfact>
</mgrwt>
</event>
<event>
 6    1  0.1817112E-005  0.4051885E+04  0.7818608E-02  0.7994161E-01
          2   -1    0    0  501    0  0.00000000000E+00  0.00000000000E+00  0.32111739790E+04  0.32111739790E+04  0.00000000000E+00 0. -1.
         -2   -1    0    0    0  501 -0.00000000000E+00 -0.00000000000E+00 -0.12781753326E+04  0.12781753326E+04  0.00000000000E+00 0.  1.
         23    2    1    2    0    0  0.19604434770E+04 -0.50657888254E+03  0.98927724305E+03  0.22553907449E+04  0.90316983434E+02 0.  0.
         11    1    3    3    0    0  0.70542327660E+03 -0.22593327772E+03  0.35015753317E+03  0.81931565540E+03  0.00000000000E+00 0.  1.
        -11    1    3    3    0    0  0.12550202004E+04 -0.28064560482E+03  0.63911970988E+03  0.14360750895E+04  0.00000000000E+00 0. -1.
         22    1    1    2    0    0 -0.19604434770E+04  0.50657888254E+03  0.94372140339E+03  0.22339585668E+04  0.00000000000E+00 0.  1.
<mgrwt>
<rscale>  0 0.40518852E+04</rscale>
<asrwt>0</asrwt>
<pdfrwt beam="1">  1        2 0.49402676E+00 0.40518852E+04</pdfrwt>
<pdfrwt beam="2">  1       -2 0.19664236E+00 0.40518852E+04</pdfrwt>
<totfact> 0.14005759E-01</totfact>
</mgrwt>
</event>
<event>
 6    1  0.1817112E-005  0.2204633E+04  0.7818608E-02  0.8516502E-01
          2   -1    0    0  501    0  0.00000000000E+00  0.00000000000E+00  0.15496688721E+04  0.15496688721E+04  0.00000000000E+00 0. -1.
         -2   -1    0    0    0  501 -0.00000000000E+00 -0.00000000000E+00 -0.78410418599E+03  0.78410418599E+03  0.00000000000E+00 0.  1.
         23    2    1    2    0    0  0.54418099067E+03  0.42329376804E+03  0.12913639484E+04  0.14667232160E+04  0.91354148189E+02 0.  0.
         11    1    3    3    0    0  0.28674254674E+03  0.19937160761E+03  0.74099503056E+03  0.81917272985E+03  0.00000000000E+00 0.  1.
        -11    1    3    3    0    0  0.25743844394E+03  0.22392216043E+03  0.55036891782E+03  0.64755048611E+03  0.00000000000E+00 0. -1.
         22    1    1    2    0    0 -0.54418099067E+03 -0.42329376804E+03 -0.52579926222E+03  0.86704984218E+03  0.00000000000E+00 0.  1.
<mgrwt>
<rscale>  0 0.22046332E+04</rscale>
<asrwt>0</asrwt>
<pdfrwt beam="1">  1        2 0.23841060E+00 0.22046332E+04</pdfrwt>
<pdfrwt beam="2">  1       -2 0.12063141E+00 0.22046332E+04</pdfrwt>
<totfact> 0.57000955E+00</totfact>
</mgrwt>
</event>
<event>
 6    1  0.1817112E-005  0.2741693E+04  0.7818608E-02  0.8321602E-01
          2   -1    0    0  501    0  0.00000000000E+00  0.00000000000E+00  0.87577627991E+03  0.87577627991E+03  0.00000000000E+00 0. -1.
         -2   -1    0    0    0  501 -0.00000000000E+00 -0.00000000000E+00 -0.21457769886E+04  0.21457769886E+04  0.00000000000E+00 0.  1.
         23    2    1    2    0    0  0.22685619044E+03 -0.12491213758E+04 -0.12012447401E+04  0.17501385738E+04  0.90709202028E+02 0.  0.
         11    1    3    3    0    0  0.11443482895E+03 -0.52165312915E+03 -0.56098308860E+03  0.77454460357E+03  0.00000000000E+00 0. -1.
        -11    1    3    3    0    0  0.11242136148E+03 -0.72746824665E+03 -0.64026165154E+03  0.97559397027E+03  0.00000000000E+00 0.  1.
         22    1    1    2    0    0 -0.22685619044E+03  0.12491213758E+04 -0.68755968571E+02  0.12714146947E+04  0.00000000000E+00 0.  1.
<mgrwt>
<rscale>  0 0.27416933E+04</rscale>
<asrwt>0</asrwt>
<pdfrwt beam="1">  1        2 0.13473481E+00 0.27416933E+04</pdfrwt>
<pdfrwt beam="2">  1       -2 0.33011954E+00 0.27416933E+04</pdfrwt>
<totfact> 0.55190642E-01</totfact>
</mgrwt>
</event>
<event>
 6    1  0.1817112E-005  0.1456118E+04  0.7818608E-02  0.8914170E-01
         -2   -1    0    0    0  501 -0.00000000000E+00  0.00000000000E+00  0.25007031454E+03  0.25007031454E+03  0.00000000000E+00 0.  1.
          2   -1    0    0  501    0  0.00000000000E+00 -0.00000000000E+00 -0.21196822247E+04  0.21196822247E+04  0.00000000000E+00 0. -1.
         23    2    1    2    0    0  0.34017474774E+03  0.62487881489E+03 -0.71058572152E+03  0.10097767680E+04  0.92329092728E+02 0.  0.
         13    1    3    3    0    0  0.24642936074E+03  0.46113635623E+03 -0.46220833746E+03  0.69786153074E+03  0.00000000000E+00 0. -1.
        -13    1    3    3    0    0  0.93745386997E+02  0.16374245866E+03 -0.24837738405E+03  0.31191523730E+03  0.00000000000E+00 0.  1.
         22    1    1    2    0    0 -0.34017474774E+03 -0.62487881489E+03 -0.11590261887E+04  0.13599757712E+04  0.00000000000E+00 0. -1.
<mgrwt>
<rscale>  0 0.14561176E+04</rscale>
<asrwt>0</asrwt>
<pdfrwt beam="1">  1        2 0.32610496E+00 0.14561176E+04</pdfrwt>
<pdfrwt beam="2">  1       -2 0.38472355E-01 0.14561176E+04</pdfrwt>
<totfact> 0.35470939E+01</totfact>
</mgrwt>
</event>
<event>
 6    1  0.1817112E-005  0.1495658E+04  0.7818608E-02  0.8887346E-01
         -2   -1    0    0    0  501 -0.00000000000E+00  0.00000000000E+00  0.34857368341E+03  0.34857368341E+03  0.00000000000E+00 0.  1.
          2   -1    0    0  501    0  0.00000000000E+00 -0.00000000000E+00 -0.16043893858E+04  0.16043893858E+04  0.00000000000E+00 0. -1.
         23    2    1    2    0    0 -0.26385984127E+03  0.53201758702E+03 -0.42869716934E+02  0.60244365344E+03  0.91846688573E+02 0.  0.
         11    1    3    3    0    0 -0.82097858396E+02  0.20477075355E+03 -0.56932428312E+02  0.22784297500E+03  0.00000000000E+00 0.  1.
        -11    1    3    3    0    0 -0.18176198288E+03  0.32724683347E+03  0.14062711379E+02  0.37460067844E+03  0.00000000000E+00 0. -1.
         22    1    1    2    0    0  0.26385984127E+03 -0.53201758702E+03 -0.12129459854E+04  0.13505194157E+04  0.00000000000E+00 0. -1.
<mgrwt>
<rscale>  0 0.14956576E+04</rscale>
<asrwt>0</asrwt>
<pdfrwt beam="1">  1        2 0.24682913E+00 0.14956576E+04</pdfrwt>
<pdfrwt beam="2">  1       -2 0.53626721E-01 0.14956576E+04</pdfrwt>
<totfact> 0.35111118E+01</totfact>
</mgrwt>
</event>
<event>
 6    1  0.1817112E-005  0.1435693E+04  0.7818608E-02  0.8928380E-01
         -2   -1    0    0    0  501 -0.00000000000E+00  0.00000000000E+00  0.11437057097E+04  0.11437057097E+04  0.00000000000E+00 0.  1.
          2   -1    0    0  501    0  0.00000000000E+00 -0.00000000000E+00 -0.45055635681E+03  0.45055635681E+03  0.00000000000E+00 0. -1.
         23    2    1    2    0    0 -0.60548830170E+03  0.10491873289E+03  0.75460018315E+03  0.97668597520E+03  0.82885666682E+02 0.  0.
         13    1    3    3    0    0 -0.11914238816E+03 -0.12333728465E+02  0.14858139603E+03  0.19084931428E+03  0.00000000000E+00 0.  1.
        -13    1    3    3    0    0 -0.48634591354E+03  0.11725246135E+03  0.60601878712E+03  0.78583666093E+03  0.00000000000E+00 0. -1.
         22    1    1    2    0    0  0.60548830170E+03 -0.10491873289E+03 -0.61450830261E+02  0.61757609130E+03  0.00000000000E+00 0. -1.
<mgrwt>
<rscale>  0 0.14356934E+04</rscale>
<asrwt>0</asrwt>
<pdfrwt beam="1">  1        2 0.69316363E-01 0.14356934E+04</pdfrwt>
<pdfrwt beam="2">  1       -2 0.17595472E+00 0.14356934E+04</pdfrwt>
<totfact> 0.13029130E+01</totfact>
</mgrwt>
</event>
<event>
 6    1  0.1817112E-005  0.1330568E+04  0.7818608E-02  0.9005669E-01
          2   -1    0    0  501    0  0.00000000000E+00  0.00000000000E+00  0.20962574876E+04  0.20962574876E+04  0.00000000000E+00 0. -1.
         -2   -1    0    0    0  501 -0.00000000000E+00 -0.00000000000E+00 -0.21113960688E+03  0.21113960688E+03  0.00000000000E+00 0.  1.
         23    2    1    2    0    0  0.35184887484E+03  0.48832745394E+03  0.46831790868E+03  0.76805194351E+03  0.91218371781E+02 0.  0.
         13    1    3    3    0    0  0.25407234700E+03  0.28261727191E+03  0.27180502639E+03  0.46722933583E+03  0.00000000000E+00 0. -1.
        -13    1    3    3    0    0  0.97776527839E+02  0.20571018204E+03  0.19651288229E+03  0.30082260768E+03  0.00000000000E+00 0.  1.
         22    1    1    2    0    0 -0.35184887484E+03 -0.48832745394E+03  0.14167999720E+04  0.15393451510E+04  0.00000000000E+00 0. -1.
<mgrwt>
<rscale>  0 0.13305683E+04</rscale>
<asrwt>0</asrwt>
<pdfrwt beam="1">  1        2 0.32250114E+00 0.13305683E+04</pdfrwt>
<pdfrwt beam="2">  1       -2 0.32483018E-01 0.13305683E+04</pdfrwt>
<totfact> 0.51061330E+01</totfact>
</mgrwt>
</event>
<event>
 6    1  0.1817112E-005  0.1236597E+04  0.7818608E-02  0.9081413E-01
         -2   -1    0    0    0  501 -0.00000000000E+00  0.00000000000E+00  0.12951902112E+04  0.12951902112E+04  0.00000000000E+00 0.  1.
          2   -1    0    0  501    0  0.00000000000E+00 -0.00000000000E+00 -0.29516381521E+03  0.29516381521E+03  0.00000000000E+00 0. -1.
         23    2    1    2    0    0  0.39513653911E+03  0.34782585994E+03  0.91130953192E+03  0.10565128559E+04  0.92836621533E+02 0.  0.
         13    1    3    3    0    0  0.27586481028E+03  0.19328445702E+03  0.52672846638E+03  0.62522248214E+03  0.00000000000E+00 0. -1.
        -13    1    3    3    0    0  0.11927172883E+03  0.15454140292E+03  0.38458106554E+03  0.43129037375E+03  0.00000000000E+00 0.  1.
         22    1    1    2    0    0 -0.39513653911E+03 -0.34782585994E+03  0.88716864075E+02  0.53384117053E+03  0.00000000000E+00 0. -1.
<mgrwt>
<rscale>  0 0.12365974E+04</rscale>
<asrwt>0</asrwt>
<pdfrwt beam="1">  1        2 0.45409819E-01 0.12365974E+04</pdfrwt>
<pdfrwt beam="2">  1       -2 0.19926003E+00 0.12365974E+04</pdfrwt>
<totfact> 0.14791678E+01</totfact>
</mgrwt>
</event>
<event>
 6    1  0.1817112E-005  0.3073387E+04  0.7818608E-02  0.8223080E-01
          3   -1    0    0  501    0  0.00000000000E+00  0.00000000000E+00  0.19937459711E+04  0.19937459711E+04  0.00000000000E+00 0. -1.
         -3   -1    0    0    0  501 -0.00000000000E+00 -0.00000000000E+00 -0.11844169527E+04  0.11844169527E+04  0.00000000000E+00 0.  1.
         23    2    1    2    0    0  0.36667079684E+03 -0.45406291275E+03 -0.10635026161E+04  0.12165006355E+04  0.90638732026E+02 0.  0.
         11    1    3    3    0    0  0.15299683289E+03 -0.13174739832E+03 -0.31831397495E+03  0.37694720384E+03  0.00000000000E+00 0.  1.
        -11    1    3    3    0    0  0.21367396395E+03 -0.32231551443E+03 -0.74518864118E+03  0.83955343168E+03  0.00000000000E+00 0. -1.
         22    1    1    2    0    0 -0.36667079684E+03  0.45406291275E+03  0.18728316345E+04  0.19616622883E+04  0.00000000000E+00 0. -1.
<mgrwt>
<rscale>  0 0.30733867E+04</rscale>
<asrwt>0</asrwt>
<pdfrwt beam="1">  1        3 0.30673015E+00 0.30733867E+04</pdfrwt>
<pdfrwt beam="2">  1       -3 0.18221799E+00 0.30733867E+04</pdfrwt>
<totfact> 0.14966409E-02</totfact>
</mgrwt>
</event>
<event>
 6    1  0.1817112E-005  0.1116164E+04  0.7818608E-02  0.9189579E-01
          2   -1    0    0  501    0  0.00000000000E+00  0.00000000000E+00  0.56352174764E+03  0.56352174764E+03  0.00000000000E+00 0. -1.
         -2   -1    0    0    0  501 -0.00000000000E+00 -0.00000000000E+00 -0.55269518352E+03  0.55269518352E+03  0.00000000000E+00 0.  1.
         23    2    1    2    0    0  0.45584200739E+03  0.19537739610E+03  0.25313860722E+03  0.56423922432E+03  0.91227655822E+02 0.  0.
         11    1    3    3    0    0  0.97092294257E+02  0.51181927654E+02  0.16667469382E+02  0.11101489926E+03  0.00000000000E+00 0.  1.
        -11    1    3    3    0    0  0.35874971313E+03  0.14419546845E+03  0.23647113784E+03  0.45322432506E+03  0.00000000000E+00 0. -1.
         22    1    1    2    0    0 -0.45584200739E+03 -0.19537739610E+03 -0.24231204311E+03  0.55197770684E+03  0.00000000000E+00 0.  1.
<mgrwt>
<rscale>  0 0.11161644E+04</rscale>
<asrwt>0</asrwt>
<pdfrwt beam="1">  1        2 0.86695654E-01 0.11161644E+04</pdfrwt>
<pdfrwt beam="2">  1       -2 0.85030028E-01 0.11161644E+04</pdfrwt>
<totfact> 0.63904715E+01</totfact>
</mgrwt>
</event>
<event>
 6    1  0.1817112E-005  0.1063522E+04  0.7818608E-02  0.9241494E-01
          2   -1    0    0  501    0  0.00000000000E+00  0.00000000000E+00  0.15551186846E+04  0.15551186846E+04  0.00000000000E+00 0. -1.
         -2   -1    0    0    0  501 -0.00000000000E+00 -0.00000000000E+00 -0.18183164928E+03  0.18183164928E+03  0.00000000000E+00 0.  1.
         23    2    1    2    0    0 -0.23006878415E+03 -0.71897549788E+02  0.14585482394E+04  0.14812740229E+04  0.93321279215E+02 0.  0.
         11    1    3    3    0    0 -0.18287682615E+03 -0.21676328334E+02  0.91277142799E+03  0.93116350686E+03  0.00000000000E+00 0. -1.
        -11    1    3    3    0    0 -0.47191957994E+02 -0.50221221454E+02  0.54577681138E+03  0.55011051601E+03  0.00000000000E+00 0.  1.
         22    1    1    2    0    0  0.23006878415E+03  0.71897549788E+02 -0.85261204036E+02  0.25567631102E+03  0.00000000000E+00 0.  1.
<mgrwt>
<rscale>  0 0.10635221E+04</rscale>
<asrwt>0</asrwt>
<pdfrwt beam="1">  1        2 0.23924902E+00 0.10635221E+04</pdfrwt>
<pdfrwt beam="2">  1       -2 0.27974101E-01 0.10635221E+04</pdfrwt>
<totfact> 0.13720945E+02</totfact>
</mgrwt>
</event>
<event>
 6    1  0.1817112E-005  0.2106214E+04  0.7818608E-02  0.8558511E-01
          2   -1    0    0  501    0  0.00000000000E+00  0.00000000000E+00  0.20874153309E+04  0.20874153309E+04  0.00000000000E+00 0.  1.
         -2   -1    0    0    0  501 -0.00000000000E+00 -0.00000000000E+00 -0.53129527577E+03  0.53129527577E+03  0.00000000000E+00 0. -1.
         23    2    1    2    0    0  0.34766024165E+03  0.75122885317E+03 -0.26782913220E+02  0.83243116587E+03  0.83737016921E+02 0.  0.
         13    1    3    3    0    0  0.19746462896E+03  0.48219374778E+03  0.16289100472E+02  0.52131413263E+03  0.00000000000E+00 0.  1.
        -13    1    3    3    0    0  0.15019561269E+03  0.26903510539E+03 -0.43072013691E+02  0.31111703323E+03  0.00000000000E+00 0. -1.
         22    1    1    2    0    0 -0.34766024165E+03 -0.75122885317E+03  0.15829029684E+04  0.17862794408E+04  0.00000000000E+00 0.  1.
<mgrwt>
<rscale>  0 0.21062136E+04</rscale>
<asrwt>0</asrwt>
<pdfrwt beam="1">  1        2 0.32114082E+00 0.21062136E+04</pdfrwt>
<pdfrwt beam="2">  1       -2 0.81737736E-01 0.21062136E+04</pdfrwt>
<totfact> 0.72428139E+00</totfact>
</mgrwt>
</event>
<event>
 6    1  0.1817112E-005  0.2706541E+04  0.7818608E-02  0.8332886E-01
         -2   -1    0    0    0  501 -0.00000000000E+00  0.00000000000E+00  0.10903323378E+04  0.10903323378E+04  0.00000000000E+00 0. -1.
          2   -1    0    0  501    0  0.00000000000E+00 -0.00000000000E+00 -0.16796168946E+04  0.16796168946E+04  0.00000000000E+00 0.  1.
         23    2    1    2    0    0 -0.49965946969E+03  0.10688743304E+04 -0.97000547609E+03  0.15301507254E+04  0.91097194854E+02 0.  0.
         11    1    3    3    0    0 -0.60243824675E+02  0.16105279258E+03 -0.18067600937E+03  0.24942161248E+03  0.00000000000E+00 0.  1.
        -11    1    3    3    0    0 -0.43941564501E+03  0.90782153781E+03 -0.78932946672E+03  0.12807291129E+04  0.00000000000E+00 0. -1.
         22    1    1    2    0    0  0.49965946969E+03 -0.10688743304E+04  0.38072091927E+03  0.12397985071E+04  0.00000000000E+00 0. -1.
<mgrwt>
<rscale>  0 0.27065407E+04</rscale>
<asrwt>0</asrwt>
<pdfrwt beam="1">  1        2 0.25840260E+00 0.27065407E+04</pdfrwt>
<pdfrwt beam="2">  1       -2 0.16774344E+00 0.27065407E+04</pdfrwt>
<totfact> 0.19527937E+00</totfact>
</mgrwt>
</event>
<event>
 6    1  0.1817112E-005  0.4042120E+04  0.7818608E-02  0.7996103E-01
         -2   -1    0    0    0  501 -0.00000000000E+00  0.00000000000E+00  0.35469960662E+04  0.35469960662E+04  0.00000000000E+00 0.  1.
          2   -1    0    0  501    0  0.00000000000E+00 -0.00000000000E+00 -0.11515896213E+04  0.11515896213E+04  0.00000000000E+00 0. -1.
         23    2    1    2    0    0  0.96122717989E+03  0.40787766617E+03 -0.81144653896E+03  0.13260157561E+04  0.97726238921E+02 0.  0.
         13    1    3    3    0    0  0.75936187276E+03  0.28573489275E+03 -0.65730167794E+03  0.10441840731E+04  0.00000000000E+00 0.  1.
        -13    1    3    3    0    0  0.20186530713E+03  0.12214277342E+03 -0.15414486102E+03  0.28183168293E+03  0.00000000000E+00 0. -1.
         22    1    1    2    0    0 -0.96122717989E+03 -0.40787766617E+03  0.32068529839E+04  0.33725699315E+04  0.00000000000E+00 0.  1.
<mgrwt>
<rscale>  0 0.40421202E+04</rscale>
<asrwt>0</asrwt>
<pdfrwt beam="1">  1        2 0.17716764E+00 0.40421202E+04</pdfrwt>
<pdfrwt beam="2">  1       -2 0.54569170E+00 0.40421202E+04</pdfrwt>
<totfact> 0.14336351E-02</totfact>
</mgrwt>
</event>
<event>
 6    1  0.1817112E-005  0.1178134E+04  0.7818608E-02  0.9132214E-01
         -4   -1    0    0    0  501 -0.00000000000E+00  0.00000000000E+00  0.32239586052E+03  0.32239586052E+03  0.00000000000E+00 0.  1.
          4   -1    0    0  501    0  0.00000000000E+00 -0.00000000000E+00 -0.10763165266E+04  0.10763165266E+04  0.00000000000E+00 0. -1.
         23    2    1    2    0    0  0.26340865497E+03  0.52176222545E+03 -0.42558943677E+03  0.72832344363E+03  0.87799376023E+02 0.  0.
         13    1    3    3    0    0  0.19029293169E+03  0.28167891955E+03 -0.23705325357E+03  0.41442569732E+03  0.00000000000E+00 0.  1.
        -13    1    3    3    0    0  0.73115723277E+02  0.24008330590E+03 -0.18853618320E+03  0.31389774631E+03  0.00000000000E+00 0. -1.
         22    1    1    2    0    0 -0.26340865497E+03 -0.52176222545E+03 -0.32833122933E+03  0.67038894350E+03  0.00000000000E+00 0. -1.
<mgrwt>
<rscale>  0 0.11781341E+04</rscale>
<asrwt>0</asrwt>
<pdfrwt beam="1">  1        4 0.16558716E+00 0.11781341E+04</pdfrwt>
<pdfrwt beam="2">  1       -4 0.49599363E-01 0.11781341E+04</pdfrwt>
<totfact> 0.17603475E+00</totfact>
</mgrwt>
</event>
<event>
 6    1  0.1817112E-005  0.5639973E+04  0.7818608E-02  0.7736717E-01
         -2   -1    0    0    0  501 -0.00000000000E+00  0.00000000000E+00  0.19060502890E+04  0.19060502890E+04  0.00000000000E+00 0. -1.
          2   -1    0    0  501    0  0.00000000000E+00 -0.00000000000E+00 -0.41721477558E+04  0.41721477558E+04  0.00000000000E+00 0.  1.
         23    2    1    2    0    0 -0.20886210579E+04 -0.18380664462E+04 -0.64265704152E+03  0.28569583768E+04  0.91525458031E+02 0.  0.
         13    1    3    3    0    0 -0.96926812597E+03 -0.83638295236E+03 -0.34076542392E+03  0.13248162956E+04  0.00000000000E+00 0.  1.
        -13    1    3    3    0    0 -0.11193529319E+04 -0.10016834938E+04 -0.30189161760E+03  0.15321420811E+04  0.00000000000E+00 0. -1.
         22    1    1    2    0    0  0.20886210579E+04  0.18380664462E+04 -0.16234404253E+04  0.32212396680E+04  0.00000000000E+00 0.  1.
<mgrwt>
<rscale>  0 0.56399728E+04</rscale>
<asrwt>0</asrwt>
<pdfrwt beam="1">  1        2 0.64186888E+00 0.56399728E+04</pdfrwt>
<pdfrwt beam="2">  1       -2 0.29323851E+00 0.56399728E+04</pdfrwt>
<totfact> 0.59063074E-03</totfact>
</mgrwt>
</event>
<event>
 6    1  0.1817112E-005  0.2615545E+04  0.7818608E-02  0.8362940E-01
         -2   -1    0    0    0  501 -0.00000000000E+00  0.00000000000E+00  0.34474217245E+04  0.34474217245E+04  0.00000000000E+00 0.  1.
          2   -1    0    0  501    0  0.00000000000E+00 -0.00000000000E+00 -0.49610086267E+03  0.49610086267E+03  0.00000000000E+00 0. -1.
         23    2    1    2    0    0 -0.99222978459E+03 -0.50078546394E+03  0.44285190275E+03  0.11998530471E+04  0.90683518834E+02 0.  0.
         13    1    3    3    0    0 -0.42895174479E+03 -0.22356632417E+03  0.24080718675E+03  0.54034211557E+03  0.00000000000E+00 0.  1.
        -13    1    3    3    0    0 -0.56327803980E+03 -0.27721913977E+03  0.20204471599E+03  0.65951093155E+03  0.00000000000E+00 0. -1.
         22    1    1    2    0    0  0.99222978459E+03  0.50078546394E+03  0.25084689591E+04  0.27436695401E+04  0.00000000000E+00 0.  1.
<mgrwt>
<rscale>  0 0.26155450E+04</rscale>
<asrwt>0</asrwt>
<pdfrwt beam="1">  1        2 0.76323212E-01 0.26155450E+04</pdfrwt>
<pdfrwt beam="2">  1       -2 0.53037256E+00 0.26155450E+04</pdfrwt>
<totfact> 0.59348954E-02</totfact>
</mgrwt>
</event>
<event>
 6    1  0.1817112E-005  0.4921830E+03  0.7818608E-02  0.1015840E+00
         -1   -1    0    0    0  501 -0.00000000000E+00  0.00000000000E+00  0.34735218642E+03  0.34735218642E+03  0.00000000000E+00 0.  1.
          1   -1    0    0  501    0  0.00000000000E+00 -0.00000000000E+00 -0.17435051959E+03  0.17435051959E+03  0.00000000000E+00 0. -1.
         23    2    1    2    0    0  0.16414918553E+03 -0.16473291400E+03  0.38958703908E+02  0.25328250563E+03  0.92478965082E+02 0.  0.
         11    1    3    3    0    0  0.75034066873E+02 -0.60319468673E+02  0.61402430536E+02  0.11418759989E+03  0.00000000000E+00 0.  1.
        -11    1    3    3    0    0  0.89115118659E+02 -0.10441344532E+03 -0.22443726628E+02  0.13909490574E+03  0.00000000000E+00 0. -1.
         22    1    1    2    0    0 -0.16414918553E+03  0.16473291400E+03  0.13404296292E+03  0.26842020038E+03  0.00000000000E+00 0.  1.
<mgrwt>
<rscale>  0 0.49218303E+03</rscale>
<asrwt>0</asrwt>
<pdfrwt beam="1">  1        1 0.26823157E-01 0.49218303E+03</pdfrwt>
<pdfrwt beam="2">  1       -1 0.53438798E-01 0.49218303E+03</pdfrwt>
<totfact> 0.63451829E+02</totfact>
</mgrwt>
</event>
<event>
 6    1  0.1817112E-005  0.2119890E+04  0.7818608E-02  0.8552532E-01
          2   -1    0    0  501    0  0.00000000000E+00  0.00000000000E+00  0.10879815040E+04  0.10879815040E+04  0.00000000000E+00 0. -1.
         -2   -1    0    0    0  501 -0.00000000000E+00 -0.00000000000E+00 -0.10326313144E+04  0.10326313144E+04  0.00000000000E+00 0.  1.
         23    2    1    2    0    0  0.11118441701E+03 -0.20940962515E+03  0.10591176998E+04  0.10892236676E+04  0.91997447715E+02 0.  0.
         11    1    3    3    0    0  0.10564180947E+03 -0.15916515118E+03  0.66557155238E+03  0.69244438665E+03  0.00000000000E+00 0.  1.
        -11    1    3    3    0    0  0.55426075362E+01 -0.50244473967E+02  0.39354614743E+03  0.39677928099E+03  0.00000000000E+00 0. -1.
         22    1    1    2    0    0 -0.11118441701E+03  0.20940962515E+03 -0.10037675102E+04  0.10313891508E+04  0.00000000000E+00 0.  1.
<mgrwt>
<rscale>  0 0.21198903E+04</rscale>
<asrwt>0</asrwt>
<pdfrwt beam="1">  1        2 0.16738177E+00 0.21198903E+04</pdfrwt>
<pdfrwt beam="2">  1       -2 0.15886636E+00 0.21198903E+04</pdfrwt>
<totfact> 0.52364861E+00</totfact>
</mgrwt>
</event>
<event>
 6    1  0.1817112E-005  0.4129912E+04  0.7818608E-02  0.7978840E-01
         -2   -1    0    0    0  501 -0.00000000000E+00  0.00000000000E+00  0.10234201191E+04  0.10234201191E+04  0.00000000000E+00 0.  1.
          2   -1    0    0  501    0  0.00000000000E+00 -0.00000000000E+00 -0.41664632452E+04  0.41664632452E+04  0.00000000000E+00 0. -1.
         23    2    1    2    0    0 -0.13214788803E+04 -0.15389209849E+04 -0.20514863862E+04  0.28863902896E+04  0.89823618271E+02 0.  0.
         11    1    3    3    0    0 -0.69115678893E+03 -0.74573806786E+03 -0.10603798487E+04  0.14690910102E+04  0.00000000000E+00 0. -1.
        -11    1    3    3    0    0 -0.63032209138E+03 -0.79318291700E+03 -0.99110653750E+03  0.14172992794E+04  0.00000000000E+00 0.  1.
         22    1    1    2    0    0  0.13214788803E+04  0.15389209849E+04 -0.10915567399E+04  0.23034930747E+04  0.00000000000E+00 0.  1.
<mgrwt>
<rscale>  0 0.41299115E+04</rscale>
<asrwt>0</asrwt>
<pdfrwt beam="1">  1        2 0.64099434E+00 0.41299115E+04</pdfrwt>
<pdfrwt beam="2">  1       -2 0.15744925E+00 0.41299115E+04</pdfrwt>
<totfact> 0.50813396E-02</totfact>
</mgrwt>
</event>
<event>
 6    1  0.1817112E-005  0.1782978E+04  0.7818608E-02  0.8715404E-01
         -2   -1    0    0    0  501 -0.00000000000E+00  0.00000000000E+00  0.87205510870E+03  0.87205510870E+03  0.00000000000E+00 0.  1.
          2   -1    0    0  501    0  0.00000000000E+00 -0.00000000000E+00 -0.91135580202E+03  0.91135580202E+03  0.00000000000E+00 0. -1.
         23    2    1    2    0    0  0.45962053303E+03  0.74886459549E+03  0.11429741554E+03  0.89142346922E+03  0.97584248301E+02 0.  0.
         11    1    3    3    0    0  0.26472277593E+03  0.48137425920E+03  0.31519998795E+02  0.55026615000E+03  0.00000000000E+00 0. -1.
        -11    1    3    3    0    0  0.19489775711E+03  0.26749033629E+03  0.82777416749E+02  0.34115731922E+03  0.00000000000E+00 0.  1.
         22    1    1    2    0    0 -0.45962053303E+03 -0.74886459549E+03 -0.15359810887E+03  0.89198744151E+03  0.00000000000E+00 0.  1.
<mgrwt>
<rscale>  0 0.17829778E+04</rscale>
<asrwt>0</asrwt>
<pdfrwt beam="1">  1        2 0.14020859E+00 0.17829778E+04</pdfrwt>
<pdfrwt beam="2">  1       -2 0.13416232E+00 0.17829778E+04</pdfrwt>
<totfact> 0.10915166E+01</totfact>
</mgrwt>
</event>
<event>
 6    1  0.1817112E-005  0.3109724E+04  0.7818608E-02  0.8213074E-01
          2   -1    0    0  501    0  0.00000000000E+00  0.00000000000E+00  0.18558978985E+04  0.18558978985E+04  0.00000000000E+00 0. -1.
         -2   -1    0    0    0  501 -0.00000000000E+00 -0.00000000000E+00 -0.13026557919E+04  0.13026557919E+04  0.00000000000E+00 0.  1.
         23    2    1    2    0    0  0.51187733663E+03 -0.34765288342E+03 -0.11705118730E+04  0.13271037957E+04  0.90694566997E+02 0.  0.
         11    1    3    3    0    0  0.19204992293E+03 -0.80255418591E+02 -0.41118979027E+03  0.46086999114E+03  0.00000000000E+00 0. -1.
        -11    1    3    3    0    0  0.31982741370E+03 -0.26739746483E+03 -0.75932208273E+03  0.86623380451E+03  0.00000000000E+00 0.  1.
         22    1    1    2    0    0 -0.51187733663E+03  0.34765288342E+03  0.17237539796E+04  0.18314498948E+04  0.00000000000E+00 0. -1.
<mgrwt>
<rscale>  0 0.31097242E+04</rscale>
<asrwt>0</asrwt>
<pdfrwt beam="1">  1        2 0.28552275E+00 0.31097242E+04</pdfrwt>
<pdfrwt beam="2">  1       -2 0.20040858E+00 0.31097242E+04</pdfrwt>
<totfact> 0.90095166E-01</totfact>
</mgrwt>
</event>
<event>
 6    1  0.1817112E-005  0.4145439E+04  0.7818608E-02  0.7975833E-01
         -2   -1    0    0    0  501 -0.00000000000E+00  0.00000000000E+00  0.13009432457E+04  0.13009432457E+04  0.00000000000E+00 0.  1.
          2   -1    0    0  501    0  0.00000000000E+00 -0.00000000000E+00 -0.33023478181E+04  0.33023478181E+04  0.00000000000E+00 0. -1.
         23    2    1    2    0    0  0.17820078910E+04 -0.96283678739E+03 -0.14843131839E+04  0.25128388862E+04  0.92557210199E+02 0.  0.
         13    1    3    3    0    0  0.12468371016E+04 -0.68408324040E+03 -0.10927732958E+04  0.17935233798E+04  0.00000000000E+00 0.  1.
        -13    1    3    3    0    0  0.53517078938E+03 -0.27875354699E+03 -0.39153988819E+03  0.71931550644E+03  0.00000000000E+00 0. -1.
         22    1    1    2    0    0 -0.17820078910E+04  0.96283678739E+03 -0.51709138851E+03  0.20904521776E+04  0.00000000000E+00 0.  1.
<mgrwt>
<rscale>  0 0.41454395E+04</rscale>
<asrwt>0</asrwt>
<pdfrwt beam="1">  1        2 0.50805351E+00 0.41454395E+04</pdfrwt>
<pdfrwt beam="2">  1       -2 0.20014512E+00 0.41454395E+04</pdfrwt>
<totfact> 0.11469159E-01</totfact>
</mgrwt>
</event>
<event>
 6    1  0.1817112E-005  0.4997505E+04  0.7818608E-02  0.7828892E-01
         -2   -1    0    0    0  501 -0.00000000000E+00  0.00000000000E+00  0.22170375188E+04  0.22170375188E+04  0.00000000000E+00 0.  1.
          2   -1    0    0  501    0  0.00000000000E+00 -0.00000000000E+00 -0.28162649744E+04  0.28162649744E+04  0.00000000000E+00 0. -1.
         23    2    1    2    0    0  0.60052174427E+03 -0.21578079636E+04  0.81409209703E+03  0.23848626258E+04  0.89789913275E+02 0.  0.
         13    1    3    3    0    0  0.69156171448E+02 -0.28068377212E+03  0.13621690016E+03  0.31956376495E+03  0.00000000000E+00 0. -1.
        -13    1    3    3    0    0  0.53136557283E+03 -0.18771241915E+04  0.67787519686E+03  0.20652988609E+04  0.00000000000E+00 0.  1.
         22    1    1    2    0    0 -0.60052174427E+03  0.21578079636E+04 -0.14133195527E+04  0.26484398674E+04  0.00000000000E+00 0. -1.
<mgrwt>
<rscale>  0 0.49975054E+04</rscale>
<asrwt>0</asrwt>
<pdfrwt beam="1">  1        2 0.43327154E+00 0.49975054E+04</pdfrwt>
<pdfrwt beam="2">  1       -2 0.34108269E+00 0.49975054E+04</pdfrwt>
<totfact> 0.29133631E-02</totfact>
</mgrwt>
</event>
<event>
 6    1  0.1817112E-005  0.2939954E+04  0.7818608E-02  0.8261088E-01
         -2   -1    0    0    0  501 -0.00000000000E+00  0.00000000000E+00  0.12447956171E+04  0.12447956171E+04  0.00000000000E+00 0.  1.
          2   -1    0    0  501    0  0.00000000000E+00 -0.00000000000E+00 -0.17358927668E+04  0.17358927668E+04  0.00000000000E+00 0. -1.
         23    2    1    2    0    0  0.13791098313E+03  0.12932714005E+04  0.44569433881E+03  0.13778319812E+04  0.90593432931E+02 0.  0.
         13    1    3    3    0    0  0.14426635115E+03  0.10639378782E+04  0.38377242483E+03  0.11402007993E+04  0.00000000000E+00 0.  1.
        -13    1    3    3    0    0 -0.63553680154E+01  0.22933352233E+03  0.61921913979E+02  0.23763118188E+03  0.00000000000E+00 0. -1.
         22    1    1    2    0    0 -0.13791098313E+03 -0.12932714005E+04 -0.93679148858E+03  0.16028564027E+04  0.00000000000E+00 0. -1.
<mgrwt>
<rscale>  0 0.29399535E+04</rscale>
<asrwt>0</asrwt>
<pdfrwt beam="1">  1        2 0.26706042E+00 0.29399535E+04</pdfrwt>
<pdfrwt beam="2">  1       -2 0.19150702E+00 0.29399535E+04</pdfrwt>
<totfact> 0.12203163E+00</totfact>
</mgrwt>
</event>
<event>
 6    1  0.1817112E-005  0.1815465E+04  0.7818608E-02  0.8698118E-01
         -2   -1    0    0    0  501 -0.00000000000E+00  0.00000000000E+00  0.34915608888E+03  0.34915608888E+03  0.00000000000E+00 0.  1.
          2   -1    0    0  501    0  0.00000000000E+00 -0.00000000000E+00 -0.23599146056E+04  0.23599146056E+04  0.00000000000E+00 0. -1.
         23    2    1    2    0    0  0.84937301689E+03  0.86816847828E+02 -0.14579687928E+04  0.16919432856E+04  0.89595726765E+02 0.  0.
         13    1    3    3    0    0  0.45521391477E+03  0.89799652581E+02 -0.81160099164E+03  0.93486889746E+03  0.00000000000E+00 0. -1.
        -13    1    3    3    0    0  0.39415910212E+03 -0.29828047523E+01 -0.64636780113E+03  0.75707438818E+03  0.00000000000E+00 0.  1.
         22    1    1    2    0    0 -0.84937301689E+03 -0.86816847828E+02 -0.55278972392E+03  0.10171274088E+04  0.00000000000E+00 0.  1.
<mgrwt>
<rscale>  0 0.18154653E+04</rscale>
<asrwt>0</asrwt>
<pdfrwt beam="1">  1        2 0.36306380E+00 0.18154653E+04</pdfrwt>
<pdfrwt beam="2">  1       -2 0.53716319E-01 0.18154653E+04</pdfrwt>
<totfact> 0.12912158E+01</totfact>
</mgrwt>
</event>
<event>
 6    1  0.1817112E-005  0.2514982E+04  0.7818608E-02  0.8397667E-01
          2   -1    0    0  501    0  0.00000000000E+00  0.00000000000E+00  0.10220304092E+04  0.10220304092E+04  0.00000000000E+00 0.  1.
         -2   -1    0    0    0  501 -0.00000000000E+00 -0.00000000000E+00 -0.15471986460E+04  0.15471986460E+04  0.00000000000E+00 0. -1.
         23    2    1    2    0    0 -0.10334998881E+04 -0.55009331072E+03 -0.72738846932E+03  0.13811138707E+04  0.87503539887E+02 0.  0.
         11    1    3    3    0    0 -0.83617383045E+03 -0.44731211746E+03 -0.62829898023E+03  0.11375563343E+04  0.00000000000E+00 0.  1.
        -11    1    3    3    0    0 -0.19732605760E+03 -0.10278119326E+03 -0.99089489085E+02  0.24355753642E+03  0.00000000000E+00 0. -1.
         22    1    1    2    0    0  0.10334998881E+04  0.55009331072E+03  0.20222023256E+03  0.11881151845E+04  0.00000000000E+00 0. -1.
<mgrwt>
<rscale>  0 0.25149824E+04</rscale>
<asrwt>0</asrwt>
<pdfrwt beam="1">  1        2 0.15723545E+00 0.25149824E+04</pdfrwt>
<pdfrwt beam="2">  1       -2 0.23803056E+00 0.25149824E+04</pdfrwt>
<totfact> 0.16546050E+00</totfact>
</mgrwt>
</event>
<event>
 6    1  0.1817112E-005  0.1170742E+04  0.7818608E-02  0.9138859E-01
          2   -1    0    0  501    0  0.00000000000E+00  0.00000000000E+00  0.99323829914E+03  0.99323829914E+03  0.00000000000E+00 0. -1.
         -2   -1    0    0    0  501 -0.00000000000E+00 -0.00000000000E+00 -0.34499171071E+03  0.34499171071E+03  0.00000000000E+00 0.  1.
         23    2    1    2    0    0 -0.32056697661E+03  0.21849794516E+02 -0.22835157847E+03  0.40460002627E+03  0.91192860764E+02 0.  0.
         11    1    3    3    0    0 -0.11587427860E+03  0.95360045079E+00 -0.13711553888E+03  0.17952278072E+03  0.00000000000E+00 0.  1.
        -11    1    3    3    0    0 -0.20469269801E+03  0.20896194066E+02 -0.91236039593E+02  0.22507724555E+03  0.00000000000E+00 0. -1.
         22    1    1    2    0    0  0.32056697661E+03 -0.21849794516E+02  0.87659816691E+03  0.93362998358E+03  0.00000000000E+00 0. -1.
<mgrwt>
<rscale>  0 0.11707416E+04</rscale>
<asrwt>0</asrwt>
<pdfrwt beam="1">  1        2 0.15280589E+00 0.11707416E+04</pdfrwt>
<pdfrwt beam="2">  1       -2 0.53075648E-01 0.11707416E+04</pdfrwt>
<totfact> 0.84187895E+01</totfact>
</mgrwt>
</event>
<event>
 6    1  0.1817112E-005  0.2586971E+04  0.7818608E-02  0.8372640E-01
         -2   -1    0    0    0  501 -0.00000000000E+00  0.00000000000E+00  0.84157748465E+03  0.84157748465E+03  0.00000000000E+00 0.  1.
          2   -1    0    0  501    0  0.00000000000E+00 -0.00000000000E+00 -0.19880583175E+04  0.19880583175E+04  0.00000000000E+00 0. -1.
         23    2    1    2    0    0 -0.65031290614E+03  0.93424787351E+03  0.94195462386E+02  0.11458888988E+04  0.91992489834E+02 0.  0.
         13    1    3    3    0    0 -0.34880273527E+03  0.42066800058E+03  0.45796993049E+02  0.54838150900E+03  0.00000000000E+00 0. -1.
        -13    1    3    3    0    0 -0.30151017087E+03  0.51357987293E+03  0.48398469337E+02  0.59750738979E+03  0.00000000000E+00 0.  1.
         22    1    1    2    0    0  0.65031290614E+03 -0.93424787351E+03 -0.12406762953E+04  0.16837469034E+04  0.00000000000E+00 0. -1.
<mgrwt>
<rscale>  0 0.25869713E+04</rscale>
<asrwt>0</asrwt>
<pdfrwt beam="1">  1        2 0.30585512E+00 0.25869713E+04</pdfrwt>
<pdfrwt beam="2">  1       -2 0.12947346E+00 0.25869713E+04</pdfrwt>
<totfact> 0.26361318E+00</totfact>
</mgrwt>
</event>
<event>
 6    1  0.1817112E-005  0.3897194E+04  0.7818608E-02  0.8025613E-01
         -2   -1    0    0    0  501 -0.00000000000E+00  0.00000000000E+00  0.28177567737E+04  0.28177567737E+04  0.00000000000E+00 0.  1.
          2   -1    0    0  501    0  0.00000000000E+00 -0.00000000000E+00 -0.13475365261E+04  0.13475365261E+04  0.00000000000E+00 0. -1.
         23    2    1    2    0    0  0.31207686805E+03 -0.63764482660E+03 -0.12026483038E+04  0.13997537161E+04  0.94681711621E+02 0.  0.
         13    1    3    3    0    0  0.26699432635E+03 -0.46220083253E+03 -0.86038690446E+03  0.10125123235E+04  0.00000000000E+00 0. -1.
        -13    1    3    3    0    0  0.45082541700E+02 -0.17544399406E+03 -0.34226139936E+03  0.38724139256E+03  0.00000000000E+00 0.  1.
         22    1    1    2    0    0 -0.31207686805E+03  0.63764482660E+03  0.26728685514E+04  0.27655395838E+04  0.00000000000E+00 0.  1.
<mgrwt>
<rscale>  0 0.38971940E+04</rscale>
<asrwt>0</asrwt>
<pdfrwt beam="1">  1        2 0.20731331E+00 0.38971940E+04</pdfrwt>
<pdfrwt beam="2">  1       -2 0.43350104E+00 0.38971940E+04</pdfrwt>
<totfact> 0.55054072E-02</totfact>
</mgrwt>
</event>
<event>
 6    1  0.1817112E-005  0.1062081E+04  0.7818608E-02  0.9242959E-01
         -2   -1    0    0    0  501 -0.00000000000E+00  0.00000000000E+00  0.30292487868E+03  0.30292487868E+03  0.00000000000E+00 0.  1.
          2   -1    0    0  501    0  0.00000000000E+00 -0.00000000000E+00 -0.93093771870E+03  0.93093771870E+03  0.00000000000E+00 0. -1.
         23    2    1    2    0    0 -0.30714334544E+03  0.71805094384E+02  0.17536085714E+03  0.37078536821E+03  0.85072632690E+02 0.  0.
         11    1    3    3    0    0 -0.16086617815E+03 -0.60231362320E+01  0.88662609577E+02  0.18378047714E+03  0.00000000000E+00 0. -1.
        -11    1    3    3    0    0 -0.14627716730E+03  0.77828230616E+02  0.86698247560E+02  0.18700489107E+03  0.00000000000E+00 0.  1.
         22    1    1    2    0    0  0.30714334544E+03 -0.71805094384E+02 -0.80337369716E+03  0.86307722917E+03  0.00000000000E+00 0. -1.
<mgrwt>
<rscale>  0 0.10620813E+04</rscale>
<asrwt>0</asrwt>
<pdfrwt beam="1">  1        2 0.14322118E+00 0.10620813E+04</pdfrwt>
<pdfrwt beam="2">  1       -2 0.46603829E-01 0.10620813E+04</pdfrwt>
<totfact> 0.12136027E+02</totfact>
</mgrwt>
</event>
<event>
 6    1  0.1817112E-005  0.2479374E+04  0.7818608E-02  0.8410371E-01
          2   -1    0    0  501    0  0.00000000000E+00  0.00000000000E+00  0.20209065505E+04  0.20209065505E+04  0.00000000000E+00 0. -1.
         -2   -1    0    0    0  501 -0.00000000000E+00 -0.00000000000E+00 -0.76046282913E+03  0.76046282913E+03  0.00000000000E+00 0.  1.
         23    2    1    2    0    0  0.91207730732E+03  0.81234914953E+03  0.85758424969E+03  0.14952543346E+04  0.92404677561E+02 0.  0.
         11    1    3    3    0    0  0.60799664049E+03  0.58136679893E+03  0.62694911341E+03  0.10491484454E+04  0.00000000000E+00 0. -1.
        -11    1    3    3    0    0  0.30408066684E+03  0.23098235060E+03  0.23063513629E+03  0.44610588913E+03  0.00000000000E+00 0.  1.
         22    1    1    2    0    0 -0.91207730732E+03 -0.81234914953E+03  0.40285947171E+03  0.12861150451E+04  0.00000000000E+00 0. -1.
<mgrwt>
<rscale>  0 0.24793744E+04</rscale>
<asrwt>0</asrwt>
<pdfrwt beam="1">  1        2 0.31090870E+00 0.24793744E+04</pdfrwt>
<pdfrwt beam="2">  1       -2 0.11699428E+00 0.24793744E+04</pdfrwt>
<totfact> 0.32852168E+00</totfact>
</mgrwt>
</event>
<event>
 6    1  0.1817112E-005  0.1219171E+04  0.7818608E-02  0.9096240E-01
         -2   -1    0    0    0  501 -0.00000000000E+00  0.00000000000E+00  0.38401644052E+03  0.38401644052E+03  0.00000000000E+00 0. -1.
          2   -1    0    0  501    0  0.00000000000E+00 -0.00000000000E+00 -0.96765204317E+03  0.96765204317E+03  0.00000000000E+00 0.  1.
         23    2    1    2    0    0  0.45550300921E+03 -0.58505529980E+01  0.15032132207E+03  0.48783401591E+03  0.88703477079E+02 0.  0.
         11    1    3    3    0    0  0.18891607680E+03 -0.59441571687E+01  0.17011880276E+02  0.18977360499E+03  0.00000000000E+00 0.  1.
        -11    1    3    3    0    0  0.26658693240E+03  0.93604170612E-01  0.13330944179E+03  0.29806041093E+03  0.00000000000E+00 0. -1.
         22    1    1    2    0    0 -0.45550300921E+03  0.58505529980E+01 -0.73395692472E+03  0.86383446778E+03  0.00000000000E+00 0.  1.
<mgrwt>
<rscale>  0 0.12191707E+04</rscale>
<asrwt>0</asrwt>
<pdfrwt beam="1">  1        2 0.14886954E+00 0.12191707E+04</pdfrwt>
<pdfrwt beam="2">  1       -2 0.59079453E-01 0.12191707E+04</pdfrwt>
<totfact> 0.69724029E+01</totfact>
</mgrwt>
</event>
<event>
 6    1  0.1817112E-005  0.3860708E+04  0.7818608E-02  0.8033251E-01
          2   -1    0    0  501    0  0.00000000000E+00  0.00000000000E+00  0.35984421657E+04  0.35984421657E+04  0.00000000000E+00 0. -1.
         -2   -1    0    0    0  501 -0.00000000000E+00 -0.00000000000E+00 -0.10355223529E+04  0.10355223529E+04  0.00000000000E+00 0.  1.
         23    2    1    2    0    0  0.94918526634E+03  0.66856396692E+02  0.32966040073E+04  0.34324176220E+04  0.92034250063E+02 0.  0.
         11    1    3    3    0    0  0.37656353568E+03  0.80254594194E+01  0.14539261395E+04  0.15019206782E+04  0.00000000000E+00 0. -1.
        -11    1    3    3    0    0  0.57262173066E+03  0.58830937273E+02  0.18426778678E+04  0.19304969438E+04  0.00000000000E+00 0.  1.
         22    1    1    2    0    0 -0.94918526634E+03 -0.66856396692E+02 -0.73368419448E+03  0.12015468966E+04  0.00000000000E+00 0.  1.
<mgrwt>
<rscale>  0 0.38607084E+04</rscale>
<asrwt>0</asrwt>
<pdfrwt beam="1">  1        2 0.55360648E+00 0.38607084E+04</pdfrwt>
<pdfrwt beam="2">  1       -2 0.15931113E+00 0.38607084E+04</pdfrwt>
<totfact> 0.14045761E-01</totfact>
</mgrwt>
</event>
<event>
 6    1  0.1817112E-005  0.3716783E+04  0.7818608E-02  0.8064253E-01
          2   -1    0    0  501    0  0.00000000000E+00  0.00000000000E+00  0.18719328507E+04  0.18719328507E+04  0.00000000000E+00 0. -1.
         -2   -1    0    0    0  501 -0.00000000000E+00 -0.00000000000E+00 -0.18449482250E+04  0.18449482250E+04  0.00000000000E+00 0.  1.
         23    2    1    2    0    0  0.18250425069E+04  0.30523225563E+03  0.17345486373E+03  0.18607020939E+04  0.90436777176E+02 0.  0.
         13    1    3    3    0    0  0.10342004976E+04  0.20228266021E+03  0.13306400997E+03  0.10621652295E+04  0.00000000000E+00 0.  1.
        -13    1    3    3    0    0  0.79084200927E+03  0.10294959542E+03  0.40390853755E+02  0.79853686445E+03  0.00000000000E+00 0. -1.
         22    1    1    2    0    0 -0.18250425069E+04 -0.30523225563E+03 -0.14647023808E+03  0.18561789818E+04  0.00000000000E+00 0. -1.
<mgrwt>
<rscale>  0 0.37167831E+04</rscale>
<asrwt>0</asrwt>
<pdfrwt beam="1">  1        2 0.28798967E+00 0.37167831E+04</pdfrwt>
<pdfrwt beam="2">  1       -2 0.28383819E+00 0.37167831E+04</pdfrwt>
<totfact> 0.25354607E-01</totfact>
</mgrwt>
</event>
<event>
 6    1  0.1817112E-005  0.1912729E+04  0.7818608E-02  0.8648546E-01
          1   -1    0    0  501    0  0.00000000000E+00  0.00000000000E+00  0.94580163144E+03  0.94580163144E+03  0.00000000000E+00 0. -1.
         -1   -1    0    0    0  501 -0.00000000000E+00 -0.00000000000E+00 -0.96704560269E+03  0.96704560269E+03  0.00000000000E+00 0.  1.
         23    2    1    2    0    0 -0.51604215110E+03 -0.79942225130E+03  0.60926572481E+02  0.95779360431E+03  0.91000569468E+02 0.  0.
         11    1    3    3    0    0 -0.15245769868E+03 -0.16600522146E+03  0.20626993384E+02  0.22633284405E+03  0.00000000000E+00 0. -1.
        -11    1    3    3    0    0 -0.36358445242E+03 -0.63341702983E+03  0.40299579097E+02  0.73146076026E+03  0.00000000000E+00 0.  1.
         22    1    1    2    0    0  0.51604215110E+03  0.79942225130E+03 -0.82170543733E+02  0.95505362982E+03  0.00000000000E+00 0.  1.
<mgrwt>
<rscale>  0 0.19127293E+04</rscale>
<asrwt>0</asrwt>
<pdfrwt beam="1">  1        1 0.14550794E+00 0.19127293E+04</pdfrwt>
<pdfrwt beam="2">  1       -1 0.14877625E+00 0.19127293E+04</pdfrwt>
<totfact> 0.55688718E+00</totfact>
</mgrwt>
</event>
<event>
 6    1  0.1817112E-005  0.2106171E+04  0.7818608E-02  0.8558530E-01
          2   -1    0    0  501    0  0.00000000000E+00  0.00000000000E+00  0.57330168324E+03  0.57330168324E+03  0.00000000000E+00 0. -1.
         -2   -1    0    0    0  501 -0.00000000000E+00 -0.00000000000E+00 -0.19343903285E+04  0.19343903285E+04  0.00000000000E+00 0.  1.
         23    2    1    2    0    0  0.94864098447E+03 -0.39790199190E+03 -0.93915947010E+03  0.13958152463E+04  0.89632466494E+02 0.  0.
         13    1    3    3    0    0  0.90589093783E+03 -0.39259132982E+03 -0.87949640624E+03  0.13222254997E+04  0.00000000000E+00 0. -1.
        -13    1    3    3    0    0  0.42750046646E+02 -0.53106620820E+01 -0.59663063862E+02  0.73589746633E+02  0.00000000000E+00 0.  1.
         22    1    1    2    0    0 -0.94864098447E+03  0.39790199190E+03 -0.42192917515E+03  0.11118767654E+04  0.00000000000E+00 0.  1.
<mgrwt>
<rscale>  0 0.21061712E+04</rscale>
<asrwt>0</asrwt>
<pdfrwt beam="1">  1        2 0.88200259E-01 0.21061712E+04</pdfrwt>
<pdfrwt beam="2">  1       -2 0.29759851E+00 0.21061712E+04</pdfrwt>
<totfact> 0.15877597E+00</totfact>
</mgrwt>
</event>
<event>
 6    1  0.1817112E-005  0.2075712E+04  0.7818608E-02  0.8572019E-01
          2   -1    0    0  501    0  0.00000000000E+00  0.00000000000E+00  0.23231357228E+04  0.23231357228E+04  0.00000000000E+00 0. -1.
         -2   -1    0    0    0  501 -0.00000000000E+00 -0.00000000000E+00 -0.46365978474E+03  0.46365978474E+03  0.00000000000E+00 0.  1.
         23    2    1    2    0    0  0.10357332069E+02 -0.67637531490E+03  0.19847498902E+04  0.20988388200E+04  0.91112154848E+02 0.  0.
         11    1    3    3    0    0  0.23569188151E+02 -0.36632165840E+03  0.12024629509E+04  0.12572446907E+04  0.00000000000E+00 0. -1.
        -11    1    3    3    0    0 -0.13211856082E+02 -0.31005365650E+03  0.78228693928E+03  0.84159412926E+03  0.00000000000E+00 0.  1.
         22    1    1    2    0    0 -0.10357332069E+02  0.67637531490E+03 -0.12527395209E+03  0.68795668759E+03  0.00000000000E+00 0.  1.
<mgrwt>
<rscale>  0 0.20757115E+04</rscale>
<asrwt>0</asrwt>
<pdfrwt beam="1">  1        2 0.35740549E+00 0.20757115E+04</pdfrwt>
<pdfrwt beam="2">  1       -2 0.71332276E-01 0.20757115E+04</pdfrwt>
<totfact> 0.72447807E+00</totfact>
</mgrwt>
</event>
<event>
 6    1  0.1817112E-005  0.2551660E+04  0.7818608E-02  0.8384809E-01
          2   -1    0    0  501    0  0.00000000000E+00  0.00000000000E+00  0.20193069064E+04  0.20193069064E+04  0.00000000000E+00 0. -1.
         -2   -1    0    0    0  501 -0.00000000000E+00 -0.00000000000E+00 -0.80608934867E+03  0.80608934867E+03  0.00000000000E+00 0.  1.
         23    2    1    2    0    0  0.58230353157E+03  0.10893485632E+04  0.95371627652E+03  0.15632161530E+04  0.91171871016E+02 0.  0.
         13    1    3    3    0    0  0.28471927626E+03  0.46373965974E+03  0.37994517130E+03  0.66368506950E+03  0.00000000000E+00 0. -1.
        -13    1    3    3    0    0  0.29758425531E+03  0.62560890343E+03  0.57377110522E+03  0.89953108354E+03  0.00000000000E+00 0.  1.
         22    1    1    2    0    0 -0.58230353157E+03 -0.10893485632E+04  0.25950128118E+03  0.12621801020E+04  0.00000000000E+00 0.  1.
<mgrwt>
<rscale>  0 0.25516597E+04</rscale>
<asrwt>0</asrwt>
<pdfrwt beam="1">  1        2 0.31066260E+00 0.25516597E+04</pdfrwt>
<pdfrwt beam="2">  1       -2 0.12401375E+00 0.25516597E+04</pdfrwt>
<totfact> 0.28312092E+00</totfact>
</mgrwt>
</event>
<event>
 6    1  0.1817112E-005  0.1938651E+04  0.7818608E-02  0.8635853E-01
         -2   -1    0    0    0  501 -0.00000000000E+00  0.00000000000E+00  0.64141651932E+03  0.64141651932E+03  0.00000000000E+00 0.  1.
          2   -1    0    0  501    0  0.00000000000E+00 -0.00000000000E+00 -0.14648704268E+04  0.14648704268E+04  0.00000000000E+00 0. -1.
         23    2    1    2    0    0 -0.10775821661E+03  0.27711982369E+03 -0.14125054763E+04  0.14464468286E+04  0.92894979965E+02 0.  0.
         11    1    3    3    0    0 -0.10499055940E+03  0.20766751063E+03 -0.91578534776E+03  0.94488709151E+03  0.00000000000E+00 0. -1.
        -11    1    3    3    0    0 -0.27676572076E+01  0.69452313065E+02 -0.49672012857E+03  0.50155973707E+03  0.00000000000E+00 0.  1.
         22    1    1    2    0    0  0.10775821661E+03 -0.27711982369E+03  0.58905156886E+03  0.65984011753E+03  0.00000000000E+00 0.  1.
<mgrwt>
<rscale>  0 0.19386512E+04</rscale>
<asrwt>0</asrwt>
<pdfrwt beam="1">  1        2 0.22536468E+00 0.19386512E+04</pdfrwt>
<pdfrwt beam="2">  1       -2 0.98679465E-01 0.19386512E+04</pdfrwt>
<totfact> 0.10577231E+01</totfact>
</mgrwt>
</event>
<event>
 6    1  0.1817112E-005  0.4531730E+04  0.7818608E-02  0.7905105E-01
          2   -1    0    0  501    0  0.00000000000E+00  0.00000000000E+00  0.31840019505E+04  0.31840019505E+04  0.00000000000E+00 0. -1.
         -2   -1    0    0    0  501 -0.00000000000E+00 -0.00000000000E+00 -0.16124814331E+04  0.16124814331E+04  0.00000000000E+00 0.  1.
         23    2    1    2    0    0 -0.15589362824E+04 -0.82997218683E+02  0.25228849924E+04  0.29682970596E+04  0.93101440979E+02 0.  0.
         13    1    3    3    0    0 -0.66287024977E+03 -0.13548661307E+02  0.11485652162E+04  0.13261910082E+04  0.00000000000E+00 0.  1.
        -13    1    3    3    0    0 -0.89606603268E+03 -0.69448557376E+02  0.13743197762E+04  0.16421060515E+04  0.00000000000E+00 0. -1.
         22    1    1    2    0    0  0.15589362824E+04  0.82997218683E+02 -0.95136447497E+03  0.18281863240E+04  0.00000000000E+00 0.  1.
<mgrwt>
<rscale>  0 0.45317299E+04</rscale>
<asrwt>0</asrwt>
<pdfrwt beam="1">  1        2 0.48984645E+00 0.45317299E+04</pdfrwt>
<pdfrwt beam="2">  1       -2 0.24807407E+00 0.45317299E+04</pdfrwt>
<totfact> 0.66235407E-02</totfact>
</mgrwt>
</event>
<event>
 6    1  0.1817112E-005  0.2752551E+04  0.7818608E-02  0.8318153E-01
         -2   -1    0    0    0  501 -0.00000000000E+00  0.00000000000E+00  0.50832671831E+03  0.50832671831E+03  0.00000000000E+00 0.  1.
          2   -1    0    0  501    0  0.00000000000E+00 -0.00000000000E+00 -0.37262140716E+04  0.37262140716E+04  0.00000000000E+00 0. -1.
         23    2    1    2    0    0 -0.13503351586E+04  0.82048339997E+02 -0.12349428437E+04  0.18340812717E+04  0.92915624470E+02 0.  0.
         11    1    3    3    0    0 -0.32996241328E+03  0.15688987595E+02 -0.24929644132E+03  0.41384786355E+03  0.00000000000E+00 0.  1.
        -11    1    3    3    0    0 -0.10203727453E+04  0.66359352402E+02 -0.98564640241E+03  0.14202334082E+04  0.00000000000E+00 0. -1.
         22    1    1    2    0    0  0.13503351586E+04 -0.82048339997E+02 -0.19829445096E+04  0.24004595183E+04  0.00000000000E+00 0.  1.
<mgrwt>
<rscale>  0 0.27525509E+04</rscale>
<asrwt>0</asrwt>
<pdfrwt beam="1">  1        2 0.57326369E+00 0.27525509E+04</pdfrwt>
<pdfrwt beam="2">  1       -2 0.78204112E-01 0.27525509E+04</pdfrwt>
<totfact> 0.70947307E-01</totfact>
</mgrwt>
</event>
<event>
 6    1  0.1817112E-005  0.6188159E+04  0.7818608E-02  0.7667500E-01
         -2   -1    0    0    0  501 -0.00000000000E+00  0.00000000000E+00  0.23785148496E+04  0.23785148496E+04  0.00000000000E+00 0. -1.
          2   -1    0    0  501    0  0.00000000000E+00 -0.00000000000E+00 -0.40249185636E+04  0.40249185636E+04  0.00000000000E+00 0.  1.
         23    2    1    2    0    0 -0.13666712580E+04 -0.15283357208E+04  0.15734463479E+04  0.25862309265E+04  0.96211187628E+02 0.  0.
         13    1    3    3    0    0 -0.38646741321E+03 -0.36887358037E+03  0.41007953349E+03  0.67349090829E+03  0.00000000000E+00 0. -1.
        -13    1    3    3    0    0 -0.98020384482E+03 -0.11594621404E+04  0.11633668144E+04  0.19127400182E+04  0.00000000000E+00 0.  1.
         22    1    1    2    0    0  0.13666712580E+04  0.15283357208E+04 -0.32198500620E+04  0.38172024867E+04  0.00000000000E+00 0.  1.
<mgrwt>
<rscale>  0 0.61881592E+04</rscale>
<asrwt>0</asrwt>
<pdfrwt beam="1">  1        2 0.61921824E+00 0.61881592E+04</pdfrwt>
<pdfrwt beam="2">  1       -2 0.36592536E+00 0.61881592E+04</pdfrwt>
<totfact> 0.26560546E-03</totfact>
</mgrwt>
</event>
<event>
 6    1  0.1817112E-005  0.4733556E+04  0.7818608E-02  0.7870977E-01
          4   -1    0    0  501    0  0.00000000000E+00  0.00000000000E+00  0.19566714386E+04  0.19566714386E+04  0.00000000000E+00 0. -1.
         -4   -1    0    0    0  501 -0.00000000000E+00 -0.00000000000E+00 -0.28628402081E+04  0.28628402081E+04  0.00000000000E+00 0.  1.
         23    2    1    2    0    0 -0.40427768713E+03  0.17125487270E+04  0.11571359448E+04  0.21077797398E+04  0.86650134646E+02 0.  0.
         13    1    3    3    0    0 -0.21617748177E+03  0.88287860218E+03  0.64868232787E+03  0.11166897923E+04  0.00000000000E+00 0.  1.
        -13    1    3    3    0    0 -0.18810020536E+03  0.82967012483E+03  0.50845361696E+03  0.99108994743E+03  0.00000000000E+00 0. -1.
         22    1    1    2    0    0  0.40427768713E+03 -0.17125487270E+04 -0.20633047143E+04  0.27117319069E+04  0.00000000000E+00 0.  1.
<mgrwt>
<rscale>  0 0.47335558E+04</rscale>
<asrwt>0</asrwt>
<pdfrwt beam="1">  1        4 0.30102637E+00 0.47335558E+04</pdfrwt>
<pdfrwt beam="2">  1       -4 0.44043696E+00 0.47335558E+04</pdfrwt>
<totfact> 0.15261691E-04</totfact>
</mgrwt>
</event>
<event>
 6    1  0.1817112E-005  0.1182027E+04  0.7818608E-02  0.9128736E-01
          2   -1    0    0  501    0  0.00000000000E+00  0.00000000000E+00  0.14166924345E+04  0.14166924345E+04  0.00000000000E+00 0. -1.
         -2   -1    0    0    0  501 -0.00000000000E+00 -0.00000000000E+00 -0.24655791095E+03  0.24655791095E+03  0.00000000000E+00 0.  1.
         23    2    1    2    0    0 -0.38967480153E+03 -0.80877609328E+02  0.11966778611E+04  0.12643867254E+04  0.90819873338E+02 0.  0.
         13    1    3    3    0    0 -0.11838982049E+03 -0.67511926400E+02  0.42337438378E+03  0.44476946685E+03  0.00000000000E+00 0. -1.
        -13    1    3    3    0    0 -0.27128498104E+03 -0.13365682929E+02  0.77330347731E+03  0.81961725851E+03  0.00000000000E+00 0.  1.
         22    1    1    2    0    0  0.38967480153E+03  0.80877609328E+02 -0.26543337571E+02  0.39886362006E+03  0.00000000000E+00 0.  1.
<mgrwt>
<rscale>  0 0.11820266E+04</rscale>
<asrwt>0</asrwt>
<pdfrwt beam="1">  1        2 0.21795268E+00 0.11820266E+04</pdfrwt>
<pdfrwt beam="2">  1       -2 0.37931987E-01 0.11820266E+04</pdfrwt>
<totfact> 0.91672266E+01</totfact>
</mgrwt>
</event>
<event>
 6    1  0.1817112E-005  0.4345948E+04  0.7818608E-02  0.7938176E-01
         -1   -1    0    0    0  501 -0.00000000000E+00  0.00000000000E+00  0.11082279555E+04  0.11082279555E+04  0.00000000000E+00 0.  1.
          1   -1    0    0  501    0  0.00000000000E+00 -0.00000000000E+00 -0.42606905089E+04  0.42606905089E+04  0.00000000000E+00 0. -1.
         23    2    1    2    0    0 -0.25600991425E+03 -0.52788305056E+02 -0.42406992451E+04  0.42497282310E+04  0.91281261244E+02 0.  0.
         13    1    3    3    0    0 -0.14239231707E+03 -0.71777836967E+02 -0.21914679273E+04  0.21972617746E+04  0.00000000000E+00 0. -1.
        -13    1    3    3    0    0 -0.11361759718E+03  0.18989531911E+02 -0.20492313178E+04  0.20524664564E+04  0.00000000000E+00 0.  1.
         22    1    1    2    0    0  0.25600991425E+03  0.52788305056E+02  0.10882366917E+04  0.11191902334E+04  0.00000000000E+00 0.  1.
<mgrwt>
<rscale>  0 0.43459482E+04</rscale>
<asrwt>0</asrwt>
<pdfrwt beam="1">  1        1 0.65549085E+00 0.43459482E+04</pdfrwt>
<pdfrwt beam="2">  1       -1 0.17049661E+00 0.43459482E+04</pdfrwt>
<totfact> 0.10247048E-02</totfact>
</mgrwt>
</event>
<event>
 6    1  0.1817112E-005  0.1723136E+04  0.7818608E-02  0.8748278E-01
          2   -1    0    0  501    0  0.00000000000E+00  0.00000000000E+00  0.12518438677E+04  0.12518438677E+04  0.00000000000E+00 0. -1.
         -2   -1    0    0    0  501 -0.00000000000E+00 -0.00000000000E+00 -0.59296516809E+03  0.59296516809E+03  0.00000000000E+00 0.  1.
         23    2    1    2    0    0  0.72484568563E+03  0.28189026387E+03  0.72093102256E+03  0.10646078569E+04  0.93728121639E+02 0.  0.
         11    1    3    3    0    0  0.38752946937E+03  0.12282675154E+03  0.42877591109E+03  0.59085893617E+03  0.00000000000E+00 0. -1.
        -11    1    3    3    0    0  0.33731621626E+03  0.15906351233E+03  0.29215511148E+03  0.47374892071E+03  0.00000000000E+00 0.  1.
         22    1    1    2    0    0 -0.72484568563E+03 -0.28189026387E+03 -0.62052322922E+02  0.78020117895E+03  0.00000000000E+00 0.  1.
<mgrwt>
<rscale>  0 0.17231365E+04</rscale>
<asrwt>0</asrwt>
<pdfrwt beam="1">  1        2 0.19259136E+00 0.17231365E+04</pdfrwt>
<pdfrwt beam="2">  1       -2 0.91225411E-01 0.17231365E+04</pdfrwt>
<totfact> 0.17167215E+01</totfact>
</mgrwt>
</event>
<event>
 6    1  0.1817112E-005  0.1399605E+04  0.7818608E-02  0.8954105E-01
         -1   -1    0    0    0  501 -0.00000000000E+00  0.00000000000E+00  0.25644588333E+03  0.25644588333E+03  0.00000000000E+00 0.  1.
          1   -1    0    0  501    0  0.00000000000E+00 -0.00000000000E+00 -0.19096563224E+04  0.19096563224E+04  0.00000000000E+00 0. -1.
         23    2    1    2    0    0  0.50091336528E+03  0.46097047899E+03 -0.10619901949E+04  0.12644651617E+04  0.87412751274E+02 0.  0.
         11    1    3    3    0    0  0.31040204341E+03  0.26808803613E+03 -0.56260194092E+03  0.69623384548E+03  0.00000000000E+00 0.  1.
        -11    1    3    3    0    0  0.19051132188E+03  0.19288244285E+03 -0.49938825393E+03  0.56823131618E+03  0.00000000000E+00 0. -1.
         22    1    1    2    0    0 -0.50091336528E+03 -0.46097047899E+03 -0.59122024418E+03  0.90163704402E+03  0.00000000000E+00 0. -1.
<mgrwt>
<rscale>  0 0.13996049E+04</rscale>
<asrwt>0</asrwt>
<pdfrwt beam="1">  1        1 0.29379327E+00 0.13996049E+04</pdfrwt>
<pdfrwt beam="2">  1       -1 0.39453214E-01 0.13996049E+04</pdfrwt>
<totfact> 0.20916277E+01</totfact>
</mgrwt>
</event>
<event>
 6    1  0.3883551E-005  0.3248112E+04  0.7818608E-02  0.8176225E-01
          2   -1    0    0  501    0  0.00000000000E+00  0.00000000000E+00  0.29819566197E+04  0.29819566197E+04  0.00000000000E+00 0. -1.
         -2   -1    0    0    0  501 -0.00000000000E+00 -0.00000000000E+00 -0.88450580933E+03  0.88450580933E+03  0.00000000000E+00 0.  1.
         23    2    1    2    0    0 -0.45335011902E+03 -0.33016835804E+03 -0.76286071634E+03  0.95168636474E+03  0.95984317592E+02 0.  0.
         11    1    3    3    0    0 -0.23245570494E+03 -0.19142750815E+03 -0.33383363880E+03  0.44958318922E+03  0.00000000000E+00 0. -1.
        -11    1    3    3    0    0 -0.22089441409E+03 -0.13874084989E+03 -0.42902707754E+03  0.50210317552E+03  0.00000000000E+00 0.  1.
         22    1    1    2    0    0  0.45335011902E+03  0.33016835804E+03  0.28603115267E+04  0.29147760643E+04  0.00000000000E+00 0. -1.
<mgrwt>
<rscale>  0 0.32481120E+04</rscale>
<asrwt>0</asrwt>
<pdfrwt beam="1">  1        2 0.45876255E+00 0.32481120E+04</pdfrwt>
<pdfrwt beam="2">  1       -2 0.13607782E+00 0.32481120E+04</pdfrwt>
<totfact> 0.57900118E-01</totfact>
</mgrwt>
</event>
<event>
 6    1  0.1817112E-005  0.1330207E+04  0.7818608E-02  0.9005948E-01
          2   -1    0    0  501    0  0.00000000000E+00  0.00000000000E+00  0.96398931600E+03  0.96398931600E+03  0.00000000000E+00 0. -1.
         -2   -1    0    0    0  501 -0.00000000000E+00 -0.00000000000E+00 -0.45888722460E+03  0.45888722460E+03  0.00000000000E+00 0.  1.
         23    2    1    2    0    0  0.23231423696E+03 -0.36115093717E+03  0.79267633421E+03  0.90606047155E+03  0.90608516018E+02 0.  0.
         11    1    3    3    0    0  0.19361626200E+03 -0.32265776062E+03  0.74013738942E+03  0.83030033278E+03  0.00000000000E+00 0. -1.
        -11    1    3    3    0    0  0.38697974959E+02 -0.38493176543E+02  0.52538944797E+02  0.75760138772E+02  0.00000000000E+00 0.  1.
         22    1    1    2    0    0 -0.23231423696E+03  0.36115093717E+03 -0.28757424281E+03  0.51681606906E+03  0.00000000000E+00 0.  1.
<mgrwt>
<rscale>  0 0.13302066E+04</rscale>
<asrwt>0</asrwt>
<pdfrwt beam="1">  1        2 0.14830605E+00 0.13302066E+04</pdfrwt>
<pdfrwt beam="2">  1       -2 0.70598035E-01 0.13302066E+04</pdfrwt>
<totfact> 0.47453299E+01</totfact>
</mgrwt>
</event>
<event>
 6    1  0.1817112E-005  0.1463878E+04  0.7818608E-02  0.8908836E-01
         -1   -1    0    0    0  501 -0.00000000000E+00  0.00000000000E+00  0.23321176677E+03  0.23321176677E+03  0.00000000000E+00 0.  1.
          1   -1    0    0  501    0  0.00000000000E+00 -0.00000000000E+00 -0.22972020539E+04  0.22972020539E+04  0.00000000000E+00 0. -1.
         23    2    1    2    0    0  0.74066644275E+02 -0.70112168691E+03 -0.13572392022E+04  0.15321380152E+04  0.91055796603E+02 0.  0.
         11    1    3    3    0    0  0.71041585223E+02 -0.38650277544E+03 -0.68014193416E+03  0.78550897694E+03  0.00000000000E+00 0.  1.
        -11    1    3    3    0    0  0.30250590513E+01 -0.31461891147E+03 -0.67709726805E+03  0.74662903830E+03  0.00000000000E+00 0. -1.
         22    1    1    2    0    0 -0.74066644275E+02  0.70112168691E+03 -0.70675108489E+03  0.99827580540E+03  0.00000000000E+00 0.  1.
<mgrwt>
<rscale>  0 0.14638778E+04</rscale>
<asrwt>0</asrwt>
<pdfrwt beam="1">  1        1 0.35341569E+00 0.14638778E+04</pdfrwt>
<pdfrwt beam="2">  1       -1 0.35878734E-01 0.14638778E+04</pdfrwt>
<totfact> 0.13484444E+01</totfact>
</mgrwt>
</event>
<event>
 6    1  0.1817112E-005  0.3377962E+04  0.7818608E-02  0.8143336E-01
         -2   -1    0    0    0  501 -0.00000000000E+00  0.00000000000E+00  0.81735588412E+03  0.81735588412E+03  0.00000000000E+00 0.  1.
          2   -1    0    0  501    0  0.00000000000E+00 -0.00000000000E+00 -0.34901039975E+04  0.34901039975E+04  0.00000000000E+00 0. -1.
         23    2    1    2    0    0  0.13685384644E+04  0.50724204584E+03 -0.24181765043E+04  0.28259070727E+04  0.89337313260E+02 0.  0.
         13    1    3    3    0    0  0.34980392801E+03  0.16111286168E+03 -0.58799616323E+03  0.70289375458E+03  0.00000000000E+00 0.  1.
        -13    1    3    3    0    0  0.10187345364E+04  0.34612918416E+03 -0.18301803411E+04  0.21230133181E+04  0.00000000000E+00 0. -1.
         22    1    1    2    0    0 -0.13685384644E+04 -0.50724204584E+03 -0.25457160902E+03  0.14815528090E+04  0.00000000000E+00 0.  1.
<mgrwt>
<rscale>  0 0.33779621E+04</rscale>
<asrwt>0</asrwt>
<pdfrwt beam="1">  1        2 0.53693908E+00 0.33779621E+04</pdfrwt>
<pdfrwt beam="2">  1       -2 0.12574706E+00 0.33779621E+04</pdfrwt>
<totfact> 0.32334192E-01</totfact>
</mgrwt>
</event>
<event>
 6    1  0.1817112E-005  0.2202071E+04  0.7818608E-02  0.8517567E-01
          2   -1    0    0  501    0  0.00000000000E+00  0.00000000000E+00  0.99044082742E+03  0.99044082742E+03  0.00000000000E+00 0. -1.
         -2   -1    0    0    0  501 -0.00000000000E+00 -0.00000000000E+00 -0.12239793525E+04  0.12239793525E+04  0.00000000000E+00 0.  1.
         23    2    1    2    0    0  0.41415675712E+03 -0.79560739075E+03  0.52186378076E+03  0.10417524591E+04  0.91593890344E+02 0.  0.
         11    1    3    3    0    0  0.36727100821E+03 -0.64730306560E+03  0.45612607821E+03  0.87289188989E+03  0.00000000000E+00 0. -1.
        -11    1    3    3    0    0  0.46885748917E+02 -0.14830432515E+03  0.65737702555E+02  0.16886056924E+03  0.00000000000E+00 0.  1.
         22    1    1    2    0    0 -0.41415675712E+03  0.79560739075E+03 -0.75540230584E+03  0.11726677208E+04  0.00000000000E+00 0.  1.
<mgrwt>
<rscale>  0 0.22020710E+04</rscale>
<asrwt>0</asrwt>
<pdfrwt beam="1">  1        2 0.15237551E+00 0.22020710E+04</pdfrwt>
<pdfrwt beam="2">  1       -2 0.18830451E+00 0.22020710E+04</pdfrwt>
<totfact> 0.37145483E+00</totfact>
</mgrwt>
</event>
<event>
 6    1  0.1817112E-005  0.3581298E+04  0.7818608E-02  0.8094789E-01
         -2   -1    0    0    0  501 -0.00000000000E+00  0.00000000000E+00  0.13581835187E+04  0.13581835187E+04  0.00000000000E+00 0.  1.
          2   -1    0    0  501    0  0.00000000000E+00 -0.00000000000E+00 -0.23608177336E+04  0.23608177336E+04  0.00000000000E+00 0. -1.
         23    2    1    2    0    0  0.35546475299E+03 -0.16879633393E+04 -0.99672227901E+03  0.19940054910E+04  0.83828224434E+02 0.  0.
         11    1    3    3    0    0  0.18463867112E+03 -0.10703156454E+04 -0.63494652341E+03  0.12581033770E+04  0.00000000000E+00 0.  1.
        -11    1    3    3    0    0  0.17082608187E+03 -0.61764769395E+03 -0.36177575560E+03  0.73590211403E+03  0.00000000000E+00 0. -1.
         22    1    1    2    0    0 -0.35546475299E+03  0.16879633393E+04 -0.59119359372E+01  0.17249957613E+04  0.00000000000E+00 0.  1.
<mgrwt>
<rscale>  0 0.35812979E+04</rscale>
<asrwt>0</asrwt>
<pdfrwt beam="1">  1        2 0.36320273E+00 0.35812979E+04</pdfrwt>
<pdfrwt beam="2">  1       -2 0.20895131E+00 0.35812979E+04</pdfrwt>
<totfact> 0.39741439E-01</totfact>
</mgrwt>
</event>
<event>
 6    1  0.1817112E-005  0.4369410E+04  0.7818608E-02  0.7933907E-01
          2   -1    0    0  501    0  0.00000000000E+00  0.00000000000E+00  0.25057179788E+04  0.25057179788E+04  0.00000000000E+00 0.  1.
         -2   -1    0    0    0  501 -0.00000000000E+00 -0.00000000000E+00 -0.19048176330E+04  0.19048176330E+04  0.00000000000E+00 0. -1.
         23    2    1    2    0    0  0.10498103703E+04  0.13637219237E+04  0.16575582399E+04  0.23910393371E+04  0.87923228528E+02 0.  0.
         13    1    3    3    0    0  0.57810543329E+03  0.81256477074E+03  0.92927901694E+03  0.13630946005E+04  0.00000000000E+00 0.  1.
        -13    1    3    3    0    0  0.47170493698E+03  0.55115715296E+03  0.72827922295E+03  0.10279447365E+04  0.00000000000E+00 0. -1.
         22    1    1    2    0    0 -0.10498103703E+04 -0.13637219237E+04 -0.10566578941E+04  0.20194962748E+04  0.00000000000E+00 0. -1.
<mgrwt>
<rscale>  0 0.43694099E+04</rscale>
<asrwt>0</asrwt>
<pdfrwt beam="1">  1        2 0.38549507E+00 0.43694099E+04</pdfrwt>
<pdfrwt beam="2">  1       -2 0.29304887E+00 0.43694099E+04</pdfrwt>
<totfact> 0.92727275E-02</totfact>
</mgrwt>
</event>
<event>
 6    1  0.1817112E-005  0.1338963E+04  0.7818608E-02  0.8999226E-01
         -2   -1    0    0    0  501 -0.00000000000E+00  0.00000000000E+00  0.41414928300E+03  0.41414928300E+03  0.00000000000E+00 0.  1.
          2   -1    0    0  501    0  0.00000000000E+00 -0.00000000000E+00 -0.10822309308E+04  0.10822309308E+04  0.00000000000E+00 0. -1.
         23    2    1    2    0    0  0.17373560854E+03  0.22483570145E+03  0.33801040121E+03  0.45093467941E+03  0.91410609085E+02 0.  0.
         13    1    3    3    0    0  0.75085321501E+02  0.16132146590E+03  0.23526315712E+03  0.29497656511E+03  0.00000000000E+00 0.  1.
        -13    1    3    3    0    0  0.98650287036E+02  0.63514235546E+02  0.10274724408E+03  0.15595811430E+03  0.00000000000E+00 0. -1.
         22    1    1    2    0    0 -0.17373560854E+03 -0.22483570145E+03 -0.10060920490E+04  0.10454455344E+04  0.00000000000E+00 0. -1.
<mgrwt>
<rscale>  0 0.13389625E+04</rscale>
<asrwt>0</asrwt>
<pdfrwt beam="1">  1        2 0.16649706E+00 0.13389625E+04</pdfrwt>
<pdfrwt beam="2">  1       -2 0.63715276E-01 0.13389625E+04</pdfrwt>
<totfact> 0.49783439E+01</totfact>
</mgrwt>
</event>
<event>
 6    1  0.1817112E-005  0.1440519E+04  0.7818608E-02  0.8925000E-01
          2   -1    0    0  501    0  0.00000000000E+00  0.00000000000E+00  0.65830285009E+03  0.65830285009E+03  0.00000000000E+00 0. -1.
         -2   -1    0    0    0  501 -0.00000000000E+00 -0.00000000000E+00 -0.78804746106E+03  0.78804746106E+03  0.00000000000E+00 0.  1.
         23    2    1    2    0    0 -0.65844247569E+03  0.27084823238E+03 -0.15362749725E+03  0.73397705854E+03  0.90640254687E+02 0.  0.
         11    1    3    3    0    0 -0.27818526025E+03  0.15763060479E+03 -0.89885333893E+02  0.33213524329E+03  0.00000000000E+00 0. -1.
        -11    1    3    3    0    0 -0.38025721544E+03  0.11321762760E+03 -0.63742163361E+02  0.40184181525E+03  0.00000000000E+00 0.  1.
         22    1    1    2    0    0  0.65844247569E+03 -0.27084823238E+03  0.23882886287E+02  0.71237325261E+03  0.00000000000E+00 0.  1.
<mgrwt>
<rscale>  0 0.14405192E+04</rscale>
<asrwt>0</asrwt>
<pdfrwt beam="1">  1        2 0.10127736E+00 0.14405192E+04</pdfrwt>
<pdfrwt beam="2">  1       -2 0.12123807E+00 0.14405192E+04</pdfrwt>
<totfact> 0.22227409E+01</totfact>
</mgrwt>
</event>
<event>
 6    1  0.1817112E-005  0.3220537E+04  0.7818608E-02  0.8183414E-01
         -2   -1    0    0    0  501 -0.00000000000E+00  0.00000000000E+00  0.92739914700E+03  0.92739914700E+03  0.00000000000E+00 0.  1.
          2   -1    0    0  501    0  0.00000000000E+00 -0.00000000000E+00 -0.27959531391E+04  0.27959531391E+04  0.00000000000E+00 0. -1.
         23    2    1    2    0    0  0.10877118721E+04 -0.20461614862E+03 -0.22853951230E+04  0.25406682990E+04  0.83544310747E+02 0.  0.
         13    1    3    3    0    0  0.58838661511E+03 -0.12146166379E+03 -0.11476885638E+04  0.12954307330E+04  0.00000000000E+00 0.  1.
        -13    1    3    3    0    0  0.49932525704E+03 -0.83154484824E+02 -0.11377065593E+04  0.12452375660E+04  0.00000000000E+00 0. -1.
         22    1    1    2    0    0 -0.10877118721E+04  0.20461614862E+03  0.41684113091E+03  0.11826839872E+04  0.00000000000E+00 0.  1.
<mgrwt>
<rscale>  0 0.32205369E+04</rscale>
<asrwt>0</asrwt>
<pdfrwt beam="1">  1        2 0.43014663E+00 0.32205369E+04</pdfrwt>
<pdfrwt beam="2">  1       -2 0.14267679E+00 0.32205369E+04</pdfrwt>
<totfact> 0.66795925E-01</totfact>
</mgrwt>
</event>
<event>
 6    1  0.1817112E-005  0.1921040E+04  0.7818608E-02  0.8644454E-01
         -1   -1    0    0    0  501 -0.00000000000E+00  0.00000000000E+00  0.17937850686E+04  0.17937850686E+04  0.00000000000E+00 0.  1.
          1   -1    0    0  501    0  0.00000000000E+00 -0.00000000000E+00 -0.51433092629E+03  0.51433092629E+03  0.00000000000E+00 0. -1.
         23    2    1    2    0    0  0.10043461066E+03  0.59887362974E+03 -0.24988421726E+03  0.66263352660E+03  0.88906316537E+02 0.  0.
         13    1    3    3    0    0  0.16488497341E+02  0.26050374819E+02 -0.30930481478E+02  0.43671355111E+02  0.00000000000E+00 0. -1.
        -13    1    3    3    0    0  0.83946113322E+02  0.57282325492E+03 -0.21895373578E+03  0.61896217149E+03  0.00000000000E+00 0.  1.
         22    1    1    2    0    0 -0.10043461066E+03 -0.59887362974E+03  0.15293383596E+04  0.16454824683E+04  0.00000000000E+00 0.  1.
<mgrwt>
<rscale>  0 0.19210405E+04</rscale>
<asrwt>0</asrwt>
<pdfrwt beam="1">  1        1 0.79127836E-01 0.19210405E+04</pdfrwt>
<pdfrwt beam="2">  1       -1 0.27596693E+00 0.19210405E+04</pdfrwt>
<totfact> 0.18820192E+00</totfact>
</mgrwt>
</event>
<event>
 6    1  0.1817112E-005  0.1035404E+04  0.7818608E-02  0.9270545E-01
         -2   -1    0    0    0  501 -0.00000000000E+00  0.00000000000E+00  0.13792765560E+03  0.13792765560E+03  0.00000000000E+00 0.  1.
          2   -1    0    0  501    0  0.00000000000E+00 -0.00000000000E+00 -0.19431577737E+04  0.19431577737E+04  0.00000000000E+00 0. -1.
         23    2    1    2    0    0  0.14223335939E+03 -0.22824392816E+03 -0.17893260155E+04  0.18116813466E+04  0.90421748854E+02 0.  0.
         13    1    3    3    0    0  0.47888941997E+02 -0.86678397505E+02 -0.95948264756E+03  0.96457941422E+03  0.00000000000E+00 0. -1.
        -13    1    3    3    0    0  0.94344417395E+02 -0.14156553065E+03 -0.82984336795E+03  0.84710193241E+03  0.00000000000E+00 0.  1.
         22    1    1    2    0    0 -0.14223335939E+03  0.22824392816E+03 -0.15904102555E+02  0.26940408264E+03  0.00000000000E+00 0.  1.
<mgrwt>
<rscale>  0 0.10354037E+04</rscale>
<asrwt>0</asrwt>
<pdfrwt beam="1">  1        2 0.29894731E+00 0.10354037E+04</pdfrwt>
<pdfrwt beam="2">  1       -2 0.21219642E-01 0.10354037E+04</pdfrwt>
<totfact> 0.13819236E+02</totfact>
</mgrwt>
</event>
<event>
 6    1  0.1817112E-005  0.1038461E+04  0.7818608E-02  0.9267339E-01
         -1   -1    0    0    0  501 -0.00000000000E+00  0.00000000000E+00  0.56240919772E+03  0.56240919772E+03  0.00000000000E+00 0.  1.
          1   -1    0    0  501    0  0.00000000000E+00 -0.00000000000E+00 -0.47936726174E+03  0.47936726174E+03  0.00000000000E+00 0. -1.
         23    2    1    2    0    0 -0.52694205437E+01  0.40272202957E+03  0.36506087366E+03  0.55009823022E+03  0.84414581210E+02 0.  0.
         11    1    3    3    0    0  0.11224486469E+01  0.28280989807E+03  0.30461810078E+03  0.41566198486E+03  0.00000000000E+00 0. -1.
        -11    1    3    3    0    0 -0.63918691907E+01  0.11991213150E+03  0.60442772885E+02  0.13443624536E+03  0.00000000000E+00 0.  1.
         22    1    1    2    0    0  0.52694205437E+01 -0.40272202957E+03 -0.28201893768E+03  0.49167822924E+03  0.00000000000E+00 0. -1.
<mgrwt>
<rscale>  0 0.10384615E+04</rscale>
<asrwt>0</asrwt>
<pdfrwt beam="1">  1        1 0.73748809E-01 0.10384615E+04</pdfrwt>
<pdfrwt beam="2">  1       -1 0.86524492E-01 0.10384615E+04</pdfrwt>
<totfact> 0.61926839E+01</totfact>
</mgrwt>
</event>
<event>
 6    1  0.1817112E-005  0.1480100E+04  0.7818608E-02  0.8897795E-01
         -2   -1    0    0    0  501 -0.00000000000E+00  0.00000000000E+00  0.11120491107E+04  0.11120491107E+04  0.00000000000E+00 0.  1.
          2   -1    0    0  501    0  0.00000000000E+00 -0.00000000000E+00 -0.49249087766E+03  0.49249087766E+03  0.00000000000E+00 0. -1.
         23    2    1    2    0    0  0.42692211630E+03  0.53450007632E+02 -0.33811027234E+03  0.55465982239E+03  0.90606653262E+02 0.  0.
         11    1    3    3    0    0  0.24940736682E+03  0.75930076274E+02 -0.20460108176E+03  0.33140762479E+03  0.00000000000E+00 0.  1.
        -11    1    3    3    0    0  0.17751474948E+03 -0.22480068642E+02 -0.13350919057E+03  0.22325219760E+03  0.00000000000E+00 0. -1.
         22    1    1    2    0    0 -0.42692211630E+03 -0.53450007632E+02  0.95766850536E+03  0.10498801660E+04  0.00000000000E+00 0.  1.
<mgrwt>
<rscale>  0 0.14801001E+04</rscale>
<asrwt>0</asrwt>
<pdfrwt beam="1">  1        2 0.75767828E-01 0.14801001E+04</pdfrwt>
<pdfrwt beam="2">  1       -2 0.17108448E+00 0.14801001E+04</pdfrwt>
<totfact> 0.12684241E+01</totfact>
</mgrwt>
</event>
<event>
 6    1  0.1817112E-005  0.2643885E+04  0.7818608E-02  0.8353446E-01
         -2   -1    0    0    0  501 -0.00000000000E+00  0.00000000000E+00  0.54068269023E+03  0.54068269023E+03  0.00000000000E+00 0.  1.
          2   -1    0    0  501    0  0.00000000000E+00 -0.00000000000E+00 -0.32320833586E+04  0.32320833586E+04  0.00000000000E+00 0. -1.
         23    2    1    2    0    0 -0.25667426457E+02 -0.77310106608E+03 -0.28742415512E+04  0.29779233829E+04  0.91755681310E+02 0.  0.
         11    1    3    3    0    0 -0.60379277743E+02 -0.49796368122E+03 -0.18613282944E+04  0.19277335150E+04  0.00000000000E+00 0.  1.
        -11    1    3    3    0    0  0.34711851285E+02 -0.27513738486E+03 -0.10129132567E+04  0.10501898680E+04  0.00000000000E+00 0. -1.
         22    1    1    2    0    0  0.25667426457E+02  0.77310106608E+03  0.18284088277E+03  0.79484266592E+03  0.00000000000E+00 0. -1.
<mgrwt>
<rscale>  0 0.26438847E+04</rscale>
<asrwt>0</asrwt>
<pdfrwt beam="1">  1        2 0.49724359E+00 0.26438847E+04</pdfrwt>
<pdfrwt beam="2">  1       -2 0.83181954E-01 0.26438847E+04</pdfrwt>
<totfact> 0.13781940E+00</totfact>
</mgrwt>
</event>
<event>
 6    1  0.1817112E-005  0.3470977E+04  0.7818608E-02  0.8120703E-01
          2   -1    0    0  501    0  0.00000000000E+00  0.00000000000E+00  0.48165848434E+04  0.48165848434E+04  0.00000000000E+00 0. -1.
         -2   -1    0    0    0  501 -0.00000000000E+00 -0.00000000000E+00 -0.62532273620E+03  0.62532273620E+03  0.00000000000E+00 0.  1.
         23    2    1    2    0    0 -0.12061698328E+04  0.12349564504E+04  0.23583782301E+04  0.29240858212E+04  0.91470835432E+02 0.  0.
         13    1    3    3    0    0 -0.16314558488E+03  0.20834198023E+03  0.38843461997E+03  0.47000459209E+03  0.00000000000E+00 0. -1.
        -13    1    3    3    0    0 -0.10430242479E+04  0.10266144702E+04  0.19699436101E+04  0.24540812291E+04  0.00000000000E+00 0.  1.
         22    1    1    2    0    0  0.12061698328E+04 -0.12349564504E+04  0.18328838772E+04  0.25178217584E+04  0.00000000000E+00 0.  1.
<mgrwt>
<rscale>  0 0.34709768E+04</rscale>
<asrwt>0</asrwt>
<pdfrwt beam="1">  1        2 0.74101303E+00 0.34709768E+04</pdfrwt>
<pdfrwt beam="2">  1       -2 0.96203501E-01 0.34709768E+04</pdfrwt>
<totfact> 0.42223757E-02</totfact>
</mgrwt>
</event>
<event>
 6    1  0.1817112E-005  0.2892239E+04  0.7818608E-02  0.8275190E-01
         -2   -1    0    0    0  501 -0.00000000000E+00  0.00000000000E+00  0.12628634698E+04  0.12628634698E+04  0.00000000000E+00 0.  1.
          2   -1    0    0  501    0  0.00000000000E+00 -0.00000000000E+00 -0.16559675984E+04  0.16559675984E+04  0.00000000000E+00 0. -1.
         23    2    1    2    0    0 -0.76112341295E+03 -0.10069550020E+04  0.51238409028E+03  0.13653909694E+04  0.92129353064E+02 0.  0.
         13    1    3    3    0    0 -0.23039697281E+03 -0.37746095522E+03  0.18235494313E+03  0.47834387534E+03  0.00000000000E+00 0. -1.
        -13    1    3    3    0    0 -0.53072644014E+03 -0.62949404676E+03  0.33002914715E+03  0.88704709409E+03  0.00000000000E+00 0.  1.
         22    1    1    2    0    0  0.76112341295E+03  0.10069550020E+04 -0.90548821890E+03  0.15534400987E+04  0.00000000000E+00 0. -1.
<mgrwt>
<rscale>  0 0.28922386E+04</rscale>
<asrwt>0</asrwt>
<pdfrwt beam="1">  1        2 0.25476424E+00 0.28922386E+04</pdfrwt>
<pdfrwt beam="2">  1       -2 0.19428669E+00 0.28922386E+04</pdfrwt>
<totfact> 0.13004679E+00</totfact>
</mgrwt>
</event>
<event>
 6    1  0.1817112E-005  0.1506461E+04  0.7818608E-02  0.8880168E-01
          2   -1    0    0  501    0  0.00000000000E+00  0.00000000000E+00  0.28789543332E+04  0.28789543332E+04  0.00000000000E+00 0. -1.
         -2   -1    0    0    0  501 -0.00000000000E+00 -0.00000000000E+00 -0.19707025540E+03  0.19707025540E+03  0.00000000000E+00 0.  1.
         23    2    1    2    0    0 -0.39853124263E+03 -0.72354823926E+02  0.26359030856E+04  0.26683769177E+04  0.90487161619E+02 0.  0.
         13    1    3    3    0    0 -0.24194919904E+03  0.85668757906E+00  0.14936924003E+04  0.15131613052E+04  0.00000000000E+00 0.  1.
        -13    1    3    3    0    0 -0.15658204359E+03 -0.73211511505E+02  0.11422106853E+04  0.11552156126E+04  0.00000000000E+00 0. -1.
         22    1    1    2    0    0  0.39853124263E+03  0.72354823926E+02  0.45980992148E+02  0.40764767083E+03  0.00000000000E+00 0.  1.
<mgrwt>
<rscale>  0 0.15064611E+04</rscale>
<asrwt>0</asrwt>
<pdfrwt beam="1">  1        2 0.44291602E+00 0.15064611E+04</pdfrwt>
<pdfrwt beam="2">  1       -2 0.30318503E-01 0.15064611E+04</pdfrwt>
<totfact> 0.20216682E+01</totfact>
</mgrwt>
</event>
<event>
 6    1  0.1817112E-005  0.1673838E+04  0.7818608E-02  0.8776428E-01
         -2   -1    0    0    0  501 -0.00000000000E+00  0.00000000000E+00  0.14420967512E+04  0.14420967512E+04  0.00000000000E+00 0.  1.
          2   -1    0    0  501    0  0.00000000000E+00 -0.00000000000E+00 -0.48570505558E+03  0.48570505558E+03  0.00000000000E+00 0. -1.
         23    2    1    2    0    0  0.37104793353E+03  0.93671389513E+02  0.13336754996E+04  0.13904062663E+04  0.89935247902E+02 0.  0.
         13    1    3    3    0    0  0.18026547112E+03  0.74822287001E+02  0.54938411556E+03  0.58302394560E+03  0.00000000000E+00 0. -1.
        -13    1    3    3    0    0  0.19078246241E+03  0.18849102511E+02  0.78429138409E+03  0.80738232070E+03  0.00000000000E+00 0.  1.
         22    1    1    2    0    0 -0.37104793353E+03 -0.93671389513E+02 -0.37728380400E+03  0.53739554050E+03  0.00000000000E+00 0. -1.
<mgrwt>
<rscale>  0 0.16738383E+04</rscale>
<asrwt>0</asrwt>
<pdfrwt beam="1">  1        2 0.74723855E-01 0.16738383E+04</pdfrwt>
<pdfrwt beam="2">  1       -2 0.22186104E+00 0.16738383E+04</pdfrwt>
<totfact> 0.58376185E+00</totfact>
</mgrwt>
</event>
<event>
 6    1  0.1817112E-005  0.1198342E+04  0.7818608E-02  0.9114309E-01
         -2   -1    0    0    0  501 -0.00000000000E+00  0.00000000000E+00  0.17355873970E+03  0.17355873970E+03  0.00000000000E+00 0.  1.
          2   -1    0    0  501    0  0.00000000000E+00 -0.00000000000E+00 -0.20684991041E+04  0.20684991041E+04  0.00000000000E+00 0. -1.
         23    2    1    2    0    0 -0.17255587730E+03  0.53408892938E+03 -0.58004236336E+03  0.81237841525E+03  0.92103371262E+02 0.  0.
         11    1    3    3    0    0 -0.14384548851E+03  0.35807090484E+03 -0.44274461634E+03  0.58730664287E+03  0.00000000000E+00 0. -1.
        -11    1    3    3    0    0 -0.28710388785E+02  0.17601802454E+03 -0.13729774702E+03  0.22507177238E+03  0.00000000000E+00 0.  1.
         22    1    1    2    0    0  0.17255587730E+03 -0.53408892938E+03 -0.13148980010E+04  0.14296794285E+04  0.00000000000E+00 0. -1.
<mgrwt>
<rscale>  0 0.11983424E+04</rscale>
<asrwt>0</asrwt>
<pdfrwt beam="1">  1        2 0.31823062E+00 0.11983424E+04</pdfrwt>
<pdfrwt beam="2">  1       -2 0.26701345E-01 0.11983424E+04</pdfrwt>
<totfact> 0.76965809E+01</totfact>
</mgrwt>
</event>
<event>
 6    1  0.1817112E-005  0.3012333E+04  0.7818608E-02  0.8240218E-01
         -2   -1    0    0    0  501 -0.00000000000E+00  0.00000000000E+00  0.90271314325E+03  0.90271314325E+03  0.00000000000E+00 0.  1.
          2   -1    0    0  501    0  0.00000000000E+00 -0.00000000000E+00 -0.25130219854E+04  0.25130219854E+04  0.00000000000E+00 0. -1.
         23    2    1    2    0    0  0.34408783158E+03  0.12398972163E+04 -0.16905665949E+04  0.21264784243E+04  0.90296923036E+02 0.  0.
         13    1    3    3    0    0  0.10286024167E+03  0.45788890840E+03 -0.67738986002E+03  0.82407493846E+03  0.00000000000E+00 0.  1.
        -13    1    3    3    0    0  0.24122758991E+03  0.78200830787E+03 -0.10131767349E+04  0.13024034858E+04  0.00000000000E+00 0. -1.
         22    1    1    2    0    0 -0.34408783158E+03 -0.12398972163E+04  0.80257752822E+02  0.12892567043E+04  0.00000000000E+00 0.  1.
<mgrwt>
<rscale>  0 0.30123333E+04</rscale>
<asrwt>0</asrwt>
<pdfrwt beam="1">  1        2 0.38661877E+00 0.30123333E+04</pdfrwt>
<pdfrwt beam="2">  1       -2 0.13887895E+00 0.30123333E+04</pdfrwt>
<totfact> 0.10726699E+00</totfact>
</mgrwt>
</event>
<event>
 6    1  0.1817112E-005  0.2734639E+04  0.7818608E-02  0.8323853E-01
          2   -1    0    0  501    0  0.00000000000E+00  0.00000000000E+00  0.85864017018E+03  0.85864017018E+03  0.00000000000E+00 0. -1.
         -2   -1    0    0    0  501 -0.00000000000E+00 -0.00000000000E+00 -0.21773530280E+04  0.21773530280E+04  0.00000000000E+00 0.  1.
         23    2    1    2    0    0  0.61647366246E+03  0.65952590961E+03 -0.17979436280E+04  0.20138991061E+04  0.90410830183E+02 0.  0.
         13    1    3    3    0    0  0.31762321670E+03  0.34583929751E+03 -0.10346104515E+04  0.11361813736E+04  0.00000000000E+00 0.  1.
        -13    1    3    3    0    0  0.29885044576E+03  0.31368661209E+03 -0.76333317654E+03  0.87771773250E+03  0.00000000000E+00 0. -1.
         22    1    1    2    0    0 -0.61647366246E+03 -0.65952590961E+03  0.47923077018E+03  0.10220940921E+04  0.00000000000E+00 0. -1.
<mgrwt>
<rscale>  0 0.27346391E+04</rscale>
<asrwt>0</asrwt>
<pdfrwt beam="1">  1        2 0.13209849E+00 0.27346391E+04</pdfrwt>
<pdfrwt beam="2">  1       -2 0.33497739E+00 0.27346391E+04</pdfrwt>
<totfact> 0.52930784E-01</totfact>
</mgrwt>
</event>
<event>
 6    1  0.1817112E-005  0.7981164E+03  0.7818608E-02  0.9562748E-01
         -2   -1    0    0    0  501 -0.00000000000E+00  0.00000000000E+00  0.18883194848E+03  0.18883194848E+03  0.00000000000E+00 0. -1.
          2   -1    0    0  501    0  0.00000000000E+00 -0.00000000000E+00 -0.84332892609E+03  0.84332892609E+03  0.00000000000E+00 0.  1.
         23    2    1    2    0    0 -0.10791664963E+03  0.37774074226E+03 -0.29062136478E+03  0.49668021829E+03  0.88861633710E+02 0.  0.
         11    1    3    3    0    0 -0.21440277531E+02  0.84732728365E+02 -0.22613183969E+02  0.90281099052E+02  0.00000000000E+00 0. -1.
        -11    1    3    3    0    0 -0.86476372100E+02  0.29300801390E+03 -0.26800818081E+03  0.40639911924E+03  0.00000000000E+00 0.  1.
         22    1    1    2    0    0  0.10791664963E+03 -0.37774074226E+03 -0.36387561284E+03  0.53548065628E+03  0.00000000000E+00 0. -1.
<mgrwt>
<rscale>  0 0.79811639E+03</rscale>
<asrwt>0</asrwt>
<pdfrwt beam="1">  1        2 0.12974292E+00 0.79811639E+03</pdfrwt>
<pdfrwt beam="2">  1       -2 0.29051068E-01 0.79811639E+03</pdfrwt>
<totfact> 0.35075796E+02</totfact>
</mgrwt>
</event>
<event>
 6    1  0.1817112E-005  0.3191063E+04  0.7818608E-02  0.8191181E-01
          2   -1    0    0  501    0  0.00000000000E+00  0.00000000000E+00  0.24574568745E+04  0.24574568745E+04  0.00000000000E+00 0. -1.
         -2   -1    0    0    0  501 -0.00000000000E+00 -0.00000000000E+00 -0.10359165371E+04  0.10359165371E+04  0.00000000000E+00 0.  1.
         23    2    1    2    0    0  0.10174143109E+04  0.47146376017E+03 -0.53010001850E+03  0.12425268962E+04  0.73872194408E+02 0.  0.
         11    1    3    3    0    0  0.58184342739E+03  0.30216293113E+03 -0.28586752835E+03  0.71523734153E+03  0.00000000000E+00 0. -1.
        -11    1    3    3    0    0  0.43557088351E+03  0.16930082904E+03 -0.24423249015E+03  0.52728955472E+03  0.00000000000E+00 0.  1.
         22    1    1    2    0    0 -0.10174143109E+04 -0.47146376017E+03  0.19516403558E+04  0.22508465153E+04  0.00000000000E+00 0. -1.
<mgrwt>
<rscale>  0 0.31910627E+04</rscale>
<asrwt>0</asrwt>
<pdfrwt beam="1">  1        2 0.37807029E+00 0.31910627E+04</pdfrwt>
<pdfrwt beam="2">  1       -2 0.15937178E+00 0.31910627E+04</pdfrwt>
<totfact> 0.79031081E-01</totfact>
</mgrwt>
</event>
<event>
 6    1  0.1817112E-005  0.3699113E+04  0.7818608E-02  0.8068158E-01
          2   -1    0    0  501    0  0.00000000000E+00  0.00000000000E+00  0.21291072924E+04  0.21291072924E+04  0.00000000000E+00 0.  1.
         -2   -1    0    0    0  501 -0.00000000000E+00 -0.00000000000E+00 -0.16067106072E+04  0.16067106072E+04  0.00000000000E+00 0. -1.
         23    2    1    2    0    0  0.52062232052E+03 -0.12701870196E+04  0.15115079154E+04  0.20438475421E+04  0.90741014157E+02 0.  0.
         11    1    3    3    0    0  0.40704740877E+03 -0.88439357164E+03  0.10673883649E+04  0.14446997972E+04  0.00000000000E+00 0. -1.
        -11    1    3    3    0    0  0.11357491174E+03 -0.38579344792E+03  0.44411955045E+03  0.59914774483E+03  0.00000000000E+00 0.  1.
         22    1    1    2    0    0 -0.52062232052E+03  0.12701870196E+04 -0.98911123021E+03  0.16919703576E+04  0.00000000000E+00 0. -1.
<mgrwt>
<rscale>  0 0.36991130E+04</rscale>
<asrwt>0</asrwt>
<pdfrwt beam="1">  1        2 0.32755497E+00 0.36991130E+04</pdfrwt>
<pdfrwt beam="2">  1       -2 0.24718625E+00 0.36991130E+04</pdfrwt>
<totfact> 0.30602497E-01</totfact>
</mgrwt>
</event>
<event>
 6    1  0.1817112E-005  0.1965006E+04  0.7818608E-02  0.8623159E-01
         -2   -1    0    0    0  501 -0.00000000000E+00  0.00000000000E+00  0.65438137652E+03  0.65438137652E+03  0.00000000000E+00 0.  1.
          2   -1    0    0  501    0  0.00000000000E+00 -0.00000000000E+00 -0.14751516272E+04  0.14751516272E+04  0.00000000000E+00 0. -1.
         23    2    1    2    0    0 -0.57786346227E+03 -0.74242569685E+03 -0.11220750776E+03  0.95174556236E+03  0.90038848860E+02 0.  0.
         13    1    3    3    0    0 -0.45643350274E+03 -0.56879797189E+03 -0.12302352330E+03  0.73959276804E+03  0.00000000000E+00 0. -1.
        -13    1    3    3    0    0 -0.12142995953E+03 -0.17362772496E+03  0.10816015538E+02  0.21215279432E+03  0.00000000000E+00 0.  1.
         22    1    1    2    0    0  0.57786346227E+03  0.74242569685E+03 -0.70856274289E+03  0.11777874413E+04  0.00000000000E+00 0. -1.
<mgrwt>
<rscale>  0 0.19650056E+04</rscale>
<asrwt>0</asrwt>
<pdfrwt beam="1">  1        2 0.22694640E+00 0.19650056E+04</pdfrwt>
<pdfrwt beam="2">  1       -2 0.10067406E+00 0.19650056E+04</pdfrwt>
<totfact> 0.99318012E+00</totfact>
</mgrwt>
</event>
<event>
 6    1  0.1817112E-005  0.3678291E+04  0.7818608E-02  0.8072790E-01
         -2   -1    0    0    0  501 -0.00000000000E+00  0.00000000000E+00  0.11454636206E+04  0.11454636206E+04  0.00000000000E+00 0.  1.
          2   -1    0    0  501    0  0.00000000000E+00 -0.00000000000E+00 -0.29529145617E+04  0.29529145617E+04  0.00000000000E+00 0. -1.
         23    2    1    2    0    0 -0.47998179129E+03 -0.17454231233E+04 -0.54884480293E+03  0.18936165601E+04  0.87570882528E+02 0.  0.
         11    1    3    3    0    0 -0.32252736831E+03 -0.13133139401E+04 -0.41791405082E+03  0.14154397064E+04  0.00000000000E+00 0. -1.
        -11    1    3    3    0    0 -0.15745442298E+03 -0.43210918325E+03 -0.13093075211E+03  0.47817685370E+03  0.00000000000E+00 0.  1.
         22    1    1    2    0    0  0.47998179129E+03  0.17454231233E+04 -0.12586061382E+04  0.22047616222E+04  0.00000000000E+00 0. -1.
<mgrwt>
<rscale>  0 0.36782910E+04</rscale>
<asrwt>0</asrwt>
<pdfrwt beam="1">  1        2 0.45429454E+00 0.36782910E+04</pdfrwt>
<pdfrwt beam="2">  1       -2 0.17622518E+00 0.36782910E+04</pdfrwt>
<totfact> 0.29047412E-01</totfact>
</mgrwt>
</event>
<event>
 6    1  0.1817112E-005  0.2454369E+04  0.7818608E-02  0.8419424E-01
         -2   -1    0    0    0  501 -0.00000000000E+00  0.00000000000E+00  0.20837760437E+04  0.20837760437E+04  0.00000000000E+00 0.  1.
          2   -1    0    0  501    0  0.00000000000E+00 -0.00000000000E+00 -0.72271791705E+03  0.72271791705E+03  0.00000000000E+00 0. -1.
         23    2    1    2    0    0  0.57731876258E+03  0.71162376864E+02  0.19148839465E+04  0.20033226986E+04  0.90334207333E+02 0.  0.
         13    1    3    3    0    0  0.20359479493E+03  0.56512739960E+02  0.59163280244E+03  0.62823077226E+03  0.00000000000E+00 0.  1.
        -13    1    3    3    0    0  0.37372396765E+03  0.14649636904E+02  0.13232511440E+04  0.13750919264E+04  0.00000000000E+00 0. -1.
         22    1    1    2    0    0 -0.57731876258E+03 -0.71162376864E+02 -0.55382581984E+03  0.80317126208E+03  0.00000000000E+00 0. -1.
<mgrwt>
<rscale>  0 0.24543694E+04</rscale>
<asrwt>0</asrwt>
<pdfrwt beam="1">  1        2 0.11118737E+00 0.24543694E+04</pdfrwt>
<pdfrwt beam="2">  1       -2 0.32058093E+00 0.24543694E+04</pdfrwt>
<totfact> 0.83661745E-01</totfact>
</mgrwt>
</event>
<event>
 6    1  0.1817112E-005  0.2515356E+04  0.7818608E-02  0.8397535E-01
         -1   -1    0    0    0  501 -0.00000000000E+00  0.00000000000E+00  0.65959400808E+03  0.65959400808E+03  0.00000000000E+00 0.  1.
          1   -1    0    0  501    0  0.00000000000E+00 -0.00000000000E+00 -0.23980729687E+04  0.23980729687E+04  0.00000000000E+00 0. -1.
         23    2    1    2    0    0  0.81882975797E+03 -0.35075944380E+03 -0.19467003347E+04  0.21428607128E+04  0.93249565593E+02 0.  0.
         13    1    3    3    0    0  0.76424918572E+03 -0.35110672009E+03 -0.18326739996E+04  0.20164440819E+04  0.00000000000E+00 0.  1.
        -13    1    3    3    0    0  0.54580572245E+02  0.34727629667E+00 -0.11402633510E+03  0.12641663088E+03  0.00000000000E+00 0. -1.
         22    1    1    2    0    0 -0.81882975797E+03  0.35075944380E+03  0.20822137408E+03  0.91480626395E+03  0.00000000000E+00 0.  1.
<mgrwt>
<rscale>  0 0.25153565E+04</rscale>
<asrwt>0</asrwt>
<pdfrwt beam="1">  1        1 0.36893429E+00 0.25153565E+04</pdfrwt>
<pdfrwt beam="2">  1       -1 0.10147600E+00 0.25153565E+04</pdfrwt>
<totfact> 0.13024785E+00</totfact>
</mgrwt>
</event>
<event>
 6    1  0.1817112E-005  0.1006861E+04  0.7818608E-02  0.9301051E-01
          2   -1    0    0  501    0  0.00000000000E+00  0.00000000000E+00  0.16268093718E+04  0.16268093718E+04  0.00000000000E+00 0. -1.
         -2   -1    0    0    0  501 -0.00000000000E+00 -0.00000000000E+00 -0.15579114191E+03  0.15579114191E+03  0.00000000000E+00 0.  1.
         23    2    1    2    0    0  0.36527970742E+03 -0.54675432544E+02  0.14636192709E+03  0.40741580317E+03  0.90261594225E+02 0.  0.
         13    1    3    3    0    0  0.25023440015E+03 -0.78366224171E+02  0.90963861150E+02  0.27754809339E+03  0.00000000000E+00 0. -1.
        -13    1    3    3    0    0  0.11504530727E+03  0.23690791626E+02  0.55398065945E+02  0.12986770978E+03  0.00000000000E+00 0.  1.
         22    1    1    2    0    0 -0.36527970742E+03  0.54675432544E+02  0.13246563027E+04  0.13751847105E+04  0.00000000000E+00 0. -1.
<mgrwt>
<rscale>  0 0.10068614E+04</rscale>
<asrwt>0</asrwt>
<pdfrwt beam="1">  1        2 0.25027835E+00 0.10068614E+04</pdfrwt>
<pdfrwt beam="2">  1       -2 0.23967869E-01 0.10068614E+04</pdfrwt>
<totfact> 0.16646069E+02</totfact>
</mgrwt>
</event>
<event>
 6    1  0.1817112E-005  0.3244609E+04  0.7818608E-02  0.8177134E-01
         -2   -1    0    0    0  501 -0.00000000000E+00  0.00000000000E+00  0.15642982027E+04  0.15642982027E+04  0.00000000000E+00 0.  1.
          2   -1    0    0  501    0  0.00000000000E+00 -0.00000000000E+00 -0.16824619807E+04  0.16824619807E+04  0.00000000000E+00 0. -1.
         23    2    1    2    0    0  0.13560829209E+04 -0.69099304868E+03 -0.61723758824E+03  0.16450401861E+04  0.93502361958E+02 0.  0.
         11    1    3    3    0    0  0.93784069244E+03 -0.47506224997E+03 -0.37935028556E+03  0.11176475048E+04  0.00000000000E+00 0.  1.
        -11    1    3    3    0    0  0.41824222849E+03 -0.21593079872E+03 -0.23788730268E+03  0.52739268131E+03  0.00000000000E+00 0. -1.
         22    1    1    2    0    0 -0.13560829209E+04  0.69099304868E+03  0.49907381025E+03  0.16017199973E+04  0.00000000000E+00 0.  1.
<mgrwt>
<rscale>  0 0.32446092E+04</rscale>
<asrwt>0</asrwt>
<pdfrwt beam="1">  1        2 0.25884031E+00 0.32446092E+04</pdfrwt>
<pdfrwt beam="2">  1       -2 0.24066126E+00 0.32446092E+04</pdfrwt>
<totfact> 0.61752340E-01</totfact>
</mgrwt>
</event>
<event>
 6    1  0.1817112E-005  0.1654393E+04  0.7818608E-02  0.8787812E-01
         -2   -1    0    0    0  501 -0.00000000000E+00  0.00000000000E+00  0.27050043285E+03  0.27050043285E+03  0.00000000000E+00 0.  1.
          2   -1    0    0  501    0  0.00000000000E+00 -0.00000000000E+00 -0.25295856930E+04  0.25295856930E+04  0.00000000000E+00 0. -1.
         23    2    1    2    0    0 -0.22732815724E+03  0.32092150961E+03 -0.23594965285E+04  0.23941906599E+04  0.10127359786E+03 0.  0.
         11    1    3    3    0    0 -0.23319188890E+03  0.29738442041E+03 -0.21153306199E+04  0.21488228363E+04  0.00000000000E+00 0. -1.
        -11    1    3    3    0    0  0.58637316605E+01  0.23537089210E+02 -0.24416590866E+03  0.24536782363E+03  0.00000000000E+00 0.  1.
         22    1    1    2    0    0  0.22732815724E+03 -0.32092150961E+03  0.10041126840E+03  0.40589546589E+03  0.00000000000E+00 0.  1.
<mgrwt>
<rscale>  0 0.16543930E+04</rscale>
<asrwt>0</asrwt>
<pdfrwt beam="1">  1        2 0.38916703E+00 0.16543930E+04</pdfrwt>
<pdfrwt beam="2">  1       -2 0.41615451E-01 0.16543930E+04</pdfrwt>
<totfact> 0.17516273E+01</totfact>
</mgrwt>
</event>
<event>
 6    1  0.1817112E-005  0.3246583E+04  0.7818608E-02  0.8176622E-01
         -2   -1    0    0    0  501 -0.00000000000E+00  0.00000000000E+00  0.26262972279E+04  0.26262972279E+04  0.00000000000E+00 0.  1.
          2   -1    0    0  501    0  0.00000000000E+00 -0.00000000000E+00 -0.10033426772E+04  0.10033426772E+04  0.00000000000E+00 0. -1.
         23    2    1    2    0    0  0.13715925738E+04 -0.49739313764E+03  0.19733764153E+02  0.14619261296E+04  0.90401687626E+02 0.  0.
         11    1    3    3    0    0  0.92339972840E+03 -0.30139167384E+03 -0.15700179252E+02  0.97146821621E+03  0.00000000000E+00 0. -1.
        -11    1    3    3    0    0  0.44819284541E+03 -0.19600146380E+03  0.35433943405E+02  0.49045791341E+03  0.00000000000E+00 0.  1.
         22    1    1    2    0    0 -0.13715925738E+04  0.49739313764E+03  0.16032207865E+04  0.21677137755E+04  0.00000000000E+00 0.  1.
<mgrwt>
<rscale>  0 0.32465835E+04</rscale>
<asrwt>0</asrwt>
<pdfrwt beam="1">  1        2 0.15436041E+00 0.32465835E+04</pdfrwt>
<pdfrwt beam="2">  1       -2 0.40404573E+00 0.32465835E+04</pdfrwt>
<totfact> 0.14667746E-01</totfact>
</mgrwt>
</event>
<event>
 6    1  0.1817112E-005  0.1778455E+04  0.7818608E-02  0.8717841E-01
          2   -1    0    0  501    0  0.00000000000E+00  0.00000000000E+00  0.11907382206E+04  0.11907382206E+04  0.00000000000E+00 0. -1.
         -2   -1    0    0    0  501 -0.00000000000E+00 -0.00000000000E+00 -0.66406344679E+03  0.66406344679E+03  0.00000000000E+00 0.  1.
         23    2    1    2    0    0 -0.23250462047E+03 -0.24795452863E+03  0.11182704492E+04  0.11725075299E+04  0.93302000206E+02 0.  0.
         11    1    3    3    0    0 -0.23707548412E+03 -0.23121799000E+03  0.10113238500E+04  0.10641628041E+04  0.00000000000E+00 0. -1.
        -11    1    3    3    0    0  0.45708636488E+01 -0.16736538624E+02  0.10694659922E+03  0.10834472578E+03  0.00000000000E+00 0.  1.
         22    1    1    2    0    0  0.23250462047E+03  0.24795452863E+03 -0.59159567545E+03  0.68229413746E+03  0.00000000000E+00 0.  1.
<mgrwt>
<rscale>  0 0.17784552E+04</rscale>
<asrwt>0</asrwt>
<pdfrwt beam="1">  1        2 0.18319049E+00 0.17784552E+04</pdfrwt>
<pdfrwt beam="2">  1       -2 0.10216361E+00 0.17784552E+04</pdfrwt>
<totfact> 0.14243171E+01</totfact>
</mgrwt>
</event>
<event>
 6    1  0.1885250E-005  0.2862573E+04  0.7818608E-02  0.8284101E-01
         -2   -1    0    0    0  501 -0.00000000000E+00  0.00000000000E+00  0.18960065223E+04  0.18960065223E+04  0.00000000000E+00 0.  1.
          2   -1    0    0  501    0  0.00000000000E+00 -0.00000000000E+00 -0.10804713773E+04  0.10804713773E+04  0.00000000000E+00 0. -1.
         23    2    1    2    0    0 -0.23797945807E+03 -0.30086506595E+03  0.18404492944E+04  0.18821273963E+04  0.89419909832E+02 0.  0.
         13    1    3    3    0    0 -0.18380836684E+03 -0.21282350174E+03  0.15073446382E+04  0.15333516286E+04  0.00000000000E+00 0. -1.
        -13    1    3    3    0    0 -0.54171091226E+02 -0.88041564213E+02  0.33310465616E+03  0.34877576767E+03  0.00000000000E+00 0.  1.
         22    1    1    2    0    0  0.23797945807E+03  0.30086506595E+03 -0.10249141494E+04  0.10943505033E+04  0.00000000000E+00 0. -1.
<mgrwt>
<rscale>  0 0.28625728E+04</rscale>
<asrwt>0</asrwt>
<pdfrwt beam="1">  1        2 0.16622637E+00 0.28625728E+04</pdfrwt>
<pdfrwt beam="2">  1       -2 0.29169331E+00 0.28625728E+04</pdfrwt>
<totfact> 0.69288970E-01</totfact>
</mgrwt>
</event>
<event>
 6    1  0.1817112E-005  0.3336084E+04  0.7818608E-02  0.8153774E-01
         -2   -1    0    0    0  501 -0.00000000000E+00  0.00000000000E+00  0.11710973534E+04  0.11710973534E+04  0.00000000000E+00 0.  1.
          2   -1    0    0  501    0  0.00000000000E+00 -0.00000000000E+00 -0.23758600481E+04  0.23758600481E+04  0.00000000000E+00 0. -1.
         23    2    1    2    0    0 -0.13749929676E+04 -0.54459954370E+03 -0.14202208403E+04  0.20524285338E+04  0.90781755465E+02 0.  0.
         11    1    3    3    0    0 -0.10972996146E+04 -0.45585185594E+03 -0.10973874852E+04  0.16174444817E+04  0.00000000000E+00 0.  1.
        -11    1    3    3    0    0 -0.27769335295E+03 -0.88747687756E+02 -0.32283335515E+03  0.43498405207E+03  0.00000000000E+00 0. -1.
         22    1    1    2    0    0  0.13749929676E+04  0.54459954370E+03  0.21545814567E+03  0.14945288677E+04  0.00000000000E+00 0.  1.
<mgrwt>
<rscale>  0 0.33360836E+04</rscale>
<asrwt>0</asrwt>
<pdfrwt beam="1">  1        2 0.36551692E+00 0.33360836E+04</pdfrwt>
<pdfrwt beam="2">  1       -2 0.18016883E+00 0.33360836E+04</pdfrwt>
<totfact> 0.61801952E-01</totfact>
</mgrwt>
</event>
<event>
 6    1  0.1817112E-005  0.2535298E+04  0.7818608E-02  0.8390517E-01
         -2   -1    0    0    0  501 -0.00000000000E+00  0.00000000000E+00  0.11021812779E+04  0.11021812779E+04  0.00000000000E+00 0.  1.
          2   -1    0    0  501    0  0.00000000000E+00 -0.00000000000E+00 -0.14579578817E+04  0.14579578817E+04  0.00000000000E+00 0. -1.
         23    2    1    2    0    0  0.78548628091E+03 -0.52295493345E+03  0.67396258096E+03  0.11634168005E+04  0.94034733990E+02 0.  0.
         11    1    3    3    0    0  0.49680460889E+03 -0.34879528932E+03  0.38032277640E+03  0.71632282353E+03  0.00000000000E+00 0. -1.
        -11    1    3    3    0    0  0.28868167202E+03 -0.17415964413E+03  0.29363980456E+03  0.44709397695E+03  0.00000000000E+00 0.  1.
         22    1    1    2    0    0 -0.78548628091E+03  0.52295493345E+03 -0.10297391847E+04  0.13967223591E+04  0.00000000000E+00 0. -1.
<mgrwt>
<rscale>  0 0.25352979E+04</rscale>
<asrwt>0</asrwt>
<pdfrwt beam="1">  1        2 0.22430121E+00 0.25352979E+04</pdfrwt>
<pdfrwt beam="2">  1       -2 0.16956635E+00 0.25352979E+04</pdfrwt>
<totfact> 0.25601564E+00</totfact>
</mgrwt>
</event>
<event>
 6    1  0.1817112E-005  0.2341012E+04  0.7818608E-02  0.8461924E-01
         -2   -1    0    0    0  501 -0.00000000000E+00  0.00000000000E+00  0.88188333067E+03  0.88188333067E+03  0.00000000000E+00 0.  1.
          2   -1    0    0  501    0  0.00000000000E+00 -0.00000000000E+00 -0.15535887739E+04  0.15535887739E+04  0.00000000000E+00 0. -1.
         23    2    1    2    0    0  0.30951816066E+03  0.73447461556E+03 -0.12255273588E+04  0.14649190834E+04  0.93894415534E+02 0.  0.
         13    1    3    3    0    0  0.23319148696E+03  0.62981733419E+03 -0.99397168612E+03  0.11995948720E+04  0.00000000000E+00 0. -1.
        -13    1    3    3    0    0  0.76326673694E+02  0.10465728137E+03 -0.23155567264E+03  0.26532421147E+03  0.00000000000E+00 0.  1.
         22    1    1    2    0    0 -0.30951816066E+03 -0.73447461556E+03  0.55382191554E+03  0.97055302112E+03  0.00000000000E+00 0.  1.
<mgrwt>
<rscale>  0 0.23410118E+04</rscale>
<asrwt>0</asrwt>
<pdfrwt beam="1">  1        2 0.23901366E+00 0.23410118E+04</pdfrwt>
<pdfrwt beam="2">  1       -2 0.13567436E+00 0.23410118E+04</pdfrwt>
<totfact> 0.41682467E+00</totfact>
</mgrwt>
</event>
<event>
 6    1  0.1817112E-005  0.3263246E+04  0.7818608E-02  0.8172311E-01
          2   -1    0    0  501    0  0.00000000000E+00  0.00000000000E+00  0.17190007447E+04  0.17190007447E+04  0.00000000000E+00 0. -1.
         -2   -1    0    0    0  501 -0.00000000000E+00 -0.00000000000E+00 -0.15486868106E+04  0.15486868106E+04  0.00000000000E+00 0.  1.
         23    2    1    2    0    0  0.10063599691E+04 -0.48909156874E+03  0.12722656667E+04  0.16972517651E+04  0.10016325560E+03 0.  0.
         11    1    3    3    0    0  0.69957253784E+03 -0.35700627229E+03  0.82552126460E+03  0.11394474856E+04  0.00000000000E+00 0.  1.
        -11    1    3    3    0    0  0.30678743123E+03 -0.13208529645E+03  0.44674440205E+03  0.55780427953E+03  0.00000000000E+00 0. -1.
         22    1    1    2    0    0 -0.10063599691E+04  0.48909156874E+03 -0.11019517326E+04  0.15704357901E+04  0.00000000000E+00 0.  1.
<mgrwt>
<rscale>  0 0.32632461E+04</rscale>
<asrwt>0</asrwt>
<pdfrwt beam="1">  1        2 0.26446166E+00 0.32632461E+04</pdfrwt>
<pdfrwt beam="2">  1       -2 0.23825951E+00 0.32632461E+04</pdfrwt>
<totfact> 0.60889843E-01</totfact>
</mgrwt>
</event>
<event>
 6    1  0.1817112E-005  0.2965128E+04  0.7818608E-02  0.8253759E-01
         -2   -1    0    0    0  501 -0.00000000000E+00  0.00000000000E+00  0.93635035134E+03  0.93635035134E+03  0.00000000000E+00 0.  1.
          2   -1    0    0  501    0  0.00000000000E+00 -0.00000000000E+00 -0.23474080626E+04  0.23474080626E+04  0.00000000000E+00 0. -1.
         23    2    1    2    0    0 -0.83206295435E+03  0.47235528558E+03 -0.19583708821E+04  0.21814880375E+04  0.90693275663E+02 0.  0.
         13    1    3    3    0    0 -0.11320694884E+02  0.20482101369E+02 -0.62707209452E+02  0.66931821479E+02  0.00000000000E+00 0. -1.
        -13    1    3    3    0    0 -0.82074225947E+03  0.45187318421E+03 -0.18956636726E+04  0.21145562160E+04  0.00000000000E+00 0.  1.
         22    1    1    2    0    0  0.83206295435E+03 -0.47235528558E+03  0.54731317081E+03  0.11022703764E+04  0.00000000000E+00 0.  1.
<mgrwt>
<rscale>  0 0.29651282E+04</rscale>
<asrwt>0</asrwt>
<pdfrwt beam="1">  1        2 0.36113970E+00 0.29651282E+04</pdfrwt>
<pdfrwt beam="2">  1       -2 0.14405390E+00 0.29651282E+04</pdfrwt>
<totfact> 0.12191352E+00</totfact>
</mgrwt>
</event>
<event>
 6    1  0.1817112E-005  0.1118817E+04  0.7818608E-02  0.9187043E-01
          2   -1    0    0  501    0  0.00000000000E+00  0.00000000000E+00  0.75170200557E+03  0.75170200557E+03  0.00000000000E+00 0. -1.
         -2   -1    0    0    0  501 -0.00000000000E+00 -0.00000000000E+00 -0.41630589639E+03  0.41630589639E+03  0.00000000000E+00 0.  1.
         23    2    1    2    0    0 -0.10800741881E+02 -0.53644536331E+03  0.31894871378E+03  0.63120179110E+03  0.93793044672E+02 0.  0.
         11    1    3    3    0    0 -0.36976502681E+02 -0.26615963394E+03  0.19879337867E+03  0.33425591976E+03  0.00000000000E+00 0. -1.
        -11    1    3    3    0    0  0.26175760801E+02 -0.27028572937E+03  0.12015533511E+03  0.29694587135E+03  0.00000000000E+00 0.  1.
         22    1    1    2    0    0  0.10800741881E+02  0.53644536331E+03  0.16447395400E+02  0.53680611086E+03  0.00000000000E+00 0.  1.
<mgrwt>
<rscale>  0 0.11188172E+04</rscale>
<asrwt>0</asrwt>
<pdfrwt beam="1">  1        2 0.11564646E+00 0.11188172E+04</pdfrwt>
<pdfrwt beam="2">  1       -2 0.64047061E-01 0.11188172E+04</pdfrwt>
<totfact> 0.83603799E+01</totfact>
</mgrwt>
</event>
<event>
 6    1  0.1817112E-005  0.9568144E+03  0.7818608E-02  0.9357221E-01
          2   -1    0    0  501    0  0.00000000000E+00  0.00000000000E+00  0.64436039433E+03  0.64436039433E+03  0.00000000000E+00 0. -1.
         -2   -1    0    0    0  501 -0.00000000000E+00 -0.00000000000E+00 -0.35519478816E+03  0.35519478816E+03  0.00000000000E+00 0.  1.
         23    2    1    2    0    0 -0.44320025691E+03  0.14397647602E+03  0.54747086608E+02  0.47791571342E+03  0.90832220430E+02 0.  0.
         11    1    3    3    0    0 -0.18825139366E+03  0.90376663044E+02 -0.11381464825E+02  0.20913169578E+03  0.00000000000E+00 0. -1.
        -11    1    3    3    0    0 -0.25494886325E+03  0.53599812971E+02  0.66128551432E+02  0.26878401764E+03  0.00000000000E+00 0.  1.
         22    1    1    2    0    0  0.44320025691E+03 -0.14397647602E+03  0.23441851956E+03  0.52163946906E+03  0.00000000000E+00 0.  1.
<mgrwt>
<rscale>  0 0.95681441E+03</rscale>
<asrwt>0</asrwt>
<pdfrwt beam="1">  1        2 0.99132368E-01 0.95681441E+03</pdfrwt>
<pdfrwt beam="2">  1       -2 0.54645352E-01 0.95681441E+03</pdfrwt>
<totfact> 0.14335469E+02</totfact>
</mgrwt>
</event>
<event>
 6    1  0.1817112E-005  0.6010389E+04  0.7818608E-02  0.7689115E-01
         -2   -1    0    0    0  501 -0.00000000000E+00  0.00000000000E+00  0.47013991908E+04  0.47013991908E+04  0.00000000000E+00 0.  1.
          2   -1    0    0  501    0  0.00000000000E+00 -0.00000000000E+00 -0.19209584882E+04  0.19209584882E+04  0.00000000000E+00 0. -1.
         23    2    1    2    0    0 -0.87241629321E+03  0.13055198556E+04  0.42129014776E+04  0.44969315679E+04  0.91446076050E+02 0.  0.
         13    1    3    3    0    0 -0.75195550157E+03  0.11317744249E+04  0.37293425552E+04  0.39691745135E+04  0.00000000000E+00 0.  1.
        -13    1    3    3    0    0 -0.12046079164E+03  0.17374543063E+03  0.48355892245E+03  0.52775705440E+03  0.00000000000E+00 0. -1.
         22    1    1    2    0    0  0.87241629321E+03 -0.13055198556E+04 -0.14324607750E+04  0.21254261111E+04  0.00000000000E+00 0. -1.
<mgrwt>
<rscale>  0 0.60103886E+04</rscale>
<asrwt>0</asrwt>
<pdfrwt beam="1">  1        2 0.29553208E+00 0.60103886E+04</pdfrwt>
<pdfrwt beam="2">  1       -2 0.72329218E+00 0.60103886E+04</pdfrwt>
<totfact> 0.93958001E-04</totfact>
</mgrwt>
</event>
<event>
 6    1  0.1817112E-005  0.1035971E+04  0.7818608E-02  0.9269950E-01
          2   -1    0    0  501    0  0.00000000000E+00  0.00000000000E+00  0.19557443257E+04  0.19557443257E+04  0.00000000000E+00 0. -1.
         -2   -1    0    0    0  501 -0.00000000000E+00 -0.00000000000E+00 -0.13719009872E+03  0.13719009872E+03  0.00000000000E+00 0.  1.
         23    2    1    2    0    0 -0.45451706247E+03 -0.13130456168E+03  0.51055169231E+03  0.70200046528E+03  0.91186483309E+02 0.  0.
         11    1    3    3    0    0 -0.38273344882E+03 -0.14166448845E+03  0.41507545119E+03  0.58210080769E+03  0.00000000000E+00 0.  1.
        -11    1    3    3    0    0 -0.71783613649E+02  0.10359926772E+02  0.95476241125E+02  0.11989965759E+03  0.00000000000E+00 0. -1.
         22    1    1    2    0    0  0.45451706247E+03  0.13130456168E+03  0.13080025347E+04  0.13909339591E+04  0.00000000000E+00 0. -1.
<mgrwt>
<rscale>  0 0.10359706E+04</rscale>
<asrwt>0</asrwt>
<pdfrwt beam="1">  1        2 0.30088372E+00 0.10359706E+04</pdfrwt>
<pdfrwt beam="2">  1       -2 0.21106171E-01 0.10359706E+04</pdfrwt>
<totfact> 0.13729674E+02</totfact>
</mgrwt>
</event>
<event>
 6    1  0.1817112E-005  0.1991023E+04  0.7818608E-02  0.8610829E-01
         -2   -1    0    0    0  501 -0.00000000000E+00  0.00000000000E+00  0.39493312584E+03  0.39493312584E+03  0.00000000000E+00 0.  1.
          2   -1    0    0  501    0  0.00000000000E+00 -0.00000000000E+00 -0.25093955847E+04  0.25093955847E+04  0.00000000000E+00 0. -1.
         23    2    1    2    0    0  0.58781746944E+03  0.39583947384E+03 -0.20750360349E+04  0.21945592343E+04  0.89985667688E+02 0.  0.
         11    1    3    3    0    0  0.26976814465E+03  0.18102794448E+03 -0.10903692550E+04  0.11377394608E+04  0.00000000000E+00 0.  1.
        -11    1    3    3    0    0  0.31804932479E+03  0.21481152936E+03 -0.98466677997E+03  0.10568197735E+04  0.00000000000E+00 0. -1.
         22    1    1    2    0    0 -0.58781746944E+03 -0.39583947384E+03 -0.39426423931E+02  0.70976947619E+03  0.00000000000E+00 0.  1.
<mgrwt>
<rscale>  0 0.19910233E+04</rscale>
<asrwt>0</asrwt>
<pdfrwt beam="1">  1        2 0.38606088E+00 0.19910233E+04</pdfrwt>
<pdfrwt beam="2">  1       -2 0.60758940E-01 0.19910233E+04</pdfrwt>
<totfact> 0.80649569E+00</totfact>
</mgrwt>
</event>
<event>
 6    1  0.1817112E-005  0.4004505E+04  0.7818608E-02  0.8003638E-01
          2   -1    0    0  501    0  0.00000000000E+00  0.00000000000E+00  0.28708757473E+04  0.28708757473E+04  0.00000000000E+00 0. -1.
         -2   -1    0    0    0  501 -0.00000000000E+00 -0.00000000000E+00 -0.13964434968E+04  0.13964434968E+04  0.00000000000E+00 0.  1.
         23    2    1    2    0    0 -0.17488106464E+04  0.43676369870E+03  0.16640311506E+04  0.24548488448E+04  0.90454268957E+02 0.  0.
         11    1    3    3    0    0 -0.62563549359E+03  0.12980264400E+03  0.54261639500E+03  0.83827265812E+03  0.00000000000E+00 0. -1.
        -11    1    3    3    0    0 -0.11231751528E+04  0.30696105470E+03  0.11214147556E+04  0.16165761866E+04  0.00000000000E+00 0.  1.
         22    1    1    2    0    0  0.17488106464E+04 -0.43676369870E+03 -0.18959890011E+03  0.18124703993E+04  0.00000000000E+00 0.  1.
<mgrwt>
<rscale>  0 0.40045053E+04</rscale>
<asrwt>0</asrwt>
<pdfrwt beam="1">  1        2 0.44167319E+00 0.40045053E+04</pdfrwt>
<pdfrwt beam="2">  1       -2 0.21483746E+00 0.40045053E+04</pdfrwt>
<totfact> 0.17593693E-01</totfact>
</mgrwt>
</event>
<event>
 6    1  0.1817112E-005  0.2485241E+04  0.7818608E-02  0.8408262E-01
          2   -1    0    0  501    0  0.00000000000E+00  0.00000000000E+00  0.10322752469E+04  0.10322752469E+04  0.00000000000E+00 0. -1.
         -2   -1    0    0    0  501 -0.00000000000E+00 -0.00000000000E+00 -0.14958280272E+04  0.14958280272E+04  0.00000000000E+00 0.  1.
         23    2    1    2    0    0 -0.69957593954E+03 -0.73534943561E+03 -0.95917116277E+03  0.13985976882E+04  0.76947295712E+02 0.  0.
         11    1    3    3    0    0 -0.26996775890E+03 -0.32782038071E+03 -0.36947781228E+03  0.56290553969E+03  0.00000000000E+00 0. -1.
        -11    1    3    3    0    0 -0.42960818063E+03 -0.40752905491E+03 -0.58969335050E+03  0.83569214851E+03  0.00000000000E+00 0.  1.
         22    1    1    2    0    0  0.69957593954E+03  0.73534943561E+03  0.49561838239E+03  0.11295055859E+04  0.00000000000E+00 0. -1.
<mgrwt>
<rscale>  0 0.24852414E+04</rscale>
<asrwt>0</asrwt>
<pdfrwt beam="1">  1        2 0.15881158E+00 0.24852414E+04</pdfrwt>
<pdfrwt beam="2">  1       -2 0.23012739E+00 0.24852414E+04</pdfrwt>
<totfact> 0.18302424E+00</totfact>
</mgrwt>
</event>
<event>
 6    1  0.1817112E-005  0.2135897E+04  0.7818608E-02  0.8545593E-01
          2   -1    0    0  501    0  0.00000000000E+00  0.00000000000E+00  0.17916154110E+04  0.17916154110E+04  0.00000000000E+00 0. -1.
         -2   -1    0    0    0  501 -0.00000000000E+00 -0.00000000000E+00 -0.63658396319E+03  0.63658396319E+03  0.00000000000E+00 0.  1.
         23    2    1    2    0    0  0.27462992776E+02 -0.67740963230E+03  0.15137275736E+04  0.16611915929E+04  0.92457099410E+02 0.  0.
         13    1    3    3    0    0  0.15946971545E+02 -0.56451771579E+03  0.11689883870E+04  0.12982559094E+04  0.00000000000E+00 0.  1.
        -13    1    3    3    0    0  0.11516021232E+02 -0.11289191651E+03  0.34473918663E+03  0.36293568350E+03  0.00000000000E+00 0. -1.
         22    1    1    2    0    0 -0.27462992776E+02  0.67740963230E+03 -0.35869612582E+03  0.76700778130E+03  0.00000000000E+00 0.  1.
<mgrwt>
<rscale>  0 0.21358967E+04</rscale>
<asrwt>0</asrwt>
<pdfrwt beam="1">  1        2 0.27563314E+00 0.21358967E+04</pdfrwt>
<pdfrwt beam="2">  1       -2 0.97935995E-01 0.21358967E+04</pdfrwt>
<totfact> 0.69540634E+00</totfact>
</mgrwt>
</event>
<event>
 6    1  0.1817112E-005  0.2905286E+04  0.7818608E-02  0.8271307E-01
          2   -1    0    0  501    0  0.00000000000E+00  0.00000000000E+00  0.21033971765E+04  0.21033971765E+04  0.00000000000E+00 0. -1.
         -2   -1    0    0    0  501 -0.00000000000E+00 -0.00000000000E+00 -0.10032204472E+04  0.10032204472E+04  0.00000000000E+00 0.  1.
         23    2    1    2    0    0 -0.74622035824E+02 -0.10991404771E+04 -0.45984932461E+03  0.11968114750E+04  0.84959218713E+02 0.  0.
         11    1    3    3    0    0 -0.89634772182E+02 -0.10172997268E+04 -0.43449077481E+03  0.11098267252E+04  0.00000000000E+00 0. -1.
        -11    1    3    3    0    0  0.15012736358E+02 -0.81840750253E+02 -0.25358549807E+02  0.86984749831E+02  0.00000000000E+00 0.  1.
         22    1    1    2    0    0  0.74622035824E+02  0.10991404771E+04  0.15600260539E+04  0.19098061486E+04  0.00000000000E+00 0. -1.
<mgrwt>
<rscale>  0 0.29052856E+04</rscale>
<asrwt>0</asrwt>
<pdfrwt beam="1">  1        2 0.32359956E+00 0.29052856E+04</pdfrwt>
<pdfrwt beam="2">  1       -2 0.15434161E+00 0.29052856E+04</pdfrwt>
<totfact> 0.14014387E+00</totfact>
</mgrwt>
</event>
<event>
 6    1  0.1817112E-005  0.1805043E+04  0.7818608E-02  0.8703622E-01
          2   -1    0    0  501    0  0.00000000000E+00  0.00000000000E+00  0.76514059705E+03  0.76514059705E+03  0.00000000000E+00 0. -1.
         -2   -1    0    0    0  501 -0.00000000000E+00 -0.00000000000E+00 -0.10645689069E+04  0.10645689069E+04  0.00000000000E+00 0.  1.
         23    2    1    2    0    0 -0.18697409024E+03 -0.86466242073E+03  0.20602925994E+02  0.88895427321E+03  0.84940020258E+02 0.  0.
         11    1    3    3    0    0 -0.69209030421E+02 -0.41537948257E+03 -0.27539067882E+02  0.42200521879E+03  0.00000000000E+00 0.  1.
        -11    1    3    3    0    0 -0.11776505982E+03 -0.44928293817E+03  0.48141993876E+02  0.46694905441E+03  0.00000000000E+00 0. -1.
         22    1    1    2    0    0  0.18697409024E+03  0.86466242073E+03 -0.32003123584E+03  0.94075523074E+03  0.00000000000E+00 0. -1.
<mgrwt>
<rscale>  0 0.18050428E+04</rscale>
<asrwt>0</asrwt>
<pdfrwt beam="1">  1        2 0.11771394E+00 0.18050428E+04</pdfrwt>
<pdfrwt beam="2">  1       -2 0.16377983E+00 0.18050428E+04</pdfrwt>
<totfact> 0.81425463E+00</totfact>
</mgrwt>
</event>
<event>
 6    1  0.1817112E-005  0.2784704E+04  0.7818608E-02  0.8308033E-01
         -2   -1    0    0    0  501 -0.00000000000E+00  0.00000000000E+00  0.13511261018E+04  0.13511261018E+04  0.00000000000E+00 0.  1.
          2   -1    0    0  501    0  0.00000000000E+00 -0.00000000000E+00 -0.14348360006E+04  0.14348360006E+04  0.00000000000E+00 0. -1.
         23    2    1    2    0    0  0.74239239118E+03 -0.66491761626E+03 -0.10125156245E+04  0.14236324892E+04  0.90992722674E+02 0.  0.
         13    1    3    3    0    0  0.51526974411E+03 -0.51296122268E+03 -0.71709508189E+03  0.10212039373E+04  0.00000000000E+00 0.  1.
        -13    1    3    3    0    0  0.22712264707E+03 -0.15195639357E+03 -0.29542054265E+03  0.40242855189E+03  0.00000000000E+00 0. -1.
         22    1    1    2    0    0 -0.74239239118E+03  0.66491761626E+03  0.92880572570E+03  0.13623296132E+04  0.00000000000E+00 0.  1.
<mgrwt>
<rscale>  0 0.27847042E+04</rscale>
<asrwt>0</asrwt>
<pdfrwt beam="1">  1        2 0.22074400E+00 0.27847042E+04</pdfrwt>
<pdfrwt beam="2">  1       -2 0.20786555E+00 0.27847042E+04</pdfrwt>
<totfact> 0.14234998E+00</totfact>
</mgrwt>
</event>
<event>
 6    1  0.1817112E-005  0.2905075E+04  0.7818608E-02  0.8271369E-01
         -2   -1    0    0    0  501 -0.00000000000E+00  0.00000000000E+00  0.10616990052E+04  0.10616990052E+04  0.00000000000E+00 0.  1.
          2   -1    0    0  501    0  0.00000000000E+00 -0.00000000000E+00 -0.19872541935E+04  0.19872541935E+04  0.00000000000E+00 0. -1.
         23    2    1    2    0    0  0.24291070289E+03 -0.38195541854E+03 -0.19102339904E+04  0.19652152715E+04  0.90452273627E+02 0.  0.
         13    1    3    3    0    0  0.13437122566E+03 -0.19972973490E+03 -0.82286147264E+03  0.85734975152E+03  0.00000000000E+00 0.  1.
        -13    1    3    3    0    0  0.10853947723E+03 -0.18222568364E+03 -0.10873725178E+04  0.11078655200E+04  0.00000000000E+00 0. -1.
         22    1    1    2    0    0 -0.24291070289E+03  0.38195541854E+03  0.98467880212E+03  0.10837379271E+04  0.00000000000E+00 0.  1.
<mgrwt>
<rscale>  0 0.29050754E+04</rscale>
<asrwt>0</asrwt>
<pdfrwt beam="1">  1        2 0.30573141E+00 0.29050754E+04</pdfrwt>
<pdfrwt beam="2">  1       -2 0.16333831E+00 0.29050754E+04</pdfrwt>
<totfact> 0.13948456E+00</totfact>
</mgrwt>
</event>
<event>
 6    1  0.1817112E-005  0.1036856E+04  0.7818608E-02  0.9269021E-01
          2   -1    0    0  501    0  0.00000000000E+00  0.00000000000E+00  0.16471273936E+04  0.16471273936E+04  0.00000000000E+00 0. -1.
         -2   -1    0    0    0  501 -0.00000000000E+00 -0.00000000000E+00 -0.16317343708E+03  0.16317343708E+03  0.00000000000E+00 0.  1.
         23    2    1    2    0    0  0.38051051915E+03  0.12672508718E+03  0.18547242934E+03  0.45129318562E+03  0.91749738100E+02 0.  0.
         11    1    3    3    0    0  0.19499376283E+03  0.25696223443E+02  0.60141965661E+02  0.20566944225E+03  0.00000000000E+00 0. -1.
        -11    1    3    3    0    0  0.18551675632E+03  0.10102886373E+03  0.12533046368E+03  0.24562374337E+03  0.00000000000E+00 0.  1.
         22    1    1    2    0    0 -0.38051051915E+03 -0.12672508718E+03  0.12984815272E+04  0.13590076450E+04  0.00000000000E+00 0. -1.
<mgrwt>
<rscale>  0 0.10368557E+04</rscale>
<asrwt>0</asrwt>
<pdfrwt beam="1">  1        2 0.25340420E+00 0.10368557E+04</pdfrwt>
<pdfrwt beam="2">  1       -2 0.25103607E-01 0.10368557E+04</pdfrwt>
<totfact> 0.14888777E+02</totfact>
</mgrwt>
</event>
<event>
 6    1  0.1817112E-005  0.2218268E+04  0.7818608E-02  0.8510863E-01
         -2   -1    0    0    0  501 -0.00000000000E+00  0.00000000000E+00  0.68686246920E+03  0.68686246920E+03  0.00000000000E+00 0.  1.
          2   -1    0    0  501    0  0.00000000000E+00 -0.00000000000E+00 -0.17910112018E+04  0.17910112018E+04  0.00000000000E+00 0. -1.
         23    2    1    2    0    0  0.18527889837E+03  0.37527214327E+03  0.59179329715E+03  0.73105461341E+03  0.95205512098E+02 0.  0.
         11    1    3    3    0    0  0.48543570165E+02  0.19840771116E+03  0.25323221665E+03  0.32534390051E+03  0.00000000000E+00 0. -1.
        -11    1    3    3    0    0  0.13673532821E+03  0.17686443211E+03  0.33856108050E+03  0.40571071290E+03  0.00000000000E+00 0.  1.
         22    1    1    2    0    0 -0.18527889837E+03 -0.37527214327E+03 -0.16959420297E+04  0.17468190576E+04  0.00000000000E+00 0. -1.
<mgrwt>
<rscale>  0 0.22182681E+04</rscale>
<asrwt>0</asrwt>
<pdfrwt beam="1">  1        2 0.27554018E+00 0.22182681E+04</pdfrwt>
<pdfrwt beam="2">  1       -2 0.10567115E+00 0.22182681E+04</pdfrwt>
<totfact> 0.57670211E+00</totfact>
</mgrwt>
</event>
<event>
 6    1  0.1817112E-005  0.2336182E+04  0.7818608E-02  0.8463790E-01
         -2   -1    0    0    0  501 -0.00000000000E+00  0.00000000000E+00  0.95011618112E+03  0.95011618112E+03  0.00000000000E+00 0.  1.
          2   -1    0    0  501    0  0.00000000000E+00 -0.00000000000E+00 -0.14360730601E+04  0.14360730601E+04  0.00000000000E+00 0. -1.
         23    2    1    2    0    0 -0.10527592054E+04 -0.24061265222E+03  0.20677848259E+03  0.11031932654E+04  0.89897981119E+02 0.  0.
         11    1    3    3    0    0 -0.59394533822E+03 -0.11755890813E+03  0.15748403973E+03  0.62561360634E+03  0.00000000000E+00 0. -1.
        -11    1    3    3    0    0 -0.45881386714E+03 -0.12305374410E+03  0.49294442863E+02  0.47757965902E+03  0.00000000000E+00 0.  1.
         22    1    1    2    0    0  0.10527592054E+04  0.24061265222E+03 -0.69273536153E+03  0.12829959758E+04  0.00000000000E+00 0. -1.
<mgrwt>
<rscale>  0 0.23361817E+04</rscale>
<asrwt>0</asrwt>
<pdfrwt beam="1">  1        2 0.22093432E+00 0.23361817E+04</pdfrwt>
<pdfrwt beam="2">  1       -2 0.14617172E+00 0.23361817E+04</pdfrwt>
<totfact> 0.40025466E+00</totfact>
</mgrwt>
</event>
<event>
 6    1  0.1817112E-005  0.2786588E+04  0.7818608E-02  0.8307444E-01
          2   -1    0    0  501    0  0.00000000000E+00  0.00000000000E+00  0.12781184464E+04  0.12781184464E+04  0.00000000000E+00 0. -1.
         -2   -1    0    0    0  501 -0.00000000000E+00 -0.00000000000E+00 -0.15188487579E+04  0.15188487579E+04  0.00000000000E+00 0.  1.
         23    2    1    2    0    0  0.96921767721E+03  0.96864370480E+03 -0.36485008999E+03  0.14210823065E+04  0.93304881537E+02 0.  0.
         13    1    3    3    0    0  0.37450153372E+03  0.41006198199E+03 -0.18737209127E+03  0.58609771234E+03  0.00000000000E+00 0.  1.
        -13    1    3    3    0    0  0.59471614349E+03  0.55858172282E+03 -0.17747799872E+03  0.83498459412E+03  0.00000000000E+00 0. -1.
         22    1    1    2    0    0 -0.96921767721E+03 -0.96864370480E+03  0.12411977858E+03  0.13758848978E+04  0.00000000000E+00 0. -1.
<mgrwt>
<rscale>  0 0.27865883E+04</rscale>
<asrwt>0</asrwt>
<pdfrwt beam="1">  1        2 0.19663361E+00 0.27865883E+04</pdfrwt>
<pdfrwt beam="2">  1       -2 0.23366904E+00 0.27865883E+04</pdfrwt>
<totfact> 0.12028795E+00</totfact>
</mgrwt>
</event>
<event>
 6    1  0.1817112E-005  0.2991537E+04  0.7818608E-02  0.8246152E-01
         -2   -1    0    0    0  501 -0.00000000000E+00  0.00000000000E+00  0.15578004483E+04  0.15578004483E+04  0.00000000000E+00 0.  1.
          2   -1    0    0  501    0  0.00000000000E+00 -0.00000000000E+00 -0.14362064470E+04  0.14362064470E+04  0.00000000000E+00 0. -1.
         23    2    1    2    0    0  0.66814127564E+03 -0.71307742404E+03  0.11924125960E+04  0.15443363673E+04  0.90746015273E+02 0.  0.
         13    1    3    3    0    0  0.28608583515E+03 -0.35119797896E+03  0.60311576031E+03  0.75427696892E+03  0.00000000000E+00 0. -1.
        -13    1    3    3    0    0  0.38205544049E+03 -0.36187944508E+03  0.58929683570E+03  0.79005939836E+03  0.00000000000E+00 0.  1.
         22    1    1    2    0    0 -0.66814127564E+03  0.71307742404E+03 -0.10708185947E+04  0.14496705280E+04  0.00000000000E+00 0. -1.
<mgrwt>
<rscale>  0 0.29915368E+04</rscale>
<asrwt>0</asrwt>
<pdfrwt beam="1">  1        2 0.22095484E+00 0.29915368E+04</pdfrwt>
<pdfrwt beam="2">  1       -2 0.23966161E+00 0.29915368E+04</pdfrwt>
<totfact> 0.87976529E-01</totfact>
</mgrwt>
</event>
<event>
 6    1  0.1817112E-005  0.2517530E+04  0.7818608E-02  0.8396767E-01
          2   -1    0    0  501    0  0.00000000000E+00  0.00000000000E+00  0.31827416138E+04  0.31827416138E+04  0.00000000000E+00 0. -1.
         -2   -1    0    0    0  501 -0.00000000000E+00 -0.00000000000E+00 -0.49783773162E+03  0.49783773162E+03  0.00000000000E+00 0.  1.
         23    2    1    2    0    0 -0.12520774417E+04  0.11079195565E+03  0.13104171362E+04  0.18180040873E+04  0.89291730034E+02 0.  0.
         11    1    3    3    0    0 -0.43584907413E+03  0.54819993203E+02  0.51545716312E+03  0.67724865012E+03  0.00000000000E+00 0.  1.
        -11    1    3    3    0    0 -0.81622836754E+03  0.55971962444E+02  0.79495997307E+03  0.11407554371E+04  0.00000000000E+00 0. -1.
         22    1    1    2    0    0  0.12520774417E+04 -0.11079195565E+03  0.13744867459E+04  0.18625752581E+04  0.00000000000E+00 0.  1.
<mgrwt>
<rscale>  0 0.25175296E+04</rscale>
<asrwt>0</asrwt>
<pdfrwt beam="1">  1        2 0.48965254E+00 0.25175296E+04</pdfrwt>
<pdfrwt beam="2">  1       -2 0.76590422E-01 0.25175296E+04</pdfrwt>
<totfact> 0.18069672E+00</totfact>
</mgrwt>
</event>
<event>
 6    1  0.1817112E-005  0.3425212E+04  0.7818608E-02  0.8131746E-01
         -2   -1    0    0    0  501 -0.00000000000E+00  0.00000000000E+00  0.16592546241E+04  0.16592546241E+04  0.00000000000E+00 0.  1.
          2   -1    0    0  501    0  0.00000000000E+00 -0.00000000000E+00 -0.17676725688E+04  0.17676725688E+04  0.00000000000E+00 0. -1.
         23    2    1    2    0    0 -0.30737206969E+03  0.16805019499E+04  0.46903578437E+02  0.17115003747E+04  0.92028225550E+02 0.  0.
         11    1    3    3    0    0 -0.22396019307E+03  0.10792289036E+04 -0.52333605121E+01  0.11022343592E+04  0.00000000000E+00 0. -1.
        -11    1    3    3    0    0 -0.83411876624E+02  0.60127304625E+03  0.52136938949E+02  0.60926601556E+03  0.00000000000E+00 0.  1.
         22    1    1    2    0    0  0.30737206969E+03 -0.16805019499E+04 -0.15532152312E+03  0.17154268181E+04  0.00000000000E+00 0.  1.
<mgrwt>
<rscale>  0 0.34252118E+04</rscale>
<asrwt>0</asrwt>
<pdfrwt beam="1">  1        2 0.27194963E+00 0.34252118E+04</pdfrwt>
<pdfrwt beam="2">  1       -2 0.25526994E+00 0.34252118E+04</pdfrwt>
<totfact> 0.44345952E-01</totfact>
</mgrwt>
</event>
<event>
 6    1  0.1817112E-005  0.2800276E+04  0.7818608E-02  0.8303183E-01
         -2   -1    0    0    0  501 -0.00000000000E+00  0.00000000000E+00  0.10730366326E+04  0.10730366326E+04  0.00000000000E+00 0. -1.
          2   -1    0    0  501    0  0.00000000000E+00 -0.00000000000E+00 -0.18269525873E+04  0.18269525873E+04  0.00000000000E+00 0.  1.
         23    2    1    2    0    0  0.21763646975E+03 -0.83888012829E+03  0.75934543903E+03  0.11561298366E+04  0.94579071274E+02 0.  0.
         13    1    3    3    0    0 -0.94581870544E+00 -0.11300284960E+03  0.11473750045E+03  0.16104419456E+03  0.00000000000E+00 0. -1.
        -13    1    3    3    0    0  0.21858228846E+03 -0.72587727869E+03  0.64460793858E+03  0.99508564206E+03  0.00000000000E+00 0.  1.
         22    1    1    2    0    0 -0.21763646975E+03  0.83888012829E+03 -0.15132613938E+04  0.17438593832E+04  0.00000000000E+00 0.  1.
<mgrwt>
<rscale>  0 0.28002765E+04</rscale>
<asrwt>0</asrwt>
<pdfrwt beam="1">  1        2 0.28106963E+00 0.28002765E+04</pdfrwt>
<pdfrwt beam="2">  1       -2 0.16508256E+00 0.28002765E+04</pdfrwt>
<totfact> 0.16773371E+00</totfact>
</mgrwt>
</event>
<event>
 6    1  0.1817112E-005  0.2691020E+04  0.7818608E-02  0.8337925E-01
         -4   -1    0    0    0  501 -0.00000000000E+00  0.00000000000E+00  0.12036814584E+04  0.12036814584E+04  0.00000000000E+00 0.  1.
          4   -1    0    0  501    0  0.00000000000E+00 -0.00000000000E+00 -0.15040495564E+04  0.15040495564E+04  0.00000000000E+00 0. -1.
         23    2    1    2    0    0  0.11993000106E+04  0.37192293070E+03 -0.63250630212E+03  0.14088996292E+04  0.91031648946E+02 0.  0.
         11    1    3    3    0    0  0.34343624814E+03  0.13859274717E+03 -0.15529338423E+03  0.40158740181E+03  0.00000000000E+00 0. -1.
        -11    1    3    3    0    0  0.85586376243E+03  0.23333018354E+03 -0.47721291789E+03  0.10073122274E+04  0.00000000000E+00 0.  1.
         22    1    1    2    0    0 -0.11993000106E+04 -0.37192293070E+03  0.33213820413E+03  0.12988313857E+04  0.00000000000E+00 0.  1.
<mgrwt>
<rscale>  0 0.26910196E+04</rscale>
<asrwt>0</asrwt>
<pdfrwt beam="1">  1        4 0.23139224E+00 0.26910196E+04</pdfrwt>
<pdfrwt beam="2">  1       -4 0.18518176E+00 0.26910196E+04</pdfrwt>
<totfact> 0.23900466E-02</totfact>
</mgrwt>
</event>
<event>
 6    1  0.1817112E-005  0.9549139E+03  0.7818608E-02  0.9359425E-01
         -2   -1    0    0    0  501 -0.00000000000E+00  0.00000000000E+00  0.16759587729E+03  0.16759587729E+03  0.00000000000E+00 0.  1.
          2   -1    0    0  501    0  0.00000000000E+00 -0.00000000000E+00 -0.13602073438E+04  0.13602073438E+04  0.00000000000E+00 0. -1.
         23    2    1    2    0    0  0.35556468144E+03  0.30774210090E+03 -0.51822795881E+03  0.70565690881E+03  0.90884609813E+02 0.  0.
         11    1    3    3    0    0  0.24159354735E+03  0.17124043313E+03 -0.37170122285E+03  0.47523944189E+03  0.00000000000E+00 0. -1.
        -11    1    3    3    0    0  0.11397113409E+03  0.13650166777E+03 -0.14652673596E+03  0.23041746692E+03  0.00000000000E+00 0.  1.
         22    1    1    2    0    0 -0.35556468144E+03 -0.30774210090E+03 -0.67438350770E+03  0.82214631229E+03  0.00000000000E+00 0.  1.
<mgrwt>
<rscale>  0 0.95491391E+03</rscale>
<asrwt>0</asrwt>
<pdfrwt beam="1">  1        2 0.20926267E+00 0.95491391E+03</pdfrwt>
<pdfrwt beam="2">  1       -2 0.25783981E-01 0.95491391E+03</pdfrwt>
<totfact> 0.20670610E+02</totfact>
</mgrwt>
</event>
<event>
 6    1  0.1817112E-005  0.3693349E+04  0.7818608E-02  0.8069437E-01
          2   -1    0    0  501    0  0.00000000000E+00  0.00000000000E+00  0.23640314285E+04  0.23640314285E+04  0.00000000000E+00 0. -1.
         -2   -1    0    0    0  501 -0.00000000000E+00 -0.00000000000E+00 -0.14425387781E+04  0.14425387781E+04  0.00000000000E+00 0.  1.
         23    2    1    2    0    0 -0.97814510920E+03 -0.18641273280E+03 -0.11404350832E+04  0.15167965190E+04  0.92530749273E+02 0.  0.
         13    1    3    3    0    0 -0.73159228730E+03 -0.12282446512E+03 -0.79097218592E+03  0.10844123399E+04  0.00000000000E+00 0.  1.
        -13    1    3    3    0    0 -0.24655282190E+03 -0.63588267679E+02 -0.34946289730E+03  0.43238417913E+03  0.00000000000E+00 0. -1.
         22    1    1    2    0    0  0.97814510920E+03  0.18641273280E+03  0.20619277336E+04  0.22897736876E+04  0.00000000000E+00 0. -1.
<mgrwt>
<rscale>  0 0.36933492E+04</rscale>
<asrwt>0</asrwt>
<pdfrwt beam="1">  1        2 0.36369714E+00 0.36933492E+04</pdfrwt>
<pdfrwt beam="2">  1       -2 0.22192904E+00 0.36933492E+04</pdfrwt>
<totfact> 0.32400032E-01</totfact>
</mgrwt>
</event>
<event>
 6    1  0.1817112E-005  0.1142878E+04  0.7818608E-02  0.9164379E-01
         -2   -1    0    0    0  501 -0.00000000000E+00  0.00000000000E+00  0.68720659983E+03  0.68720659983E+03  0.00000000000E+00 0.  1.
          2   -1    0    0  501    0  0.00000000000E+00 -0.00000000000E+00 -0.47517414697E+03  0.47517414697E+03  0.00000000000E+00 0. -1.
         23    2    1    2    0    0  0.38232959343E+03 -0.40025907335E+03 -0.21644251087E+02  0.56155793950E+03  0.92171589983E+02 0.  0.
         11    1    3    3    0    0  0.25893556951E+03 -0.25020466313E+03  0.27643964781E+02  0.36112905089E+03  0.00000000000E+00 0.  1.
        -11    1    3    3    0    0  0.12339402392E+03 -0.15005441022E+03 -0.49288215868E+02  0.20042888861E+03  0.00000000000E+00 0. -1.
         22    1    1    2    0    0 -0.38232959343E+03  0.40025907335E+03  0.23367670394E+03  0.60082280730E+03  0.00000000000E+00 0.  1.
<mgrwt>
<rscale>  0 0.11428785E+04</rscale>
<asrwt>0</asrwt>
<pdfrwt beam="1">  1        2 0.73103715E-01 0.11428785E+04</pdfrwt>
<pdfrwt beam="2">  1       -2 0.10572409E+00 0.11428785E+04</pdfrwt>
<totfact> 0.46780091E+01</totfact>
</mgrwt>
</event>
<event>
 6    1  0.1817112E-005  0.3542424E+04  0.7818608E-02  0.8103809E-01
          2   -1    0    0  501    0  0.00000000000E+00  0.00000000000E+00  0.28749105392E+04  0.28749105392E+04  0.00000000000E+00 0. -1.
         -2   -1    0    0    0  501 -0.00000000000E+00 -0.00000000000E+00 -0.10912312241E+04  0.10912312241E+04  0.00000000000E+00 0.  1.
         23    2    1    2    0    0 -0.12750601546E+04 -0.11710153235E+04  0.13051891772E+04  0.21700326080E+04  0.92018724661E+02 0.  0.
         13    1    3    3    0    0 -0.55321768992E+03 -0.55293125081E+03  0.62903433012E+03  0.10037265410E+04  0.00000000000E+00 0. -1.
        -13    1    3    3    0    0 -0.72184246471E+03 -0.61808407267E+03  0.67615484713E+03  0.11663060670E+04  0.00000000000E+00 0.  1.
         22    1    1    2    0    0  0.12750601546E+04  0.11710153235E+04  0.47849013779E+03  0.17961091553E+04  0.00000000000E+00 0.  1.
<mgrwt>
<rscale>  0 0.35424241E+04</rscale>
<asrwt>0</asrwt>
<pdfrwt beam="1">  1        2 0.44229393E+00 0.35424241E+04</pdfrwt>
<pdfrwt beam="2">  1       -2 0.16788173E+00 0.35424241E+04</pdfrwt>
<totfact> 0.37601060E-01</totfact>
</mgrwt>
</event>
<event>
 6    1  0.1817112E-005  0.2409485E+04  0.7818608E-02  0.8435961E-01
          1   -1    0    0  501    0  0.00000000000E+00  0.00000000000E+00  0.11410634914E+04  0.11410634914E+04  0.00000000000E+00 0. -1.
         -1   -1    0    0    0  501 -0.00000000000E+00 -0.00000000000E+00 -0.12719750089E+04  0.12719750089E+04  0.00000000000E+00 0.  1.
         23    2    1    2    0    0 -0.49858547691E+03 -0.96059291009E+03 -0.59161633988E+03  0.12367837871E+04  0.91093500432E+02 0.  0.
         11    1    3    3    0    0 -0.16637889539E+03 -0.39968236024E+03 -0.26551214297E+03  0.50786280035E+03  0.00000000000E+00 0. -1.
        -11    1    3    3    0    0 -0.33220658151E+03 -0.56091054985E+03 -0.32610419691E+03  0.72892098679E+03  0.00000000000E+00 0.  1.
         22    1    1    2    0    0  0.49858547691E+03  0.96059291009E+03  0.46070482237E+03  0.11762547131E+04  0.00000000000E+00 0. -1.
<mgrwt>
<rscale>  0 0.24094848E+04</rscale>
<asrwt>0</asrwt>
<pdfrwt beam="1">  1        1 0.17554823E+00 0.24094848E+04</pdfrwt>
<pdfrwt beam="2">  1       -1 0.19568846E+00 0.24094848E+04</pdfrwt>
<totfact> 0.17051727E+00</totfact>
</mgrwt>
</event>
<event>
 6    1  0.1817112E-005  0.1719605E+04  0.7818608E-02  0.8750261E-01
          2   -1    0    0  501    0  0.00000000000E+00  0.00000000000E+00  0.67274061636E+03  0.67274061636E+03  0.00000000000E+00 0.  1.
         -2   -1    0    0    0  501 -0.00000000000E+00 -0.00000000000E+00 -0.10988782232E+04  0.10988782232E+04  0.00000000000E+00 0. -1.
         23    2    1    2    0    0  0.72457999922E+02  0.27860820665E+03 -0.10456824569E+04  0.10884581588E+04  0.91742401310E+02 0.  0.
         11    1    3    3    0    0  0.86899993552E+02  0.27151925687E+03 -0.96703200186E+03  0.10081791549E+04  0.00000000000E+00 0.  1.
        -11    1    3    3    0    0 -0.14441993630E+02  0.70889497775E+01 -0.78650455043E+02  0.80279003902E+02  0.00000000000E+00 0. -1.
         22    1    1    2    0    0 -0.72457999922E+02 -0.27860820665E+03  0.61954485004E+03  0.68316068079E+03  0.00000000000E+00 0.  1.
<mgrwt>
<rscale>  0 0.17196046E+04</rscale>
<asrwt>0</asrwt>
<pdfrwt beam="1">  1        2 0.10349856E+00 0.17196046E+04</pdfrwt>
<pdfrwt beam="2">  1       -2 0.16905819E+00 0.17196046E+04</pdfrwt>
<totfact> 0.88522074E+00</totfact>
</mgrwt>
</event>
<event>
 6    1  0.1817112E-005  0.1733480E+04  0.7818608E-02  0.8742497E-01
          2   -1    0    0  501    0  0.00000000000E+00  0.00000000000E+00  0.25244546510E+04  0.25244546510E+04  0.00000000000E+00 0.  1.
         -2   -1    0    0    0  501 -0.00000000000E+00 -0.00000000000E+00 -0.29758429327E+03  0.29758429327E+03  0.00000000000E+00 0. -1.
         23    2    1    2    0    0 -0.45491222488E+03 -0.56681005799E+03  0.35648793972E+03  0.81541263033E+03  0.97955767329E+02 0.  0.
         13    1    3    3    0    0 -0.20388788260E+03 -0.29586487645E+03  0.22183810323E+03  0.42227767858E+03  0.00000000000E+00 0.  1.
        -13    1    3    3    0    0 -0.25102434228E+03 -0.27094518154E+03  0.13464983650E+03  0.39313495175E+03  0.00000000000E+00 0. -1.
         22    1    1    2    0    0  0.45491222488E+03  0.56681005799E+03  0.18703824180E+04  0.20066263140E+04  0.00000000000E+00 0.  1.
<mgrwt>
<rscale>  0 0.17334798E+04</rscale>
<asrwt>0</asrwt>
<pdfrwt beam="1">  1        2 0.38837763E+00 0.17334798E+04</pdfrwt>
<pdfrwt beam="2">  1       -2 0.45782201E-01 0.17334798E+04</pdfrwt>
<totfact> 0.14488294E+01</totfact>
</mgrwt>
</event>
<event>
 6    1  0.1817112E-005  0.2541837E+04  0.7818608E-02  0.8388231E-01
         -2   -1    0    0    0  501 -0.00000000000E+00  0.00000000000E+00  0.65496145259E+03  0.65496145259E+03  0.00000000000E+00 0.  1.
          2   -1    0    0  501    0  0.00000000000E+00 -0.00000000000E+00 -0.24661513841E+04  0.24661513841E+04  0.00000000000E+00 0. -1.
         23    2    1    2    0    0  0.44276090153E+03 -0.25237915578E+03 -0.23341617472E+04  0.23908854924E+04  0.91049007917E+02 0.  0.
         13    1    3    3    0    0  0.14182025575E+03 -0.86863591441E+02 -0.57780655111E+03  0.60126423389E+03  0.00000000000E+00 0. -1.
        -13    1    3    3    0    0  0.30094064578E+03 -0.16551556434E+03 -0.17563551961E+04  0.17896212586E+04  0.00000000000E+00 0.  1.
         22    1    1    2    0    0 -0.44276090153E+03  0.25237915578E+03  0.52297181570E+03  0.73022734420E+03  0.00000000000E+00 0.  1.
<mgrwt>
<rscale>  0 0.25418372E+04</rscale>
<asrwt>0</asrwt>
<pdfrwt beam="1">  1        2 0.37940791E+00 0.25418372E+04</pdfrwt>
<pdfrwt beam="2">  1       -2 0.10076330E+00 0.25418372E+04</pdfrwt>
<totfact> 0.26252690E+00</totfact>
</mgrwt>
</event>
<event>
 6    1  0.1817112E-005  0.1557742E+04  0.7818608E-02  0.8846937E-01
         -2   -1    0    0    0  501 -0.00000000000E+00  0.00000000000E+00  0.24066555615E+03  0.24066555615E+03  0.00000000000E+00 0.  1.
          2   -1    0    0  501    0  0.00000000000E+00 -0.00000000000E+00 -0.25206777047E+04  0.25206777047E+04  0.00000000000E+00 0. -1.
         23    2    1    2    0    0 -0.54328279096E+03 -0.51426522784E+03 -0.15110596805E+04  0.16885372142E+04  0.90728442813E+02 0.  0.
         13    1    3    3    0    0 -0.44176491755E+03 -0.38231159523E+03 -0.12338477982E+04  0.13651735375E+04  0.00000000000E+00 0.  1.
        -13    1    3    3    0    0 -0.10151787341E+03 -0.13195363261E+03 -0.27721188224E+03  0.32336367674E+03  0.00000000000E+00 0. -1.
         22    1    1    2    0    0  0.54328279096E+03  0.51426522784E+03 -0.76895246805E+03  0.10728060466E+04  0.00000000000E+00 0.  1.
<mgrwt>
<rscale>  0 0.15577423E+04</rscale>
<asrwt>0</asrwt>
<pdfrwt beam="1">  1        2 0.38779656E+00 0.15577423E+04</pdfrwt>
<pdfrwt beam="2">  1       -2 0.37025471E-01 0.15577423E+04</pdfrwt>
<totfact> 0.22450801E+01</totfact>
</mgrwt>
</event>
<event>
 6    1  0.1817112E-005  0.3291252E+03  0.7818608E-02  0.1071525E+00
         -2   -1    0    0    0  501 -0.00000000000E+00  0.00000000000E+00  0.44817927584E+02  0.44817927584E+02  0.00000000000E+00 0.  1.
          2   -1    0    0  501    0  0.00000000000E+00 -0.00000000000E+00 -0.60424161615E+03  0.60424161615E+03  0.00000000000E+00 0. -1.
         23    2    1    2    0    0 -0.61830988134E+02  0.12913554526E+03 -0.40225057921E+03  0.43645087399E+03  0.90469756234E+02 0.  0.
         13    1    3    3    0    0 -0.60391133571E+02  0.11485849081E+03 -0.40164570280E+03  0.42208865479E+03  0.00000000000E+00 0. -1.
        -13    1    3    3    0    0 -0.14398545634E+01  0.14277054448E+02 -0.60487640532E+00  0.14362219200E+02  0.00000000000E+00 0.  1.
         22    1    1    2    0    0  0.61830988134E+02 -0.12913554526E+03 -0.15717310935E+03  0.21260866974E+03  0.00000000000E+00 0.  1.
<mgrwt>
<rscale>  0 0.32912525E+03</rscale>
<asrwt>0</asrwt>
<pdfrwt beam="1">  1        2 0.92960238E-01 0.32912525E+03</pdfrwt>
<pdfrwt beam="2">  1       -2 0.68950666E-02 0.32912525E+03</pdfrwt>
<totfact> 0.59851307E+03</totfact>
</mgrwt>
</event>
<event>
 6    1  0.1817112E-005  0.3915117E+04  0.7818608E-02  0.8021892E-01
          2   -1    0    0  501    0  0.00000000000E+00  0.00000000000E+00  0.36227567979E+04  0.36227567979E+04  0.00000000000E+00 0. -1.
         -2   -1    0    0    0  501 -0.00000000000E+00 -0.00000000000E+00 -0.10577678501E+04  0.10577678501E+04  0.00000000000E+00 0.  1.
         23    2    1    2    0    0 -0.11191683122E+04 -0.96047632108E+03  0.28200336393E+04  0.31838281962E+04  0.95497547810E+02 0.  0.
         13    1    3    3    0    0 -0.79595868164E+03 -0.64904628418E+03  0.20374669412E+04  0.22816842109E+04  0.00000000000E+00 0. -1.
        -13    1    3    3    0    0 -0.32320963052E+03 -0.31143003689E+03  0.78256669812E+03  0.90214398526E+03  0.00000000000E+00 0.  1.
         22    1    1    2    0    0  0.11191683122E+04  0.96047632108E+03 -0.25504469142E+03  0.14966964518E+04  0.00000000000E+00 0.  1.
<mgrwt>
<rscale>  0 0.39151172E+04</rscale>
<asrwt>0</asrwt>
<pdfrwt beam="1">  1        2 0.55734719E+00 0.39151172E+04</pdfrwt>
<pdfrwt beam="2">  1       -2 0.16273352E+00 0.39151172E+04</pdfrwt>
<totfact> 0.12671063E-01</totfact>
</mgrwt>
</event>
<event>
 6    1  0.1817112E-005  0.8286214E+03  0.7818608E-02  0.9519488E-01
          2   -1    0    0  501    0  0.00000000000E+00  0.00000000000E+00  0.64974831434E+03  0.64974831434E+03  0.00000000000E+00 0. -1.
         -2   -1    0    0    0  501 -0.00000000000E+00 -0.00000000000E+00 -0.26418437170E+03  0.26418437170E+03  0.00000000000E+00 0.  1.
         23    2    1    2    0    0  0.84853118767E+02 -0.39402684386E+03  0.27573071494E+03  0.49617612612E+03  0.87784483413E+02 0.  0.
         11    1    3    3    0    0  0.84908526055E+02 -0.18585113375E+03  0.13773016815E+03  0.24641367847E+03  0.00000000000E+00 0.  1.
        -11    1    3    3    0    0 -0.55407288608E-01 -0.20817571011E+03  0.13800054678E+03  0.24976244766E+03  0.00000000000E+00 0. -1.
         22    1    1    2    0    0 -0.84853118767E+02  0.39402684386E+03  0.10983322770E+03  0.41775655992E+03  0.00000000000E+00 0. -1.
<mgrwt>
<rscale>  0 0.82862139E+03</rscale>
<asrwt>0</asrwt>
<pdfrwt beam="1">  1        2 0.99961278E-01 0.82862139E+03</pdfrwt>
<pdfrwt beam="2">  1       -2 0.40643750E-01 0.82862139E+03</pdfrwt>
<totfact> 0.25915496E+02</totfact>
</mgrwt>
</event>
<event>
 6    1  0.1817112E-005  0.2020454E+04  0.7818608E-02  0.8597117E-01
          2   -1    0    0  501    0  0.00000000000E+00  0.00000000000E+00  0.21582483513E+04  0.21582483513E+04  0.00000000000E+00 0.  1.
         -2   -1    0    0    0  501 -0.00000000000E+00 -0.00000000000E+00 -0.47286448081E+03  0.47286448081E+03  0.00000000000E+00 0. -1.
         23    2    1    2    0    0  0.99846448411E+03  0.36045853259E+02  0.66817522598E+03  0.12052993604E+04  0.89765171782E+02 0.  0.
         11    1    3    3    0    0  0.82209294720E+03  0.58279871284E+01  0.51804891588E+03  0.97172293300E+03  0.00000000000E+00 0. -1.
        -11    1    3    3    0    0  0.17637153690E+03  0.30217866131E+02  0.15012631010E+03  0.23357642742E+03  0.00000000000E+00 0.  1.
         22    1    1    2    0    0 -0.99846448411E+03 -0.36045853259E+02  0.10172086445E+04  0.14258134717E+04  0.00000000000E+00 0.  1.
<mgrwt>
<rscale>  0 0.20204544E+04</rscale>
<asrwt>0</asrwt>
<pdfrwt beam="1">  1        2 0.33203820E+00 0.20204544E+04</pdfrwt>
<pdfrwt beam="2">  1       -2 0.72748383E-01 0.20204544E+04</pdfrwt>
<totfact> 0.86355806E+00</totfact>
</mgrwt>
</event>
<event>
 6    1  0.1817112E-005  0.3199608E+04  0.7818608E-02  0.8188921E-01
         -1   -1    0    0    0  501 -0.00000000000E+00  0.00000000000E+00  0.71497763852E+03  0.71497763852E+03  0.00000000000E+00 0.  1.
          1   -1    0    0  501    0  0.00000000000E+00 -0.00000000000E+00 -0.35796547665E+04  0.35796547665E+04  0.00000000000E+00 0. -1.
         23    2    1    2    0    0  0.77243695836E+03  0.93154899695E+03 -0.28349275508E+04  0.30841253106E+04  0.10282181057E+03 0.  0.
         13    1    3    3    0    0  0.21694443403E+03  0.22293839296E+03 -0.82671955628E+03  0.88330721680E+03  0.00000000000E+00 0. -1.
        -13    1    3    3    0    0  0.55549252433E+03  0.70861060399E+03 -0.20082079946E+04  0.22008180938E+04  0.00000000000E+00 0.  1.
         22    1    1    2    0    0 -0.77243695836E+03 -0.93154899695E+03 -0.29749577192E+02  0.12105070944E+04  0.00000000000E+00 0.  1.
<mgrwt>
<rscale>  0 0.31996082E+04</rscale>
<asrwt>0</asrwt>
<pdfrwt beam="1">  1        1 0.55071610E+00 0.31996082E+04</pdfrwt>
<pdfrwt beam="2">  1       -1 0.10999656E+00 0.31996082E+04</pdfrwt>
<totfact> 0.13774281E-01</totfact>
</mgrwt>
</event>
<event>
 6    1  0.2261431E-005  0.6184592E+04  0.7818608E-02  0.7667927E-01
          2   -1    0    0  501    0  0.00000000000E+00  0.00000000000E+00  0.24327637437E+04  0.24327637437E+04  0.00000000000E+00 0. -1.
         -2   -1    0    0    0  501 -0.00000000000E+00 -0.00000000000E+00 -0.39306306209E+04  0.39306306209E+04  0.00000000000E+00 0.  1.
         23    2    1    2    0    0 -0.87618678807E+03 -0.18998103048E+04  0.15929813072E+04  0.26310593072E+04  0.88888417884E+02 0.  0.
         11    1    3    3    0    0 -0.55326133433E+03 -0.11011713877E+04  0.91920245497E+03  0.15374035522E+04  0.00000000000E+00 0.  1.
        -11    1    3    3    0    0 -0.32292545375E+03 -0.79863891707E+03  0.67377885224E+03  0.10936557549E+04  0.00000000000E+00 0. -1.
         22    1    1    2    0    0  0.87618678807E+03  0.18998103048E+04 -0.30908481844E+04  0.37323350575E+04  0.00000000000E+00 0.  1.
<mgrwt>
<rscale>  0 0.61845924E+04</rscale>
<asrwt>0</asrwt>
<pdfrwt beam="1">  1        2 0.37427135E+00 0.61845924E+04</pdfrwt>
<pdfrwt beam="2">  1       -2 0.60471239E+00 0.61845924E+04</pdfrwt>
<totfact> 0.12576903E-03</totfact>
</mgrwt>
</event>
<event>
 6    1  0.1817112E-005  0.1929090E+04  0.7818608E-02  0.8640510E-01
          2   -1    0    0  501    0  0.00000000000E+00  0.00000000000E+00  0.29262878756E+04  0.29262878756E+04  0.00000000000E+00 0. -1.
         -2   -1    0    0    0  501 -0.00000000000E+00 -0.00000000000E+00 -0.31792743745E+03  0.31792743745E+03  0.00000000000E+00 0.  1.
         23    2    1    2    0    0  0.43052920911E+03  0.85464007207E+03  0.11375899434E+04  0.14895270499E+04  0.93887700665E+02 0.  0.
         11    1    3    3    0    0  0.20964103457E+03  0.40786783889E+03  0.47293354461E+03  0.65876526547E+03  0.00000000000E+00 0.  1.
        -11    1    3    3    0    0  0.22088817454E+03  0.44677223317E+03  0.66465639875E+03  0.83076178438E+03  0.00000000000E+00 0. -1.
         22    1    1    2    0    0 -0.43052920911E+03 -0.85464007207E+03  0.14707704948E+04  0.17546882632E+04  0.00000000000E+00 0. -1.
<mgrwt>
<rscale>  0 0.19290902E+04</rscale>
<asrwt>0</asrwt>
<pdfrwt beam="1">  1        2 0.45019812E+00 0.19290902E+04</pdfrwt>
<pdfrwt beam="2">  1       -2 0.48911915E-01 0.19290902E+04</pdfrwt>
<totfact> 0.71749721E+00</totfact>
</mgrwt>
</event>
<event>
 6    1  0.1817112E-005  0.1629967E+04  0.7818608E-02  0.8802347E-01
         -2   -1    0    0    0  501 -0.00000000000E+00  0.00000000000E+00  0.27534594902E+03  0.27534594902E+03  0.00000000000E+00 0.  1.
          2   -1    0    0  501    0  0.00000000000E+00 -0.00000000000E+00 -0.24122323969E+04  0.24122323969E+04  0.00000000000E+00 0. -1.
         23    2    1    2    0    0 -0.26549271742E+03 -0.75671340690E+03 -0.85689525654E+03  0.11771217881E+04  0.90800110726E+02 0.  0.
         13    1    3    3    0    0 -0.42930186316E+02 -0.14708698307E+03 -0.21770293339E+03  0.26621823509E+03  0.00000000000E+00 0. -1.
        -13    1    3    3    0    0 -0.22256253110E+03 -0.60962642383E+03 -0.63919232315E+03  0.91090355299E+03  0.00000000000E+00 0.  1.
         22    1    1    2    0    0  0.26549271742E+03  0.75671340690E+03 -0.12799911913E+04  0.15104565578E+04  0.00000000000E+00 0. -1.
<mgrwt>
<rscale>  0 0.16299674E+04</rscale>
<asrwt>0</asrwt>
<pdfrwt beam="1">  1        2 0.37111269E+00 0.16299674E+04</pdfrwt>
<pdfrwt beam="2">  1       -2 0.42360913E-01 0.16299674E+04</pdfrwt>
<totfact> 0.19799397E+01</totfact>
</mgrwt>
</event>
<event>
 6    1  0.1817112E-005  0.9160073E+03  0.7818608E-02  0.9405790E-01
         -2   -1    0    0    0  501 -0.00000000000E+00  0.00000000000E+00  0.92158487426E+02  0.92158487426E+02  0.00000000000E+00 0.  1.
          2   -1    0    0  501    0  0.00000000000E+00 -0.00000000000E+00 -0.22761588174E+04  0.22761588174E+04  0.00000000000E+00 0. -1.
         23    2    1    2    0    0 -0.17495218858E+03 -0.26128860254E+03 -0.19473274351E+04  0.19747514765E+04  0.93162503883E+02 0.  0.
         11    1    3    3    0    0 -0.10208022001E+03 -0.93677951767E+02 -0.10410153477E+04  0.10501946887E+04  0.00000000000E+00 0. -1.
        -11    1    3    3    0    0 -0.72871968575E+02 -0.16761065078E+03 -0.90631208739E+03  0.92455678777E+03  0.00000000000E+00 0.  1.
         22    1    1    2    0    0  0.17495218858E+03  0.26128860254E+03 -0.23667289490E+03  0.39356582841E+03  0.00000000000E+00 0.  1.
<mgrwt>
<rscale>  0 0.91600732E+03</rscale>
<asrwt>0</asrwt>
<pdfrwt beam="1">  1        2 0.35017830E+00 0.91600732E+03</pdfrwt>
<pdfrwt beam="2">  1       -2 0.14178228E-01 0.91600732E+03</pdfrwt>
<totfact> 0.18311547E+02</totfact>
</mgrwt>
</event>
<event>
 6    1  0.1817112E-005  0.2947921E+04  0.7818608E-02  0.8258761E-01
          2   -1    0    0  501    0  0.00000000000E+00  0.00000000000E+00  0.20621275573E+04  0.20621275573E+04  0.00000000000E+00 0.  1.
         -2   -1    0    0    0  501 -0.00000000000E+00 -0.00000000000E+00 -0.10535522383E+04  0.10535522383E+04  0.00000000000E+00 0. -1.
         23    2    1    2    0    0  0.12748795664E+04 -0.25126788985E+03 -0.22744048504E+03  0.13223062904E+04  0.91166278148E+02 0.  0.
         11    1    3    3    0    0  0.10288789052E+04 -0.19048027353E+03 -0.14819788223E+03  0.10568051611E+04  0.00000000000E+00 0. -1.
        -11    1    3    3    0    0  0.24600066119E+03 -0.60787616325E+02 -0.79242602804E+02  0.26550112938E+03  0.00000000000E+00 0.  1.
         22    1    1    2    0    0 -0.12748795664E+04  0.25126788985E+03  0.12360158040E+04  0.17933735051E+04  0.00000000000E+00 0.  1.
<mgrwt>
<rscale>  0 0.29479207E+04</rscale>
<asrwt>0</asrwt>
<pdfrwt beam="1">  1        2 0.31725039E+00 0.29479207E+04</pdfrwt>
<pdfrwt beam="2">  1       -2 0.16208496E+00 0.29479207E+04</pdfrwt>
<totfact> 0.12895625E+00</totfact>
</mgrwt>
</event>
<event>
 6    1  0.1817112E-005  0.2126682E+04  0.7818608E-02  0.8549580E-01
         -2   -1    0    0    0  501 -0.00000000000E+00  0.00000000000E+00  0.12897861094E+04  0.12897861094E+04  0.00000000000E+00 0.  1.
          2   -1    0    0  501    0  0.00000000000E+00 -0.00000000000E+00 -0.87665229990E+03  0.87665229990E+03  0.00000000000E+00 0. -1.
         23    2    1    2    0    0  0.54131543685E+03  0.75103907359E+03 -0.32181983052E+03  0.98438978712E+03  0.91504958598E+02 0.  0.
         11    1    3    3    0    0  0.86219734776E+02  0.87712183760E+02 -0.69712197354E+02  0.14137560010E+03  0.00000000000E+00 0. -1.
        -11    1    3    3    0    0  0.45509570207E+03  0.66332688983E+03 -0.25210763317E+03  0.84301418702E+03  0.00000000000E+00 0.  1.
         22    1    1    2    0    0 -0.54131543685E+03 -0.75103907359E+03  0.73495364005E+03  0.11820486222E+04  0.00000000000E+00 0.  1.
<mgrwt>
<rscale>  0 0.21266819E+04</rscale>
<asrwt>0</asrwt>
<pdfrwt beam="1">  1        2 0.13486958E+00 0.21266819E+04</pdfrwt>
<pdfrwt beam="2">  1       -2 0.19842863E+00 0.21266819E+04</pdfrwt>
<totfact> 0.38082061E+00</totfact>
</mgrwt>
</event>
<event>
 6    1  0.1817112E-005  0.4324047E+04  0.7818608E-02  0.7942186E-01
          2   -1    0    0  501    0  0.00000000000E+00  0.00000000000E+00  0.19919339661E+04  0.19919339661E+04  0.00000000000E+00 0. -1.
         -2   -1    0    0    0  501 -0.00000000000E+00 -0.00000000000E+00 -0.23466370983E+04  0.23466370983E+04  0.00000000000E+00 0.  1.
         23    2    1    2    0    0  0.90597114223E+03  0.11878567801E+04  0.13893417013E+04  0.20421652158E+04  0.91547611721E+02 0.  0.
         11    1    3    3    0    0  0.67240591229E+03  0.88277091973E+03  0.10853694928E+04  0.15522374636E+04  0.00000000000E+00 0.  1.
        -11    1    3    3    0    0  0.23356522994E+03  0.30508586038E+03  0.30397220845E+03  0.48992775217E+03  0.00000000000E+00 0. -1.
         22    1    1    2    0    0 -0.90597114223E+03 -0.11878567801E+04 -0.17440448334E+04  0.22964058486E+04  0.00000000000E+00 0.  1.
<mgrwt>
<rscale>  0 0.43240472E+04</rscale>
<asrwt>0</asrwt>
<pdfrwt beam="1">  1        2 0.30645138E+00 0.43240472E+04</pdfrwt>
<pdfrwt beam="2">  1       -2 0.36102109E+00 0.43240472E+04</pdfrwt>
<totfact> 0.68723380E-02</totfact>
</mgrwt>
</event>
<event>
 6    1  0.1817112E-005  0.2255691E+04  0.7818608E-02  0.8495599E-01
          2   -1    0    0  501    0  0.00000000000E+00  0.00000000000E+00  0.14615791886E+04  0.14615791886E+04  0.00000000000E+00 0. -1.
         -2   -1    0    0    0  501 -0.00000000000E+00 -0.00000000000E+00 -0.87031609660E+03  0.87031609660E+03  0.00000000000E+00 0.  1.
         23    2    1    2    0    0  0.35381458703E+03 -0.77118182451E+03  0.10613182545E+04  0.13619169224E+04  0.92277286632E+02 0.  0.
         11    1    3    3    0    0  0.27483665139E+02 -0.10381645424E+03  0.17637664867E+03  0.20649922570E+03  0.00000000000E+00 0. -1.
        -11    1    3    3    0    0  0.32633092189E+03 -0.66736537028E+03  0.88494160583E+03  0.11554176967E+04  0.00000000000E+00 0.  1.
         22    1    1    2    0    0 -0.35381458703E+03  0.77118182451E+03 -0.47005516254E+03  0.96997836279E+03  0.00000000000E+00 0.  1.
<mgrwt>
<rscale>  0 0.22556914E+04</rscale>
<asrwt>0</asrwt>
<pdfrwt beam="1">  1        2 0.22485834E+00 0.22556914E+04</pdfrwt>
<pdfrwt beam="2">  1       -2 0.13389478E+00 0.22556914E+04</pdfrwt>
<totfact> 0.48934376E+00</totfact>
</mgrwt>
</event>
<event>
 6    1  0.1817112E-005  0.3065580E+04  0.7818608E-02  0.8225248E-01
          2   -1    0    0  501    0  0.00000000000E+00  0.00000000000E+00  0.39151341408E+04  0.39151341408E+04  0.00000000000E+00 0. -1.
         -2   -1    0    0    0  501 -0.00000000000E+00 -0.00000000000E+00 -0.60009318268E+03  0.60009318268E+03  0.00000000000E+00 0.  1.
         23    2    1    2    0    0 -0.65443898999E+03 -0.96644947187E+03  0.19877080371E+03  0.11875472534E+04  0.91889462946E+02 0.  0.
         11    1    3    3    0    0 -0.22560140396E+03 -0.38608001850E+03  0.10998409515E+03  0.46048916962E+03  0.00000000000E+00 0.  1.
        -11    1    3    3    0    0 -0.42883758603E+03 -0.58036945338E+03  0.88786708553E+02  0.72705808380E+03  0.00000000000E+00 0. -1.
         22    1    1    2    0    0  0.65443898999E+03  0.96644947187E+03  0.31162701544E+04  0.33276800700E+04  0.00000000000E+00 0. -1.
<mgrwt>
<rscale>  0 0.30655801E+04</rscale>
<asrwt>0</asrwt>
<pdfrwt beam="1">  1        2 0.60232831E+00 0.30655801E+04</pdfrwt>
<pdfrwt beam="2">  1       -2 0.92322030E-01 0.30655801E+04</pdfrwt>
<totfact> 0.33892102E-01</totfact>
</mgrwt>
</event>
<event>
 6    1  0.1817112E-005  0.1404429E+04  0.7818608E-02  0.8950619E-01
          2   -1    0    0  501    0  0.00000000000E+00  0.00000000000E+00  0.11828255535E+04  0.11828255535E+04  0.00000000000E+00 0. -1.
         -2   -1    0    0    0  501 -0.00000000000E+00 -0.00000000000E+00 -0.41688767307E+03  0.41688767307E+03  0.00000000000E+00 0.  1.
         23    2    1    2    0    0 -0.26839878012E+03 -0.63750501063E+03  0.26847997371E+03  0.74770682242E+03  0.92376686845E+02 0.  0.
         11    1    3    3    0    0 -0.20137790901E+03 -0.36195871084E+03  0.16401036311E+03  0.44549586956E+03  0.00000000000E+00 0. -1.
        -11    1    3    3    0    0 -0.67020871109E+02 -0.27554629979E+03  0.10446961060E+03  0.30221095286E+03  0.00000000000E+00 0.  1.
         22    1    1    2    0    0  0.26839878012E+03  0.63750501063E+03  0.49745790673E+03  0.85200640415E+03  0.00000000000E+00 0. -1.
<mgrwt>
<rscale>  0 0.14044293E+04</rscale>
<asrwt>0</asrwt>
<pdfrwt beam="1">  1        2 0.18197316E+00 0.14044293E+04</pdfrwt>
<pdfrwt beam="2">  1       -2 0.64136566E-01 0.14044293E+04</pdfrwt>
<totfact> 0.42403787E+01</totfact>
</mgrwt>
</event>
<event>
 6    1  0.2651866E-005  0.3542553E+04  0.7818608E-02  0.8103779E-01
         -1   -1    0    0    0  501 -0.00000000000E+00  0.00000000000E+00  0.13837566615E+04  0.13837566615E+04  0.00000000000E+00 0.  1.
          1   -1    0    0  501    0  0.00000000000E+00 -0.00000000000E+00 -0.22673211744E+04  0.22673211744E+04  0.00000000000E+00 0. -1.
         23    2    1    2    0    0  0.25226215698E+03  0.35803682277E+03  0.13255131807E+04  0.13990008348E+04  0.91605573141E+02 0.  0.
         11    1    3    3    0    0  0.12640345979E+03  0.12982550293E+03  0.43761776433E+03  0.47364734088E+03  0.00000000000E+00 0. -1.
        -11    1    3    3    0    0  0.12585869719E+03  0.22821131984E+03  0.88789541641E+03  0.92535349389E+03  0.00000000000E+00 0.  1.
         22    1    1    2    0    0 -0.25226215698E+03 -0.35803682277E+03 -0.22090776937E+04  0.22520770011E+04  0.00000000000E+00 0. -1.
<mgrwt>
<rscale>  0 0.35425532E+04</rscale>
<asrwt>0</asrwt>
<pdfrwt beam="1">  1        1 0.34881864E+00 0.35425532E+04</pdfrwt>
<pdfrwt beam="2">  1       -1 0.21288564E+00 0.35425532E+04</pdfrwt>
<totfact> 0.19577696E-01</totfact>
</mgrwt>
</event>
<event>
 6    1  0.1817112E-005  0.2411842E+04  0.7818608E-02  0.8435083E-01
          2   -1    0    0  501    0  0.00000000000E+00  0.00000000000E+00  0.87673043230E+03  0.87673043230E+03  0.00000000000E+00 0. -1.
         -2   -1    0    0    0  501 -0.00000000000E+00 -0.00000000000E+00 -0.16587146332E+04  0.16587146332E+04  0.00000000000E+00 0.  1.
         23    2    1    2    0    0  0.10803744231E+04  0.41653772145E+03 -0.73926216240E+03  0.13767657569E+04  0.90900149635E+02 0.  0.
         13    1    3    3    0    0  0.92687046387E+03  0.33214243348E+03 -0.60018837367E+03  0.11530973666E+04  0.00000000000E+00 0. -1.
        -13    1    3    3    0    0  0.15350395925E+03  0.84395287972E+02 -0.13907378873E+03  0.22366839037E+03  0.00000000000E+00 0.  1.
         22    1    1    2    0    0 -0.10803744231E+04 -0.41653772145E+03 -0.42722038509E+02  0.11586793086E+04  0.00000000000E+00 0. -1.
<mgrwt>
<rscale>  0 0.24118421E+04</rscale>
<asrwt>0</asrwt>
<pdfrwt beam="1">  1        2 0.13488160E+00 0.24118421E+04</pdfrwt>
<pdfrwt beam="2">  1       -2 0.25518687E+00 0.24118421E+04</pdfrwt>
<totfact> 0.16313128E+00</totfact>
</mgrwt>
</event>
<event>
 6    1  0.1817112E-005  0.1966116E+04  0.7818608E-02  0.8622629E-01
         -2   -1    0    0    0  501 -0.00000000000E+00  0.00000000000E+00  0.54429488161E+03  0.54429488161E+03  0.00000000000E+00 0. -1.
          2   -1    0    0  501    0  0.00000000000E+00 -0.00000000000E+00 -0.17755130154E+04  0.17755130154E+04  0.00000000000E+00 0.  1.
         23    2    1    2    0    0  0.60847043715E+03  0.66485735071E+03 -0.10742869736E+04  0.14049860790E+04  0.87302982936E+02 0.  0.
         13    1    3    3    0    0  0.15758870730E+03  0.23188710063E+03 -0.33506092776E+03  0.43688860528E+03  0.00000000000E+00 0. -1.
        -13    1    3    3    0    0  0.45088172985E+03  0.43297025008E+03 -0.73922604581E+03  0.96809747369E+03  0.00000000000E+00 0.  1.
         22    1    1    2    0    0 -0.60847043715E+03 -0.66485735071E+03 -0.15693116019E+03  0.91482181802E+03  0.00000000000E+00 0. -1.
<mgrwt>
<rscale>  0 0.19661156E+04</rscale>
<asrwt>0</asrwt>
<pdfrwt beam="1">  1        2 0.27315585E+00 0.19661156E+04</pdfrwt>
<pdfrwt beam="2">  1       -2 0.83737672E-01 0.19661156E+04</pdfrwt>
<totfact> 0.10339428E+01</totfact>
</mgrwt>
</event>
<event>
 6    1  0.1817112E-005  0.4514576E+04  0.7818608E-02  0.7908090E-01
          2   -1    0    0  501    0  0.00000000000E+00  0.00000000000E+00  0.25036172750E+04  0.25036172750E+04  0.00000000000E+00 0. -1.
         -2   -1    0    0    0  501 -0.00000000000E+00 -0.00000000000E+00 -0.20351946885E+04  0.20351946885E+04  0.00000000000E+00 0.  1.
         23    2    1    2    0    0 -0.93319533449E+03  0.12186194937E+04 -0.14289595202E+04  0.20983313014E+04  0.71985675240E+02 0.  0.
         11    1    3    3    0    0 -0.16621820093E+03  0.24661457549E+03 -0.30745210082E+03  0.42775464166E+03  0.00000000000E+00 0.  1.
        -11    1    3    3    0    0 -0.76697713356E+03  0.97200491826E+03 -0.11215074194E+04  0.16705766598E+04  0.00000000000E+00 0. -1.
         22    1    1    2    0    0  0.93319533449E+03 -0.12186194937E+04  0.18973821067E+04  0.24404806620E+04  0.00000000000E+00 0. -1.
<mgrwt>
<rscale>  0 0.45145758E+04</rscale>
<asrwt>0</asrwt>
<pdfrwt beam="1">  1        2 0.38517189E+00 0.45145758E+04</pdfrwt>
<pdfrwt beam="2">  1       -2 0.31310687E+00 0.45145758E+04</pdfrwt>
<totfact> 0.69235079E-02</totfact>
</mgrwt>
</event>
<event>
 6    1  0.1817112E-005  0.4886792E+04  0.7818608E-02  0.7846212E-01
          2   -1    0    0  501    0  0.00000000000E+00  0.00000000000E+00  0.27827804992E+04  0.27827804992E+04  0.00000000000E+00 0. -1.
         -2   -1    0    0    0  501 -0.00000000000E+00 -0.00000000000E+00 -0.21454025789E+04  0.21454025789E+04  0.00000000000E+00 0.  1.
         23    2    1    2    0    0  0.80245699425E+03  0.22669369331E+04  0.75045331355E+03  0.25207515981E+04  0.89822920359E+02 0.  0.
         13    1    3    3    0    0  0.20570563193E+03  0.67005235538E+03  0.24810614593E+03  0.74353320411E+03  0.00000000000E+00 0.  1.
        -13    1    3    3    0    0  0.59675136232E+03  0.15968845777E+04  0.50234716762E+03  0.17772183940E+04  0.00000000000E+00 0. -1.
         22    1    1    2    0    0 -0.80245699425E+03 -0.22669369331E+04 -0.11307539319E+03  0.24074314800E+04  0.00000000000E+00 0. -1.
<mgrwt>
<rscale>  0 0.48867922E+04</rscale>
<asrwt>0</asrwt>
<pdfrwt beam="1">  1        2 0.42812007E+00 0.48867922E+04</pdfrwt>
<pdfrwt beam="2">  1       -2 0.33006194E+00 0.48867922E+04</pdfrwt>
<totfact> 0.36080245E-02</totfact>
</mgrwt>
</event>
<event>
 6    1  0.1817112E-005  0.1742996E+04  0.7818608E-02  0.8737215E-01
         -2   -1    0    0    0  501 -0.00000000000E+00  0.00000000000E+00  0.11366026004E+04  0.11366026004E+04  0.00000000000E+00 0.  1.
          2   -1    0    0  501    0  0.00000000000E+00 -0.00000000000E+00 -0.66822693042E+03  0.66822693042E+03  0.00000000000E+00 0. -1.
         23    2    1    2    0    0 -0.81936917097E+03  0.27482133675E+03  0.32873341893E+03  0.92939103287E+03  0.93858541355E+02 0.  0.
         13    1    3    3    0    0 -0.37953097139E+03  0.12445565086E+03  0.10212291410E+03  0.41226454717E+03  0.00000000000E+00 0. -1.
        -13    1    3    3    0    0 -0.43983819958E+03  0.15036568589E+03  0.22661050483E+03  0.51712648569E+03  0.00000000000E+00 0.  1.
         22    1    1    2    0    0  0.81936917097E+03 -0.27482133675E+03  0.13964225107E+03  0.87543849798E+03  0.00000000000E+00 0.  1.
<mgrwt>
<rscale>  0 0.17429957E+04</rscale>
<asrwt>0</asrwt>
<pdfrwt beam="1">  1        2 0.10280414E+00 0.17429957E+04</pdfrwt>
<pdfrwt beam="2">  1       -2 0.17486194E+00 0.17429957E+04</pdfrwt>
<totfact> 0.81061501E+00</totfact>
</mgrwt>
</event>
<event>
 6    1  0.1817112E-005  0.1632710E+04  0.7818608E-02  0.8800701E-01
         -2   -1    0    0    0  501 -0.00000000000E+00  0.00000000000E+00  0.64163549407E+03  0.64163549407E+03  0.00000000000E+00 0.  1.
          2   -1    0    0  501    0  0.00000000000E+00 -0.00000000000E+00 -0.10386513588E+04  0.10386513588E+04  0.00000000000E+00 0. -1.
         23    2    1    2    0    0  0.45038873178E+03 -0.45456888509E+03 -0.71667800084E+03  0.96497799486E+03  0.89845938579E+02 0.  0.
         11    1    3    3    0    0  0.20147402686E+03 -0.16457805388E+03 -0.23932336844E+03  0.35348747361E+03  0.00000000000E+00 0.  1.
        -11    1    3    3    0    0  0.24891470493E+03 -0.28999083122E+03 -0.47735463239E+03  0.61149052125E+03  0.00000000000E+00 0. -1.
         22    1    1    2    0    0 -0.45038873178E+03  0.45456888509E+03  0.31966213613E+03  0.71530885797E+03  0.00000000000E+00 0.  1.
<mgrwt>
<rscale>  0 0.16327101E+04</rscale>
<asrwt>0</asrwt>
<pdfrwt beam="1">  1        2 0.15979252E+00 0.16327101E+04</pdfrwt>
<pdfrwt beam="2">  1       -2 0.98713153E-01 0.16327101E+04</pdfrwt>
<totfact> 0.19391370E+01</totfact>
</mgrwt>
</event>
<event>
 6    1  0.1817112E-005  0.8682108E+03  0.7818608E-02  0.9466216E-01
          2   -1    0    0  501    0  0.00000000000E+00  0.00000000000E+00  0.17759085364E+03  0.17759085364E+03  0.00000000000E+00 0. -1.
         -2   -1    0    0    0  501 -0.00000000000E+00 -0.00000000000E+00 -0.10611329535E+04  0.10611329535E+04  0.00000000000E+00 0.  1.
         23    2    1    2    0    0 -0.58944590694E+02  0.40048971937E+03 -0.65296884716E+03  0.77285847793E+03  0.84115583873E+02 0.  0.
         13    1    3    3    0    0 -0.47068619672E+02  0.37453005734E+03 -0.63618502424E+03  0.73974293094E+03  0.00000000000E+00 0. -1.
        -13    1    3    3    0    0 -0.11875971022E+02  0.25959662028E+02 -0.16783822916E+02  0.33115546983E+02  0.00000000000E+00 0.  1.
         22    1    1    2    0    0  0.58944590694E+02 -0.40048971937E+03 -0.23057325268E+03  0.46586532919E+03  0.00000000000E+00 0. -1.
<mgrwt>
<rscale>  0 0.86821082E+03</rscale>
<asrwt>0</asrwt>
<pdfrwt beam="1">  1        2 0.27321670E-01 0.86821082E+03</pdfrwt>
<pdfrwt beam="2">  1       -2 0.16325122E+00 0.86821082E+03</pdfrwt>
<totfact> 0.47452687E+01</totfact>
</mgrwt>
</event>
<event>
 6    1  0.2034286E-005  0.3777134E+04  0.7818608E-02  0.8051080E-01
         -2   -1    0    0    0  501 -0.00000000000E+00  0.00000000000E+00  0.19724978373E+04  0.19724978373E+04  0.00000000000E+00 0.  1.
          2   -1    0    0  501    0  0.00000000000E+00 -0.00000000000E+00 -0.18082076859E+04  0.18082076859E+04  0.00000000000E+00 0. -1.
         23    2    1    2    0    0 -0.67175285544E+03  0.83961290757E+03 -0.14705295241E+04  0.18239640726E+04  0.90477198396E+02 0.  0.
         13    1    3    3    0    0 -0.27438996803E+03  0.30810883953E+03 -0.50003806040E+03  0.64827384137E+03  0.00000000000E+00 0. -1.
        -13    1    3    3    0    0 -0.39736288740E+03  0.53150406804E+03 -0.97049146368E+03  0.11756902312E+04  0.00000000000E+00 0.  1.
         22    1    1    2    0    0  0.67175285544E+03 -0.83961290757E+03  0.16348196755E+04  0.19567414506E+04  0.00000000000E+00 0.  1.
<mgrwt>
<rscale>  0 0.37771342E+04</rscale>
<asrwt>0</asrwt>
<pdfrwt beam="1">  1        2 0.27818580E+00 0.37771342E+04</pdfrwt>
<pdfrwt beam="2">  1       -2 0.30346121E+00 0.37771342E+04</pdfrwt>
<totfact> 0.20761303E-01</totfact>
</mgrwt>
</event>
<event>
 6    1  0.1817112E-005  0.1645644E+04  0.7818608E-02  0.8792987E-01
          2   -1    0    0  501    0  0.00000000000E+00  0.00000000000E+00  0.19920327540E+04  0.19920327540E+04  0.00000000000E+00 0. -1.
         -2   -1    0    0    0  501 -0.00000000000E+00 -0.00000000000E+00 -0.33987214137E+03  0.33987214137E+03  0.00000000000E+00 0.  1.
         23    2    1    2    0    0 -0.10731471840E+03 -0.73309350212E+03  0.33135866802E+03  0.81748741378E+03  0.97696331473E+02 0.  0.
         13    1    3    3    0    0 -0.78723855993E+02 -0.24805554288E+03  0.13773799096E+03  0.29444991426E+03  0.00000000000E+00 0. -1.
        -13    1    3    3    0    0 -0.28590862406E+02 -0.48503795924E+03  0.19362067706E+03  0.52303749952E+03  0.00000000000E+00 0.  1.
         22    1    1    2    0    0  0.10731471840E+03  0.73309350212E+03  0.13208019446E+04  0.15144174815E+04  0.00000000000E+00 0.  1.
<mgrwt>
<rscale>  0 0.16456445E+04</rscale>
<asrwt>0</asrwt>
<pdfrwt beam="1">  1        2 0.30646657E+00 0.16456445E+04</pdfrwt>
<pdfrwt beam="2">  1       -2 0.52288023E-01 0.16456445E+04</pdfrwt>
<totfact> 0.22270327E+01</totfact>
</mgrwt>
</event>
<event>
 6    1  0.1817112E-005  0.1675625E+04  0.7818608E-02  0.8775390E-01
          1   -1    0    0  501    0  0.00000000000E+00  0.00000000000E+00  0.14741433729E+04  0.14741433729E+04  0.00000000000E+00 0. -1.
         -1   -1    0    0    0  501 -0.00000000000E+00 -0.00000000000E+00 -0.47616127119E+03  0.47616127119E+03  0.00000000000E+00 0.  1.
         23    2    1    2    0    0  0.36943414124E+03  0.22971642974E+03  0.13304771199E+04  0.14027608925E+04  0.91200504565E+02 0.  0.
         11    1    3    3    0    0  0.15483902940E+03  0.14988834344E+03  0.63814230666E+03  0.67354824926E+03  0.00000000000E+00 0.  1.
        -11    1    3    3    0    0  0.21459511183E+03  0.79828086303E+02  0.69233481328E+03  0.72921264324E+03  0.00000000000E+00 0. -1.
         22    1    1    2    0    0 -0.36943414124E+03 -0.22971642974E+03 -0.33249501820E+03  0.54754375161E+03  0.00000000000E+00 0.  1.
<mgrwt>
<rscale>  0 0.16756252E+04</rscale>
<asrwt>0</asrwt>
<pdfrwt beam="1">  1        1 0.22679129E+00 0.16756252E+04</pdfrwt>
<pdfrwt beam="2">  1       -1 0.73255581E-01 0.16756252E+04</pdfrwt>
<totfact> 0.12208911E+01</totfact>
</mgrwt>
</event>
<event>
 6    1  0.1817112E-005  0.3604073E+04  0.7818608E-02  0.8089559E-01
         -2   -1    0    0    0  501 -0.00000000000E+00  0.00000000000E+00  0.17637767838E+04  0.17637767838E+04  0.00000000000E+00 0.  1.
          2   -1    0    0  501    0  0.00000000000E+00 -0.00000000000E+00 -0.18411262158E+04  0.18411262158E+04  0.00000000000E+00 0. -1.
         23    2    1    2    0    0 -0.78761756756E+03  0.10601924901E+04  0.11858602871E+04  0.17773230853E+04  0.90902036462E+02 0.  0.
         13    1    3    3    0    0 -0.11327055805E+03  0.20648003331E+03  0.19385241053E+03  0.30502947488E+03  0.00000000000E+00 0. -1.
        -13    1    3    3    0    0 -0.67434700951E+03  0.85371245676E+03  0.99200787656E+03  0.14722936104E+04  0.00000000000E+00 0.  1.
         22    1    1    2    0    0  0.78761756756E+03 -0.10601924901E+04 -0.12632097191E+04  0.18275799143E+04  0.00000000000E+00 0. -1.
<mgrwt>
<rscale>  0 0.36040731E+04</rscale>
<asrwt>0</asrwt>
<pdfrwt beam="1">  1        2 0.28325019E+00 0.36040731E+04</pdfrwt>
<pdfrwt beam="2">  1       -2 0.27135027E+00 0.36040731E+04</pdfrwt>
<totfact> 0.31722149E-01</totfact>
</mgrwt>
</event>
<event>
 6    1  0.1817112E-005  0.1683605E+04  0.7818608E-02  0.8770771E-01
         -1   -1    0    0    0  501 -0.00000000000E+00  0.00000000000E+00  0.77860052352E+03  0.77860052352E+03  0.00000000000E+00 0.  1.
          1   -1    0    0  501    0  0.00000000000E+00 -0.00000000000E+00 -0.91013438345E+03  0.91013438345E+03  0.00000000000E+00 0. -1.
         23    2    1    2    0    0 -0.58296861870E+03 -0.51821826121E+03  0.24487991874E+03  0.82265759552E+03  0.91633881417E+02 0.  0.
         11    1    3    3    0    0 -0.16140252789E+03 -0.20078351682E+03  0.84102030287E+02  0.27099436919E+03  0.00000000000E+00 0.  1.
        -11    1    3    3    0    0 -0.42156609081E+03 -0.31743474440E+03  0.16077788845E+03  0.55166322633E+03  0.00000000000E+00 0. -1.
         22    1    1    2    0    0  0.58296861870E+03  0.51821826121E+03 -0.37641377866E+03  0.86607731145E+03  0.00000000000E+00 0.  1.
<mgrwt>
<rscale>  0 0.16836046E+04</rscale>
<asrwt>0</asrwt>
<pdfrwt beam="1">  1        1 0.14002067E+00 0.16836046E+04</pdfrwt>
<pdfrwt beam="2">  1       -1 0.11978470E+00 0.16836046E+04</pdfrwt>
<totfact> 0.10580348E+01</totfact>
</mgrwt>
</event>
<event>
 6    1  0.1817112E-005  0.7231785E+03  0.7818608E-02  0.9678395E-01
         -2   -1    0    0    0  501 -0.00000000000E+00  0.00000000000E+00  0.32187843649E+03  0.32187843649E+03  0.00000000000E+00 0.  1.
          2   -1    0    0  501    0  0.00000000000E+00 -0.00000000000E+00 -0.40619923795E+03  0.40619923795E+03  0.00000000000E+00 0. -1.
         23    2    1    2    0    0 -0.28163650392E+03 -0.31663994005E+02 -0.26026185096E+03  0.39449562793E+03  0.86999083507E+02 0.  0.
         11    1    3    3    0    0 -0.15340908154E+03 -0.40534139262E+02 -0.19159692079E+03  0.24877046208E+03  0.00000000000E+00 0.  1.
        -11    1    3    3    0    0 -0.12822742238E+03  0.88701452570E+01 -0.68664930173E+02  0.14572516585E+03  0.00000000000E+00 0. -1.
         22    1    1    2    0    0  0.28163650392E+03  0.31663994005E+02  0.17594104951E+03  0.33358204652E+03  0.00000000000E+00 0.  1.
<mgrwt>
<rscale>  0 0.72317847E+03</rscale>
<asrwt>0</asrwt>
<pdfrwt beam="1">  1        2 0.62492190E-01 0.72317847E+03</pdfrwt>
<pdfrwt beam="2">  1       -2 0.49519760E-01 0.72317847E+03</pdfrwt>
<totfact> 0.30428678E+02</totfact>
</mgrwt>
</event>
<event>
 6    1  0.1817112E-005  0.9947625E+03  0.7818608E-02  0.9314308E-01
          2   -1    0    0  501    0  0.00000000000E+00  0.00000000000E+00  0.13611410148E+04  0.13611410148E+04  0.00000000000E+00 0. -1.
         -2   -1    0    0    0  501 -0.00000000000E+00 -0.00000000000E+00 -0.18175053421E+03  0.18175053421E+03  0.00000000000E+00 0.  1.
         23    2    1    2    0    0 -0.21778956468E+03  0.24596425742E+03  0.11652416651E+04  0.12140589177E+04  0.90665358259E+02 0.  0.
         11    1    3    3    0    0 -0.11157403699E+03  0.10468159802E+03  0.39030035408E+03  0.41921518233E+03  0.00000000000E+00 0. -1.
        -11    1    3    3    0    0 -0.10621552769E+03  0.14128265940E+03  0.77494131103E+03  0.79484373540E+03  0.00000000000E+00 0.  1.
         22    1    1    2    0    0  0.21778956468E+03 -0.24596425742E+03  0.14148815470E+02  0.32883263127E+03  0.00000000000E+00 0.  1.
<mgrwt>
<rscale>  0 0.99476250E+03</rscale>
<asrwt>0</asrwt>
<pdfrwt beam="1">  1        2 0.20940630E+00 0.99476250E+03</pdfrwt>
<pdfrwt beam="2">  1       -2 0.27961622E-01 0.99476250E+03</pdfrwt>
<totfact> 0.17756690E+02</totfact>
</mgrwt>
</event>
<event>
 6    1  0.1817112E-005  0.7665026E+03  0.7818608E-02  0.9609810E-01
          2   -1    0    0  501    0  0.00000000000E+00  0.00000000000E+00  0.28970812587E+04  0.28970812587E+04  0.00000000000E+00 0. -1.
         -2   -1    0    0    0  501 -0.00000000000E+00 -0.00000000000E+00 -0.50699845369E+02  0.50699845369E+02  0.00000000000E+00 0.  1.
         23    2    1    2    0    0 -0.31627682925E+03 -0.20559728293E+03  0.15224790465E+04  0.15711843031E+04  0.91522630475E+02 0.  0.
         13    1    3    3    0    0 -0.28389980037E+03 -0.15250288990E+03  0.13469107967E+04  0.13849277679E+04  0.00000000000E+00 0.  1.
        -13    1    3    3    0    0 -0.32377028877E+02 -0.53094393032E+02  0.17556824980E+03  0.18625653520E+03  0.00000000000E+00 0. -1.
         22    1    1    2    0    0  0.31627682925E+03  0.20559728293E+03  0.13239023668E+04  0.13765968009E+04  0.00000000000E+00 0.  1.
<mgrwt>
<rscale>  0 0.76650263E+03</rscale>
<asrwt>0</asrwt>
<pdfrwt beam="1">  1        2 0.44570468E+00 0.76650263E+03</pdfrwt>
<pdfrwt beam="2">  1       -2 0.77999784E-02 0.76650263E+03</pdfrwt>
<totfact> 0.21696156E+02</totfact>
</mgrwt>
</event>
<event>
 6    1  0.1817112E-005  0.1565409E+04  0.7818608E-02  0.8842085E-01
         -2   -1    0    0    0  501 -0.00000000000E+00  0.00000000000E+00  0.13887101312E+04  0.13887101312E+04  0.00000000000E+00 0.  1.
          2   -1    0    0  501    0  0.00000000000E+00 -0.00000000000E+00 -0.44114779684E+03  0.44114779684E+03  0.00000000000E+00 0. -1.
         23    2    1    2    0    0  0.41002008246E+03  0.65694285586E+03  0.57573202703E+03  0.97081883620E+03  0.10644933955E+03 0.  0.
         13    1    3    3    0    0  0.80461349806E+02  0.82015319293E+02  0.12261481522E+03  0.16803253948E+03  0.00000000000E+00 0.  1.
        -13    1    3    3    0    0  0.32955873265E+03  0.57492753657E+03  0.45311721181E+03  0.80278629673E+03  0.00000000000E+00 0. -1.
         22    1    1    2    0    0 -0.41002008246E+03 -0.65694285586E+03  0.37183030738E+03  0.85903909188E+03  0.00000000000E+00 0.  1.
<mgrwt>
<rscale>  0 0.15654091E+04</rscale>
<asrwt>0</asrwt>
<pdfrwt beam="1">  1        2 0.67868892E-01 0.15654091E+04</pdfrwt>
<pdfrwt beam="2">  1       -2 0.21364771E+00 0.15654091E+04</pdfrwt>
<totfact> 0.74154066E+00</totfact>
</mgrwt>
</event>
<event>
 6    1  0.1817112E-005  0.3237863E+04  0.7818608E-02  0.8178889E-01
         -1   -1    0    0    0  501 -0.00000000000E+00  0.00000000000E+00  0.17128935368E+04  0.17128935368E+04  0.00000000000E+00 0.  1.
          1   -1    0    0  501    0  0.00000000000E+00 -0.00000000000E+00 -0.15301238448E+04  0.15301238448E+04  0.00000000000E+00 0. -1.
         23    2    1    2    0    0  0.13160594594E+04 -0.60526872942E+03 -0.62975678093E+03  0.15821254511E+04  0.90358200597E+02 0.  0.
         11    1    3    3    0    0  0.19965238400E+03 -0.12715938023E+03 -0.11257610348E+03  0.26211440535E+03  0.00000000000E+00 0. -1.
        -11    1    3    3    0    0  0.11164070754E+04 -0.47810934919E+03 -0.51718067745E+03  0.13200110457E+04  0.00000000000E+00 0.  1.
         22    1    1    2    0    0 -0.13160594594E+04  0.60526872942E+03  0.81252647295E+03  0.16608919305E+04  0.00000000000E+00 0.  1.
<mgrwt>
<rscale>  0 0.32378630E+04</rscale>
<asrwt>0</asrwt>
<pdfrwt beam="1">  1        1 0.23540367E+00 0.32378630E+04</pdfrwt>
<pdfrwt beam="2">  1       -1 0.26352208E+00 0.32378630E+04</pdfrwt>
<totfact> 0.29595785E-01</totfact>
</mgrwt>
</event>
<event>
 6    1  0.1817112E-005  0.1084816E+04  0.7818608E-02  0.9220119E-01
          2   -1    0    0  501    0  0.00000000000E+00  0.00000000000E+00  0.18928020104E+04  0.18928020104E+04  0.00000000000E+00 0. -1.
         -2   -1    0    0    0  501 -0.00000000000E+00 -0.00000000000E+00 -0.15543423420E+03  0.15543423420E+03  0.00000000000E+00 0.  1.
         23    2    1    2    0    0  0.69341152959E+02 -0.53400740685E+03  0.89958923169E+03  0.10523220938E+04  0.90271243004E+02 0.  0.
         11    1    3    3    0    0  0.83370836287E+02 -0.31470520244E+03  0.56284725399E+03  0.65022080258E+03  0.00000000000E+00 0.  1.
        -11    1    3    3    0    0 -0.14029683328E+02 -0.21930220441E+03  0.33674197770E+03  0.40210129125E+03  0.00000000000E+00 0. -1.
         22    1    1    2    0    0 -0.69341152959E+02  0.53400740685E+03  0.83777854446E+03  0.99591415073E+03  0.00000000000E+00 0. -1.
<mgrwt>
<rscale>  0 0.10848156E+04</rscale>
<asrwt>0</asrwt>
<pdfrwt beam="1">  1        2 0.29120029E+00 0.10848156E+04</pdfrwt>
<pdfrwt beam="2">  1       -2 0.23912960E-01 0.10848156E+04</pdfrwt>
<totfact> 0.11857066E+02</totfact>
</mgrwt>
</event>
<event>
 6    1  0.1817112E-005  0.2103657E+04  0.7818608E-02  0.8559634E-01
          2   -1    0    0  501    0  0.00000000000E+00  0.00000000000E+00  0.17714993102E+04  0.17714993102E+04  0.00000000000E+00 0. -1.
         -2   -1    0    0    0  501 -0.00000000000E+00 -0.00000000000E+00 -0.62452340559E+03  0.62452340559E+03  0.00000000000E+00 0.  1.
         23    2    1    2    0    0 -0.44300294153E+03 -0.93662065572E+03  0.38324896706E+03  0.11088596748E+04  0.95813092557E+02 0.  0.
         11    1    3    3    0    0 -0.37469699300E+03 -0.73741387499E+03  0.27223129354E+03  0.87079672528E+03  0.00000000000E+00 0.  1.
        -11    1    3    3    0    0 -0.68305948536E+02 -0.19920678074E+03  0.11101767352E+03  0.23806294952E+03  0.00000000000E+00 0. -1.
         22    1    1    2    0    0  0.44300294153E+03  0.93662065572E+03  0.76372693753E+03  0.12871630410E+04  0.00000000000E+00 0. -1.
<mgrwt>
<rscale>  0 0.21036566E+04</rscale>
<asrwt>0</asrwt>
<pdfrwt beam="1">  1        2 0.27253835E+00 0.21036566E+04</pdfrwt>
<pdfrwt beam="2">  1       -2 0.96080525E-01 0.21036566E+04</pdfrwt>
<totfact> 0.74831015E+00</totfact>
</mgrwt>
</event>
<event>
 6    1  0.1817112E-005  0.2586478E+04  0.7818608E-02  0.8372809E-01
         -2   -1    0    0    0  501 -0.00000000000E+00  0.00000000000E+00  0.78654220624E+03  0.78654220624E+03  0.00000000000E+00 0.  1.
          2   -1    0    0  501    0  0.00000000000E+00 -0.00000000000E+00 -0.21263533529E+04  0.21263533529E+04  0.00000000000E+00 0. -1.
         23    2    1    2    0    0 -0.37902125280E+03  0.19287461988E+03  0.70282700794E+03  0.82645640123E+03  0.90590567756E+02 0.  0.
         13    1    3    3    0    0 -0.11213920996E+03  0.19210607032E+02  0.22708526345E+03  0.25399206032E+03  0.00000000000E+00 0.  1.
        -13    1    3    3    0    0 -0.26688204284E+03  0.17366401285E+03  0.47574174450E+03  0.57246434091E+03  0.00000000000E+00 0. -1.
         22    1    1    2    0    0  0.37902125280E+03 -0.19287461988E+03 -0.20426381546E+04  0.20864391579E+04  0.00000000000E+00 0. -1.
<mgrwt>
<rscale>  0 0.25864776E+04</rscale>
<asrwt>0</asrwt>
<pdfrwt beam="1">  1        2 0.32713127E+00 0.25864776E+04</pdfrwt>
<pdfrwt beam="2">  1       -2 0.12100650E+00 0.25864776E+04</pdfrwt>
<totfact> 0.26156202E+00</totfact>
</mgrwt>
</event>
<event>
 6    1  0.1817112E-005  0.1452905E+04  0.7818608E-02  0.8916389E-01
         -2   -1    0    0    0  501 -0.00000000000E+00  0.00000000000E+00  0.54470600599E+03  0.54470600599E+03  0.00000000000E+00 0.  1.
          2   -1    0    0  501    0  0.00000000000E+00 -0.00000000000E+00 -0.96884008417E+03  0.96884008417E+03  0.00000000000E+00 0. -1.
         23    2    1    2    0    0 -0.47011612190E+03  0.30736987825E+03  0.26172844376E+03  0.62704013467E+03  0.95875659556E+02 0.  0.
         13    1    3    3    0    0 -0.80913495805E+02  0.95255289333E+02  0.77273075377E+02  0.14694111789E+03  0.00000000000E+00 0. -1.
        -13    1    3    3    0    0 -0.38920262609E+03  0.21211458892E+03  0.18445536838E+03  0.48009901678E+03  0.00000000000E+00 0.  1.
         22    1    1    2    0    0  0.47011612190E+03 -0.30736987825E+03 -0.68586252194E+03  0.88650595549E+03  0.00000000000E+00 0. -1.
<mgrwt>
<rscale>  0 0.14529047E+04</rscale>
<asrwt>0</asrwt>
<pdfrwt beam="1">  1        2 0.14905232E+00 0.14529047E+04</pdfrwt>
<pdfrwt beam="2">  1       -2 0.83800925E-01 0.14529047E+04</pdfrwt>
<totfact> 0.31849125E+01</totfact>
</mgrwt>
</event>
<event>
 6    1  0.1817112E-005  0.2733940E+04  0.7818608E-02  0.8324076E-01
          2   -1    0    0  501    0  0.00000000000E+00  0.00000000000E+00  0.94122386570E+03  0.94122386570E+03  0.00000000000E+00 0. -1.
         -2   -1    0    0    0  501 -0.00000000000E+00 -0.00000000000E+00 -0.19852949261E+04  0.19852949261E+04  0.00000000000E+00 0.  1.
         23    2    1    2    0    0 -0.94584834521E+03 -0.87584828634E+03 -0.10046523644E+04  0.16368315637E+04  0.90287771817E+02 0.  0.
         11    1    3    3    0    0 -0.20076368879E+03 -0.23382320367E+03 -0.22016435433E+03  0.37875017126E+03  0.00000000000E+00 0.  1.
        -11    1    3    3    0    0 -0.74508465642E+03 -0.64202508267E+03 -0.78448801005E+03  0.12580813924E+04  0.00000000000E+00 0. -1.
         22    1    1    2    0    0  0.94584834521E+03  0.87584828634E+03 -0.39418696019E+02  0.12896872281E+04  0.00000000000E+00 0. -1.
<mgrwt>
<rscale>  0 0.27339400E+04</rscale>
<asrwt>0</asrwt>
<pdfrwt beam="1">  1        2 0.14480367E+00 0.27339400E+04</pdfrwt>
<pdfrwt beam="2">  1       -2 0.30542998E+00 0.27339400E+04</pdfrwt>
<totfact> 0.70865415E-01</totfact>
</mgrwt>
</event>
<event>
 6    1  0.1817112E-005  0.9476731E+03  0.7818608E-02  0.9367874E-01
          2   -1    0    0  501    0  0.00000000000E+00  0.00000000000E+00  0.18355222818E+04  0.18355222818E+04  0.00000000000E+00 0. -1.
         -2   -1    0    0    0  501 -0.00000000000E+00 -0.00000000000E+00 -0.12232000690E+03  0.12232000690E+03  0.00000000000E+00 0.  1.
         23    2    1    2    0    0  0.10678172017E+03 -0.36525242420E+03  0.29612746703E+03  0.49056157927E+03  0.90263598309E+02 0.  0.
         13    1    3    3    0    0  0.28604033620E+02 -0.10058258595E+03  0.13579844894E+03  0.17139505848E+03  0.00000000000E+00 0.  1.
        -13    1    3    3    0    0  0.78177686548E+02 -0.26466983825E+03  0.16032901809E+03  0.31916652079E+03  0.00000000000E+00 0. -1.
         22    1    1    2    0    0 -0.10678172017E+03  0.36525242420E+03  0.14170748079E+04  0.14672807095E+04  0.00000000000E+00 0. -1.
<mgrwt>
<rscale>  0 0.94767315E+03</rscale>
<asrwt>0</asrwt>
<pdfrwt beam="1">  1        2 0.28238802E+00 0.94767315E+03</pdfrwt>
<pdfrwt beam="2">  1       -2 0.18818464E-01 0.94767315E+03</pdfrwt>
<totfact> 0.19678560E+02</totfact>
</mgrwt>
</event>
<event>
 6    1  0.1817112E-005  0.5089031E+03  0.7818608E-02  0.1011481E+00
          2   -1    0    0  501    0  0.00000000000E+00  0.00000000000E+00  0.68861777754E+02  0.68861777754E+02  0.00000000000E+00 0. -1.
         -2   -1    0    0    0  501 -0.00000000000E+00 -0.00000000000E+00 -0.94022535234E+03  0.94022535234E+03  0.00000000000E+00 0.  1.
         23    2    1    2    0    0 -0.11246682685E+03 -0.20129192998E+03 -0.27825848246E+03  0.37273747894E+03  0.91313837555E+02 0.  0.
         11    1    3    3    0    0 -0.53826464543E+02 -0.16650797308E+03 -0.23091737457E+03  0.28973268242E+03  0.00000000000E+00 0.  1.
        -11    1    3    3    0    0 -0.58640362303E+02 -0.34783956898E+02 -0.47341107888E+02  0.83004796516E+02  0.00000000000E+00 0. -1.
         22    1    1    2    0    0  0.11246682685E+03  0.20129192998E+03 -0.59310509213E+03  0.63634965116E+03  0.00000000000E+00 0.  1.
<mgrwt>
<rscale>  0 0.50890309E+03</rscale>
<asrwt>0</asrwt>
<pdfrwt beam="1">  1        2 0.10594120E-01 0.50890309E+03</pdfrwt>
<pdfrwt beam="2">  1       -2 0.14465004E+00 0.50890309E+03</pdfrwt>
<totfact> 0.20712652E+02</totfact>
</mgrwt>
</event>
<event>
 6    1  0.1817112E-005  0.4645383E+04  0.7818608E-02  0.7885667E-01
          2   -1    0    0  501    0  0.00000000000E+00  0.00000000000E+00  0.26233727836E+04  0.26233727836E+04  0.00000000000E+00 0. -1.
         -2   -1    0    0    0  501 -0.00000000000E+00 -0.00000000000E+00 -0.20564729187E+04  0.20564729187E+04  0.00000000000E+00 0.  1.
         23    2    1    2    0    0 -0.18705112544E+03 -0.17229571724E+04  0.18400429080E+04  0.25293892974E+04  0.92101971943E+02 0.  0.
         13    1    3    3    0    0 -0.88498965531E+02 -0.66388757526E+03  0.65059658041E+03  0.93373159416E+03  0.00000000000E+00 0. -1.
        -13    1    3    3    0    0 -0.98552159910E+02 -0.10590695971E+04  0.11894463276E+04  0.15956577033E+04  0.00000000000E+00 0.  1.
         22    1    1    2    0    0  0.18705112544E+03  0.17229571724E+04 -0.12731430431E+04  0.21504564049E+04  0.00000000000E+00 0.  1.
<mgrwt>
<rscale>  0 0.46453827E+04</rscale>
<asrwt>0</asrwt>
<pdfrwt beam="1">  1        2 0.40359582E+00 0.46453827E+04</pdfrwt>
<pdfrwt beam="2">  1       -2 0.31638045E+00 0.46453827E+04</pdfrwt>
<totfact> 0.55655045E-02</totfact>
</mgrwt>
</event>
<event>
 6    1  0.1817112E-005  0.3115525E+04  0.7818608E-02  0.8211490E-01
          2   -1    0    0  501    0  0.00000000000E+00  0.00000000000E+00  0.37256279943E+04  0.37256279943E+04  0.00000000000E+00 0. -1.
         -2   -1    0    0    0  501 -0.00000000000E+00 -0.00000000000E+00 -0.65133283088E+03  0.65133283088E+03  0.00000000000E+00 0.  1.
         23    2    1    2    0    0 -0.11243769306E+04  0.96428129310E+03  0.22098179574E+04  0.26619148392E+04  0.91833064501E+02 0.  0.
         13    1    3    3    0    0 -0.84731850307E+03  0.68780437576E+03  0.15758404847E+04  0.19168455176E+04  0.00000000000E+00 0.  1.
        -13    1    3    3    0    0 -0.27705842757E+03  0.27647691734E+03  0.63397747269E+03  0.74506932160E+03  0.00000000000E+00 0. -1.
         22    1    1    2    0    0  0.11243769306E+04 -0.96428129310E+03  0.86447720600E+03  0.17150459860E+04  0.00000000000E+00 0.  1.
<mgrwt>
<rscale>  0 0.31155249E+04</rscale>
<asrwt>0</asrwt>
<pdfrwt beam="1">  1        2 0.57317353E+00 0.31155249E+04</pdfrwt>
<pdfrwt beam="2">  1       -2 0.10020505E+00 0.31155249E+04</pdfrwt>
<totfact> 0.38895132E-01</totfact>
</mgrwt>
</event>
<event>
 6    1  0.1817112E-005  0.2688229E+04  0.7818608E-02  0.8338834E-01
         -2   -1    0    0    0  501 -0.00000000000E+00  0.00000000000E+00  0.10001950723E+04  0.10001950723E+04  0.00000000000E+00 0.  1.
          2   -1    0    0  501    0  0.00000000000E+00 -0.00000000000E+00 -0.18062919128E+04  0.18062919128E+04  0.00000000000E+00 0. -1.
         23    2    1    2    0    0 -0.17089476497E+02  0.63139268475E+03  0.83320077914E+03  0.10497156686E+04  0.93438075486E+02 0.  0.
         13    1    3    3    0    0  0.55832008415E+01  0.35145544579E+03  0.53444244110E+03  0.63967243599E+03  0.00000000000E+00 0. -1.
        -13    1    3    3    0    0 -0.22672677338E+02  0.27993723896E+03  0.29875833803E+03  0.41004323260E+03  0.00000000000E+00 0.  1.
         22    1    1    2    0    0  0.17089476497E+02 -0.63139268475E+03 -0.16392976197E+04  0.17567713165E+04  0.00000000000E+00 0. -1.
<mgrwt>
<rscale>  0 0.26882294E+04</rscale>
<asrwt>0</asrwt>
<pdfrwt beam="1">  1        2 0.27789106E+00 0.26882294E+04</pdfrwt>
<pdfrwt beam="2">  1       -2 0.15387617E+00 0.26882294E+04</pdfrwt>
<totfact> 0.21044041E+00</totfact>
</mgrwt>
</event>
<event>
 6    1  0.1817112E-005  0.1493056E+04  0.7818608E-02  0.8889084E-01
         -2   -1    0    0    0  501 -0.00000000000E+00  0.00000000000E+00  0.27983266340E+04  0.27983266340E+04  0.00000000000E+00 0.  1.
          2   -1    0    0  501    0  0.00000000000E+00 -0.00000000000E+00 -0.19915605416E+03  0.19915605416E+03  0.00000000000E+00 0. -1.
         23    2    1    2    0    0  0.30785294770E+03 -0.53984150196E+03  0.21247815346E+04  0.22156596577E+04  0.90823260306E+02 0.  0.
         13    1    3    3    0    0  0.23820134247E+03 -0.37456426535E+03  0.13823364039E+04  0.14518581894E+04  0.00000000000E+00 0. -1.
        -13    1    3    3    0    0  0.69651605233E+02 -0.16527723661E+03  0.74244513064E+03  0.76380146835E+03  0.00000000000E+00 0.  1.
         22    1    1    2    0    0 -0.30785294770E+03  0.53984150196E+03  0.47438904526E+03  0.78182303043E+03  0.00000000000E+00 0. -1.
<mgrwt>
<rscale>  0 0.14930555E+04</rscale>
<asrwt>0</asrwt>
<pdfrwt beam="1">  1        2 0.30639395E-01 0.14930555E+04</pdfrwt>
<pdfrwt beam="2">  1       -2 0.43051176E+00 0.14930555E+04</pdfrwt>
<totfact> 0.79295449E-01</totfact>
</mgrwt>
</event>
<event>
 6    1  0.1817112E-005  0.1063481E+04  0.7818608E-02  0.9241536E-01
         -2   -1    0    0    0  501 -0.00000000000E+00  0.00000000000E+00  0.17203186901E+03  0.17203186901E+03  0.00000000000E+00 0. -1.
          2   -1    0    0  501    0  0.00000000000E+00 -0.00000000000E+00 -0.16435783605E+04  0.16435783605E+04  0.00000000000E+00 0.  1.
         23    2    1    2    0    0 -0.20355177391E+03 -0.15055975654E+03 -0.15319335206E+04  0.15553254658E+04  0.90085671882E+02 0.  0.
         11    1    3    3    0    0 -0.16831513980E+03 -0.79560472702E+02 -0.95550999526E+03  0.97347789196E+03  0.00000000000E+00 0. -1.
        -11    1    3    3    0    0 -0.35236634117E+02 -0.70999283837E+02 -0.57642352531E+03  0.58184757387E+03  0.00000000000E+00 0.  1.
         22    1    1    2    0    0  0.20355177391E+03  0.15055975654E+03  0.60387029031E+02  0.26028476372E+03  0.00000000000E+00 0. -1.
<mgrwt>
<rscale>  0 0.10634808E+04</rscale>
<asrwt>0</asrwt>
<pdfrwt beam="1">  1        2 0.25285821E+00 0.10634808E+04</pdfrwt>
<pdfrwt beam="2">  1       -2 0.26466441E-01 0.10634808E+04</pdfrwt>
<totfact> 0.13560522E+02</totfact>
</mgrwt>
</event>
<event>
 6    1  0.1817112E-005  0.7832346E+03  0.7818608E-02  0.9584607E-01
         -2   -1    0    0    0  501 -0.00000000000E+00  0.00000000000E+00  0.38539000280E+03  0.38539000280E+03  0.00000000000E+00 0.  1.
          2   -1    0    0  501    0  0.00000000000E+00 -0.00000000000E+00 -0.39794517754E+03  0.39794517754E+03  0.00000000000E+00 0. -1.
         23    2    1    2    0    0 -0.32819636741E+03 -0.17513422553E+03 -0.11138967962E+03  0.39842855285E+03  0.89178464159E+02 0.  0.
         11    1    3    3    0    0 -0.38377666455E+02 -0.19965417174E+02 -0.46184502996E+02  0.63280893502E+02  0.00000000000E+00 0.  1.
        -11    1    3    3    0    0 -0.28981870095E+03 -0.15516880836E+03 -0.65205176624E+02  0.33514765935E+03  0.00000000000E+00 0. -1.
         22    1    1    2    0    0  0.32819636741E+03  0.17513422553E+03  0.98834504879E+02  0.38490662749E+03  0.00000000000E+00 0.  1.
<mgrwt>
<rscale>  0 0.78323456E+03</rscale>
<asrwt>0</asrwt>
<pdfrwt beam="1">  1        2 0.61222335E-01 0.78323456E+03</pdfrwt>
<pdfrwt beam="2">  1       -2 0.59290770E-01 0.78323456E+03</pdfrwt>
<totfact> 0.21414536E+02</totfact>
</mgrwt>
</event>
<event>
 6    1  0.1817112E-005  0.6983650E+03  0.7818608E-02  0.9720032E-01
          2   -1    0    0  501    0  0.00000000000E+00  0.00000000000E+00  0.96022168376E+03  0.96022168376E+03  0.00000000000E+00 0. -1.
         -2   -1    0    0    0  501 -0.00000000000E+00 -0.00000000000E+00 -0.12697943622E+03  0.12697943622E+03  0.00000000000E+00 0.  1.
         23    2    1    2    0    0 -0.62906991306E+02 -0.21069201091E+03  0.83475658062E+03  0.86731317984E+03  0.84054684695E+02 0.  0.
         11    1    3    3    0    0  0.12797335336E+02 -0.74372751544E+02  0.20227931427E+03  0.21589812168E+03  0.00000000000E+00 0. -1.
        -11    1    3    3    0    0 -0.75704326642E+02 -0.13631925937E+03  0.63247726635E+03  0.65141505816E+03  0.00000000000E+00 0.  1.
         22    1    1    2    0    0  0.62906991306E+02  0.21069201091E+03 -0.15143330711E+01  0.21988794015E+03  0.00000000000E+00 0.  1.
<mgrwt>
<rscale>  0 0.69836497E+03</rscale>
<asrwt>0</asrwt>
<pdfrwt beam="1">  1        2 0.14772641E+00 0.69836497E+03</pdfrwt>
<pdfrwt beam="2">  1       -2 0.19535298E-01 0.69836497E+03</pdfrwt>
<totfact> 0.59845746E+02</totfact>
</mgrwt>
</event>
<event>
 6    1  0.1817112E-005  0.2774399E+04  0.7818608E-02  0.8311261E-01
          2   -1    0    0  501    0  0.00000000000E+00  0.00000000000E+00  0.25953916199E+04  0.25953916199E+04  0.00000000000E+00 0. -1.
         -2   -1    0    0    0  501 -0.00000000000E+00 -0.00000000000E+00 -0.74143801307E+03  0.74143801307E+03  0.00000000000E+00 0.  1.
         23    2    1    2    0    0  0.11439246271E+04 -0.78022981820E+03  0.92159073573E+03  0.16675116150E+04  0.11808209154E+03 0.  0.
         11    1    3    3    0    0  0.12653493295E+03 -0.61925923213E+02  0.13090990684E+03  0.19231045975E+03  0.00000000000E+00 0. -1.
        -11    1    3    3    0    0  0.10173896941E+04 -0.71830389499E+03  0.79068082890E+03  0.14752011553E+04  0.00000000000E+00 0.  1.
         22    1    1    2    0    0 -0.11439246271E+04  0.78022981820E+03  0.93236287111E+03  0.16693180180E+04  0.00000000000E+00 0. -1.
<mgrwt>
<rscale>  0 0.27743987E+04</rscale>
<asrwt>0</asrwt>
<pdfrwt beam="1">  1        2 0.39929101E+00 0.27743987E+04</pdfrwt>
<pdfrwt beam="2">  1       -2 0.11406739E+00 0.27743987E+04</pdfrwt>
<totfact> 0.16056653E+00</totfact>
</mgrwt>
</event>
<event>
 6    1  0.1817112E-005  0.2309333E+04  0.7818608E-02  0.8474250E-01
         -2   -1    0    0    0  501 -0.00000000000E+00  0.00000000000E+00  0.16022453114E+04  0.16022453114E+04  0.00000000000E+00 0.  1.
          2   -1    0    0  501    0  0.00000000000E+00 -0.00000000000E+00 -0.83211632020E+03  0.83211632020E+03  0.00000000000E+00 0. -1.
         23    2    1    2    0    0 -0.13107493193E+03 -0.11316197822E+04  0.57175359362E+03  0.12780326267E+04  0.93387652847E+02 0.  0.
         13    1    3    3    0    0 -0.21472414766E+02 -0.58372412573E+03  0.30212833689E+03  0.65762941807E+03  0.00000000000E+00 0. -1.
        -13    1    3    3    0    0 -0.10960251716E+03 -0.54789565648E+03  0.26962525673E+03  0.62040320859E+03  0.00000000000E+00 0.  1.
         22    1    1    2    0    0  0.13107493193E+03  0.11316197822E+04  0.19837539757E+03  0.11563290049E+04  0.00000000000E+00 0. -1.
<mgrwt>
<rscale>  0 0.23093328E+04</rscale>
<asrwt>0</asrwt>
<pdfrwt beam="1">  1        2 0.12801790E+00 0.23093328E+04</pdfrwt>
<pdfrwt beam="2">  1       -2 0.24649928E+00 0.23093328E+04</pdfrwt>
<totfact> 0.19984417E+00</totfact>
</mgrwt>
</event>
<event>
 6    1  0.1817112E-005  0.2153374E+04  0.7818608E-02  0.8538089E-01
         -2   -1    0    0    0  501 -0.00000000000E+00  0.00000000000E+00  0.11672771445E+04  0.11672771445E+04  0.00000000000E+00 0.  1.
          2   -1    0    0  501    0  0.00000000000E+00 -0.00000000000E+00 -0.99312742072E+03  0.99312742072E+03  0.00000000000E+00 0. -1.
         23    2    1    2    0    0  0.73850055102E+03 -0.75392922434E+03 -0.11689977625E+03  0.10656433353E+04  0.90209872998E+02 0.  0.
         11    1    3    3    0    0  0.86608123155E+02 -0.11892898564E+03  0.65003004508E+01  0.14726616898E+03  0.00000000000E+00 0.  1.
        -11    1    3    3    0    0  0.65189242786E+03 -0.63500023870E+03 -0.12340007670E+03  0.91837716630E+03  0.00000000000E+00 0. -1.
         22    1    1    2    0    0 -0.73850055102E+03  0.75392922434E+03  0.29104950007E+03  0.10947612300E+04  0.00000000000E+00 0. -1.
<mgrwt>
<rscale>  0 0.21533740E+04</rscale>
<asrwt>0</asrwt>
<pdfrwt beam="1">  1        2 0.15278884E+00 0.21533740E+04</pdfrwt>
<pdfrwt beam="2">  1       -2 0.17958110E+00 0.21533740E+04</pdfrwt>
<totfact> 0.42611409E+00</totfact>
</mgrwt>
</event>
<event>
 6    1  0.1817112E-005  0.1343559E+04  0.7818608E-02  0.8995718E-01
         -2   -1    0    0    0  501 -0.00000000000E+00  0.00000000000E+00  0.59548364144E+03  0.59548364144E+03  0.00000000000E+00 0.  1.
          2   -1    0    0  501    0  0.00000000000E+00 -0.00000000000E+00 -0.75785106077E+03  0.75785106077E+03  0.00000000000E+00 0. -1.
         23    2    1    2    0    0  0.57795899829E+03  0.30008413841E+03  0.71668910500E+02  0.66133752194E+03  0.90242957407E+02 0.  0.
         11    1    3    3    0    0  0.29762860623E+03  0.20332118024E+03  0.27348218782E+02  0.36148335321E+03  0.00000000000E+00 0. -1.
        -11    1    3    3    0    0  0.28033039206E+03  0.96762958167E+02  0.44320691718E+02  0.29985416872E+03  0.00000000000E+00 0.  1.
         22    1    1    2    0    0 -0.57795899829E+03 -0.30008413841E+03 -0.23403632983E+03  0.69199718028E+03  0.00000000000E+00 0. -1.
<mgrwt>
<rscale>  0 0.13435593E+04</rscale>
<asrwt>0</asrwt>
<pdfrwt beam="1">  1        2 0.11659247E+00 0.13435593E+04</pdfrwt>
<pdfrwt beam="2">  1       -2 0.91612868E-01 0.13435593E+04</pdfrwt>
<totfact> 0.36679655E+01</totfact>
</mgrwt>
</event>
<event>
 6    1  0.1817112E-005  0.8861098E+03  0.7818608E-02  0.9443113E-01
          1   -1    0    0  501    0  0.00000000000E+00  0.00000000000E+00  0.74812423392E+03  0.74812423392E+03  0.00000000000E+00 0. -1.
         -1   -1    0    0    0  501 -0.00000000000E+00 -0.00000000000E+00 -0.26238642104E+03  0.26238642104E+03  0.00000000000E+00 0.  1.
         23    2    1    2    0    0  0.13599945848E+03 -0.39677433999E+03  0.10118467733E+03  0.44147037199E+03  0.93445282584E+02 0.  0.
         13    1    3    3    0    0  0.12983957692E+03 -0.35604289460E+03  0.11807654095E+03  0.39694700912E+03  0.00000000000E+00 0. -1.
        -13    1    3    3    0    0  0.61598815579E+01 -0.40731445392E+02 -0.16891863618E+02  0.44523362867E+02  0.00000000000E+00 0.  1.
         22    1    1    2    0    0 -0.13599945848E+03  0.39677433999E+03  0.38455313555E+03  0.56904028297E+03  0.00000000000E+00 0.  1.
<mgrwt>
<rscale>  0 0.88610979E+03</rscale>
<asrwt>0</asrwt>
<pdfrwt beam="1">  1        1 0.11509604E+00 0.88610979E+03</pdfrwt>
<pdfrwt beam="2">  1       -1 0.40367142E-01 0.88610979E+03</pdfrwt>
<totfact> 0.14836751E+02</totfact>
</mgrwt>
</event>
<event>
 6    1  0.1817112E-005  0.1232316E+04  0.7818608E-02  0.9085031E-01
          2   -1    0    0  501    0  0.00000000000E+00  0.00000000000E+00  0.32516908640E+04  0.32516908640E+04  0.00000000000E+00 0. -1.
         -2   -1    0    0    0  501 -0.00000000000E+00 -0.00000000000E+00 -0.11675487420E+03  0.11675487420E+03  0.00000000000E+00 0.  1.
         23    2    1    2    0    0 -0.23471774976E+03 -0.37226176421E+03  0.27416292454E+04  0.27782242219E+04  0.91256038042E+02 0.  0.
         11    1    3    3    0    0 -0.95418675860E+02 -0.13679003103E+03  0.78189469034E+03  0.79948454836E+03  0.00000000000E+00 0. -1.
        -11    1    3    3    0    0 -0.13929907390E+03 -0.23547173318E+03  0.19597345551E+04  0.19787396735E+04  0.00000000000E+00 0.  1.
         22    1    1    2    0    0  0.23471774976E+03  0.37226176421E+03  0.39330674435E+03  0.59022151630E+03  0.00000000000E+00 0.  1.
<mgrwt>
<rscale>  0 0.12323161E+04</rscale>
<asrwt>0</asrwt>
<pdfrwt beam="1">  1        2 0.50026006E+00 0.12323161E+04</pdfrwt>
<pdfrwt beam="2">  1       -2 0.17962291E-01 0.12323161E+04</pdfrwt>
<totfact> 0.31014458E+01</totfact>
</mgrwt>
</event>
<event>
 6    1  0.1817112E-005  0.4877386E+04  0.7818608E-02  0.7847705E-01
         -2   -1    0    0    0  501 -0.00000000000E+00  0.00000000000E+00  0.14571495181E+04  0.14571495181E+04  0.00000000000E+00 0.  1.
          2   -1    0    0  501    0  0.00000000000E+00 -0.00000000000E+00 -0.40814089931E+04  0.40814089931E+04  0.00000000000E+00 0. -1.
         23    2    1    2    0    0  0.86310489731E+03  0.66707904275E+03  0.11631118067E+04  0.15972229839E+04  0.91365597461E+02 0.  0.
         13    1    3    3    0    0  0.51088823248E+03  0.33862526058E+03  0.63849692393E+03  0.88507184740E+03  0.00000000000E+00 0. -1.
        -13    1    3    3    0    0  0.35221666482E+03  0.32845378218E+03  0.52461488275E+03  0.71215113649E+03  0.00000000000E+00 0.  1.
         22    1    1    2    0    0 -0.86310489731E+03 -0.66707904275E+03 -0.37873712817E+04  0.39413355272E+04  0.00000000000E+00 0. -1.
<mgrwt>
<rscale>  0 0.48773858E+04</rscale>
<asrwt>0</asrwt>
<pdfrwt beam="1">  1        2 0.62790907E+00 0.48773858E+04</pdfrwt>
<pdfrwt beam="2">  1       -2 0.22417685E+00 0.48773858E+04</pdfrwt>
<totfact> 0.19950510E-02</totfact>
</mgrwt>
</event>
<event>
 6    1  0.1817112E-005  0.1943162E+04  0.7818608E-02  0.8633665E-01
          1   -1    0    0  501    0  0.00000000000E+00  0.00000000000E+00  0.17219544839E+04  0.17219544839E+04  0.00000000000E+00 0. -1.
         -1   -1    0    0    0  501 -0.00000000000E+00 -0.00000000000E+00 -0.54819690218E+03  0.54819690218E+03  0.00000000000E+00 0.  1.
         23    2    1    2    0    0  0.45077097417E+03  0.38843785776E+03  0.14821364719E+04  0.15999454622E+04  0.94965889820E+02 0.  0.
         11    1    3    3    0    0  0.12641466062E+03  0.12790210237E+03  0.34430970552E+03  0.38844405971E+03  0.00000000000E+00 0. -1.
        -11    1    3    3    0    0  0.32435631356E+03  0.26053575539E+03  0.11378267664E+04  0.12115014025E+04  0.00000000000E+00 0.  1.
         22    1    1    2    0    0 -0.45077097417E+03 -0.38843785776E+03 -0.30837889017E+03  0.67020592387E+03  0.00000000000E+00 0.  1.
<mgrwt>
<rscale>  0 0.19431625E+04</rscale>
<asrwt>0</asrwt>
<pdfrwt beam="1">  1        1 0.26491607E+00 0.19431625E+04</pdfrwt>
<pdfrwt beam="2">  1       -1 0.84337986E-01 0.19431625E+04</pdfrwt>
<totfact> 0.59762093E+00</totfact>
</mgrwt>
</event>
<event>
 6    1  0.1817112E-005  0.1541791E+04  0.7818608E-02  0.8857128E-01
         -2   -1    0    0    0  501 -0.00000000000E+00  0.00000000000E+00  0.79517582790E+03  0.79517582790E+03  0.00000000000E+00 0.  1.
          2   -1    0    0  501    0  0.00000000000E+00 -0.00000000000E+00 -0.74735647636E+03  0.74735647636E+03  0.00000000000E+00 0. -1.
         23    2    1    2    0    0 -0.38016971508E+03 -0.39971978382E+02 -0.64290057191E+03  0.75308896623E+03  0.87721572994E+02 0.  0.
         11    1    3    3    0    0 -0.24721628286E+03  0.10793482998E+02 -0.44743664465E+03  0.51130415680E+03  0.00000000000E+00 0. -1.
        -11    1    3    3    0    0 -0.13295343223E+03 -0.50765461380E+02 -0.19546392726E+03  0.24178480943E+03  0.00000000000E+00 0.  1.
         22    1    1    2    0    0  0.38016971508E+03  0.39971978382E+02  0.69071992344E+03  0.78944333803E+03  0.00000000000E+00 0.  1.
<mgrwt>
<rscale>  0 0.15417909E+04</rscale>
<asrwt>0</asrwt>
<pdfrwt beam="1">  1        2 0.11497792E+00 0.15417909E+04</pdfrwt>
<pdfrwt beam="2">  1       -2 0.12233474E+00 0.15417909E+04</pdfrwt>
<totfact> 0.18360990E+01</totfact>
</mgrwt>
</event>
<event>
 6    1  0.1817112E-005  0.3173364E+04  0.7818608E-02  0.8195887E-01
          2   -1    0    0  501    0  0.00000000000E+00  0.00000000000E+00  0.98873964987E+03  0.98873964987E+03  0.00000000000E+00 0. -1.
         -2   -1    0    0    0  501 -0.00000000000E+00 -0.00000000000E+00 -0.25462313916E+04  0.25462313916E+04  0.00000000000E+00 0.  1.
         23    2    1    2    0    0  0.49994174447E+03  0.17521101653E+03 -0.24438720307E+04  0.25023478456E+04  0.92701618045E+02 0.  0.
         13    1    3    3    0    0  0.34497363708E+03  0.13259621864E+03 -0.14979060512E+04  0.15428256887E+04  0.00000000000E+00 0.  1.
        -13    1    3    3    0    0  0.15496810739E+03  0.42614797894E+02 -0.94596597943E+03  0.95952215688E+03  0.00000000000E+00 0. -1.
         22    1    1    2    0    0 -0.49994174447E+03 -0.17521101653E+03  0.88638028889E+03  0.10326231959E+04  0.00000000000E+00 0. -1.
<mgrwt>
<rscale>  0 0.31733641E+04</rscale>
<asrwt>0</asrwt>
<pdfrwt beam="1">  1        2 0.15211379E+00 0.31733641E+04</pdfrwt>
<pdfrwt beam="2">  1       -2 0.39172790E+00 0.31733641E+04</pdfrwt>
<totfact> 0.18152987E-01</totfact>
</mgrwt>
</event>
<event>
 6    1  0.1817112E-005  0.5295114E+04  0.7818608E-02  0.7784528E-01
          2   -1    0    0  501    0  0.00000000000E+00  0.00000000000E+00  0.29411295301E+04  0.29411295301E+04  0.00000000000E+00 0. -1.
         -2   -1    0    0    0  501 -0.00000000000E+00 -0.00000000000E+00 -0.23832880020E+04  0.23832880020E+04  0.00000000000E+00 0.  1.
         23    2    1    2    0    0 -0.14259913667E+04 -0.19744928069E+04  0.13208539167E+04  0.27721124704E+04  0.88765177708E+02 0.  0.
         13    1    3    3    0    0 -0.71813642051E+03 -0.94002125754E+03  0.60615706945E+03  0.13292051294E+04  0.00000000000E+00 0. -1.
        -13    1    3    3    0    0 -0.70785494618E+03 -0.10344715494E+04  0.71469684724E+03  0.14429073410E+04  0.00000000000E+00 0.  1.
         22    1    1    2    0    0  0.14259913667E+04  0.19744928069E+04 -0.76301238863E+03  0.25523050617E+04  0.00000000000E+00 0.  1.
<mgrwt>
<rscale>  0 0.52951142E+04</rscale>
<asrwt>0</asrwt>
<pdfrwt beam="1">  1        2 0.45248147E+00 0.52951142E+04</pdfrwt>
<pdfrwt beam="2">  1       -2 0.36665969E+00 0.52951142E+04</pdfrwt>
<totfact> 0.16433188E-02</totfact>
</mgrwt>
</event>
<event>
 6    1  0.1817112E-005  0.2629919E+04  0.7818608E-02  0.8358109E-01
          1   -1    0    0  501    0  0.00000000000E+00  0.00000000000E+00  0.16019096930E+04  0.16019096930E+04  0.00000000000E+00 0. -1.
         -1   -1    0    0    0  501 -0.00000000000E+00 -0.00000000000E+00 -0.10794107232E+04  0.10794107232E+04  0.00000000000E+00 0.  1.
         23    2    1    2    0    0  0.12495557450E+04 -0.13374918696E+03  0.65067105886E+03  0.14181076513E+04  0.91531847548E+02 0.  0.
         11    1    3    3    0    0  0.57724417243E+03 -0.18065108421E+02  0.28280134150E+03  0.64305037245E+03  0.00000000000E+00 0. -1.
        -11    1    3    3    0    0  0.67231157252E+03 -0.11568407854E+03  0.36786971737E+03  0.77505727887E+03  0.00000000000E+00 0.  1.
         22    1    1    2    0    0 -0.12495557450E+04  0.13374918696E+03 -0.12817208908E+03  0.12632127648E+04  0.00000000000E+00 0.  1.
<mgrwt>
<rscale>  0 0.26299190E+04</rscale>
<asrwt>0</asrwt>
<pdfrwt beam="1">  1        1 0.24644765E+00 0.26299190E+04</pdfrwt>
<pdfrwt beam="2">  1       -1 0.16606319E+00 0.26299190E+04</pdfrwt>
<totfact> 0.12860389E+00</totfact>
</mgrwt>
</event>
<event>
 6    1  0.1817112E-005  0.5528763E+03  0.7818608E-02  0.1000830E+00
         -1   -1    0    0    0  501 -0.00000000000E+00  0.00000000000E+00  0.15921563779E+03  0.15921563779E+03  0.00000000000E+00 0.  1.
          1   -1    0    0  501    0  0.00000000000E+00 -0.00000000000E+00 -0.47996569406E+03  0.47996569406E+03  0.00000000000E+00 0. -1.
         23    2    1    2    0    0 -0.66312470812E+02  0.10206035636E+03 -0.43839395831E+03  0.46990715244E+03  0.11751514413E+03 0.  0.
         11    1    3    3    0    0 -0.50224138438E+02 -0.11862397747E+02 -0.17571498985E+03  0.18313639239E+03  0.00000000000E+00 0.  1.
        -11    1    3    3    0    0 -0.16088332375E+02  0.11392275410E+03 -0.26267896847E+03  0.28677076004E+03  0.00000000000E+00 0. -1.
         22    1    1    2    0    0  0.66312470812E+02 -0.10206035636E+03  0.11764390204E+03  0.16927417940E+03  0.00000000000E+00 0.  1.
<mgrwt>
<rscale>  0 0.55287628E+03</rscale>
<asrwt>0</asrwt>
<pdfrwt beam="1">  1        1 0.73840875E-01 0.55287628E+03</pdfrwt>
<pdfrwt beam="2">  1       -1 0.24494714E-01 0.55287628E+03</pdfrwt>
<totfact> 0.68551443E+02</totfact>
</mgrwt>
</event>
<event>
 6    1  0.1817112E-005  0.1004167E+04  0.7818608E-02  0.9303986E-01
         -2   -1    0    0    0  501 -0.00000000000E+00  0.00000000000E+00  0.49582702225E+03  0.49582702225E+03  0.00000000000E+00 0.  1.
          2   -1    0    0  501    0  0.00000000000E+00 -0.00000000000E+00 -0.50841928155E+03  0.50841928155E+03  0.00000000000E+00 0. -1.
         23    2    1    2    0    0  0.10349608819E+03  0.31772076796E+03  0.36291819432E+03  0.50158734641E+03  0.90677029316E+02 0.  0.
         13    1    3    3    0    0  0.78357769870E+01  0.16895571632E+03  0.16821481314E+03  0.23854487385E+03  0.00000000000E+00 0.  1.
        -13    1    3    3    0    0  0.95660311207E+02  0.14876505163E+03  0.19470338118E+03  0.26304247256E+03  0.00000000000E+00 0. -1.
         22    1    1    2    0    0 -0.10349608819E+03 -0.31772076796E+03 -0.37551045362E+03  0.50265895739E+03  0.00000000000E+00 0. -1.
<mgrwt>
<rscale>  0 0.10041674E+04</rscale>
<asrwt>0</asrwt>
<pdfrwt beam="1">  1        2 0.78218351E-01 0.10041674E+04</pdfrwt>
<pdfrwt beam="2">  1       -2 0.76281080E-01 0.10041674E+04</pdfrwt>
<totfact> 0.92771517E+01</totfact>
</mgrwt>
</event>
<event>
 6    1  0.1817112E-005  0.1648748E+04  0.7818608E-02  0.8791147E-01
         -2   -1    0    0    0  501 -0.00000000000E+00  0.00000000000E+00  0.12464696579E+04  0.12464696579E+04  0.00000000000E+00 0.  1.
          2   -1    0    0  501    0  0.00000000000E+00 -0.00000000000E+00 -0.54521400714E+03  0.54521400714E+03  0.00000000000E+00 0. -1.
         23    2    1    2    0    0  0.26043202659E+03  0.35627379883E+03 -0.40174333154E+03  0.60367583040E+03  0.90944728063E+02 0.  0.
         11    1    3    3    0    0  0.16631389924E+03  0.29248789290E+03 -0.28873155783E+03  0.44336823642E+03  0.00000000000E+00 0. -1.
        -11    1    3    3    0    0  0.94118127352E+02  0.63785905923E+02 -0.11301177371E+03  0.16030759398E+03  0.00000000000E+00 0.  1.
         22    1    1    2    0    0 -0.26043202659E+03 -0.35627379883E+03  0.11029989823E+04  0.11880078346E+04  0.00000000000E+00 0.  1.
<mgrwt>
<rscale>  0 0.16487483E+04</rscale>
<asrwt>0</asrwt>
<pdfrwt beam="1">  1        2 0.83879079E-01 0.16487483E+04</pdfrwt>
<pdfrwt beam="2">  1       -2 0.19176456E+00 0.16487483E+04</pdfrwt>
<totfact> 0.80078479E+00</totfact>
</mgrwt>
</event>
<event>
 6    1  0.1817112E-005  0.3233008E+04  0.7818608E-02  0.8180154E-01
         -2   -1    0    0    0  501 -0.00000000000E+00  0.00000000000E+00  0.82040201735E+03  0.82040201735E+03  0.00000000000E+00 0.  1.
          2   -1    0    0  501    0  0.00000000000E+00 -0.00000000000E+00 -0.31851274584E+04  0.31851274584E+04  0.00000000000E+00 0. -1.
         23    2    1    2    0    0  0.94235174646E+03  0.11588094395E+04 -0.42152392054E+03  0.15546320319E+04  0.91280927478E+02 0.  0.
         11    1    3    3    0    0  0.81082039115E+03  0.99197860901E+03 -0.39403326363E+03  0.13404154133E+04  0.00000000000E+00 0. -1.
        -11    1    3    3    0    0  0.13153135531E+03  0.16683083051E+03 -0.27490656911E+02  0.21421661853E+03  0.00000000000E+00 0.  1.
         22    1    1    2    0    0 -0.94235174646E+03 -0.11588094395E+04 -0.19432015205E+04  0.24508974439E+04  0.00000000000E+00 0. -1.
<mgrwt>
<rscale>  0 0.32330079E+04</rscale>
<asrwt>0</asrwt>
<pdfrwt beam="1">  1        2 0.49001960E+00 0.32330079E+04</pdfrwt>
<pdfrwt beam="2">  1       -2 0.12621570E+00 0.32330079E+04</pdfrwt>
<totfact> 0.52060350E-01</totfact>
</mgrwt>
</event>
<event>
 6    1  0.1817112E-005  0.2470819E+04  0.7818608E-02  0.8413456E-01
         -2   -1    0    0    0  501 -0.00000000000E+00  0.00000000000E+00  0.30632303186E+04  0.30632303186E+04  0.00000000000E+00 0.  1.
          2   -1    0    0  501    0  0.00000000000E+00 -0.00000000000E+00 -0.49824431659E+03  0.49824431659E+03  0.00000000000E+00 0. -1.
         23    2    1    2    0    0  0.62614475677E+03  0.28719436212E+03 -0.19090841730E+03  0.72078952269E+03  0.92485967369E+02 0.  0.
         13    1    3    3    0    0  0.45285531806E+03  0.16283424317E+03 -0.11946355321E+03  0.49584722485E+03  0.00000000000E+00 0.  1.
        -13    1    3    3    0    0  0.17328943871E+03  0.12436011895E+03 -0.71444864096E+02  0.22494229784E+03  0.00000000000E+00 0. -1.
         22    1    1    2    0    0 -0.62614475677E+03 -0.28719436212E+03  0.27558944193E+04  0.28406851125E+04  0.00000000000E+00 0.  1.
<mgrwt>
<rscale>  0 0.24708194E+04</rscale>
<asrwt>0</asrwt>
<pdfrwt beam="1">  1        2 0.76652974E-01 0.24708194E+04</pdfrwt>
<pdfrwt beam="2">  1       -2 0.47126619E+00 0.24708194E+04</pdfrwt>
<totfact> 0.13881129E-01</totfact>
</mgrwt>
</event>
<event>
 6    1  0.1817112E-005  0.3094727E+04  0.7818608E-02  0.8217187E-01
          2   -1    0    0  501    0  0.00000000000E+00  0.00000000000E+00  0.25594978587E+04  0.25594978587E+04  0.00000000000E+00 0.  1.
         -2   -1    0    0    0  501 -0.00000000000E+00 -0.00000000000E+00 -0.93547002930E+03  0.93547002930E+03  0.00000000000E+00 0. -1.
         23    2    1    2    0    0  0.59125854122E+03 -0.69836874955E+03  0.22200392614E+04  0.24029352877E+04  0.90653747373E+02 0.  0.
         13    1    3    3    0    0  0.54366735818E+03 -0.61275271137E+03  0.20321804928E+04  0.21910722573E+04  0.00000000000E+00 0. -1.
        -13    1    3    3    0    0  0.47591183045E+02 -0.85616038179E+02  0.18785876864E+03  0.21186303041E+03  0.00000000000E+00 0.  1.
         22    1    1    2    0    0 -0.59125854122E+03  0.69836874955E+03 -0.59601143203E+03  0.10920326003E+04  0.00000000000E+00 0. -1.
<mgrwt>
<rscale>  0 0.30947268E+04</rscale>
<asrwt>0</asrwt>
<pdfrwt beam="1">  1        2 0.39376890E+00 0.30947268E+04</pdfrwt>
<pdfrwt beam="2">  1       -2 0.14391847E+00 0.30947268E+04</pdfrwt>
<totfact> 0.91211105E-01</totfact>
</mgrwt>
</event>
<event>
 6    1  0.1817112E-005  0.1174855E+04  0.7818608E-02  0.9135155E-01
          2   -1    0    0  501    0  0.00000000000E+00  0.00000000000E+00  0.20520840488E+03  0.20520840488E+03  0.00000000000E+00 0.  1.
         -2   -1    0    0    0  501 -0.00000000000E+00 -0.00000000000E+00 -0.16815653222E+04  0.16815653222E+04  0.00000000000E+00 0. -1.
         23    2    1    2    0    0  0.54907751856E+03 -0.14262152885E+03 -0.51852568292E+03  0.77354971752E+03  0.87654205547E+02 0.  0.
         13    1    3    3    0    0  0.10954623126E+03 -0.77113247578E+01 -0.64359377280E+02  0.12728696224E+03  0.00000000000E+00 0. -1.
        -13    1    3    3    0    0  0.43953128730E+03 -0.13491020410E+03 -0.45416630564E+03  0.64626275528E+03  0.00000000000E+00 0.  1.
         22    1    1    2    0    0 -0.54907751856E+03  0.14262152885E+03 -0.95783123439E+03  0.11132240096E+04  0.00000000000E+00 0.  1.
<mgrwt>
<rscale>  0 0.11748555E+04</rscale>
<asrwt>0</asrwt>
<pdfrwt beam="1">  1        2 0.31570525E-01 0.11748555E+04</pdfrwt>
<pdfrwt beam="2">  1       -2 0.25870235E+00 0.11748555E+04</pdfrwt>
<totfact> 0.94778678E+00</totfact>
</mgrwt>
</event>
<event>
 6    1  0.1817112E-005  0.2732227E+04  0.7818608E-02  0.8324624E-01
         -2   -1    0    0    0  501 -0.00000000000E+00  0.00000000000E+00  0.74517113973E+03  0.74517113973E+03  0.00000000000E+00 0.  1.
          2   -1    0    0  501    0  0.00000000000E+00 -0.00000000000E+00 -0.25044798350E+04  0.25044798350E+04  0.00000000000E+00 0. -1.
         23    2    1    2    0    0 -0.78459347804E+02  0.97055915140E+03  0.25679180362E+03  0.10107221779E+04  0.86465917596E+02 0.  0.
         13    1    3    3    0    0 -0.86888734386E+02  0.55447545862E+03  0.15607383324E+03  0.58253903543E+03  0.00000000000E+00 0. -1.
        -13    1    3    3    0    0  0.84293865826E+01  0.41608369278E+03  0.10071797038E+03  0.42818314249E+03  0.00000000000E+00 0.  1.
         22    1    1    2    0    0  0.78459347804E+02 -0.97055915140E+03 -0.20161004989E+04  0.22389287969E+04  0.00000000000E+00 0.  1.
<mgrwt>
<rscale>  0 0.27322270E+04</rscale>
<asrwt>0</asrwt>
<pdfrwt beam="1">  1        2 0.38530460E+00 0.27322270E+04</pdfrwt>
<pdfrwt beam="2">  1       -2 0.11464171E+00 0.27322270E+04</pdfrwt>
<totfact> 0.17985539E+00</totfact>
</mgrwt>
</event>
<event>
 6    1  0.1817112E-005  0.1800899E+04  0.7818608E-02  0.8705821E-01
          2   -1    0    0  501    0  0.00000000000E+00  0.00000000000E+00  0.17245076162E+04  0.17245076162E+04  0.00000000000E+00 0. -1.
         -2   -1    0    0    0  501 -0.00000000000E+00 -0.00000000000E+00 -0.47016876127E+03  0.47016876127E+03  0.00000000000E+00 0.  1.
         23    2    1    2    0    0  0.13093780128E+03  0.63455438250E+03 -0.12921714082E+03  0.66692274369E+03  0.91021450248E+02 0.  0.
         11    1    3    3    0    0  0.35635099765E+02  0.37498810338E+03 -0.55396353693E+02  0.38072916098E+03  0.00000000000E+00 0. -1.
        -11    1    3    3    0    0  0.95302701518E+02  0.25956627912E+03 -0.73820787129E+02  0.28619358271E+03  0.00000000000E+00 0.  1.
         22    1    1    2    0    0 -0.13093780128E+03 -0.63455438250E+03  0.13835559957E+04  0.15277536337E+04  0.00000000000E+00 0.  1.
<mgrwt>
<rscale>  0 0.18008993E+04</rscale>
<asrwt>0</asrwt>
<pdfrwt beam="1">  1        2 0.26530886E+00 0.18008993E+04</pdfrwt>
<pdfrwt beam="2">  1       -2 0.72333657E-01 0.18008993E+04</pdfrwt>
<totfact> 0.15517829E+01</totfact>
</mgrwt>
</event>
<event>
 6    1  0.1817112E-005  0.1897804E+04  0.7818608E-02  0.8655950E-01
          2   -1    0    0  501    0  0.00000000000E+00  0.00000000000E+00  0.10064771459E+04  0.10064771459E+04  0.00000000000E+00 0. -1.
         -2   -1    0    0    0  501 -0.00000000000E+00 -0.00000000000E+00 -0.89462053428E+03  0.89462053428E+03  0.00000000000E+00 0.  1.
         23    2    1    2    0    0  0.79379721535E+03  0.50833963798E+03  0.14503573526E+03  0.95789883537E+03  0.89507584373E+02 0.  0.
         13    1    3    3    0    0  0.67285832964E+03  0.42311903215E+03  0.15423564084E+03  0.80966454785E+03  0.00000000000E+00 0. -1.
        -13    1    3    3    0    0  0.12093888571E+03  0.85220605829E+02 -0.91999055796E+01  0.14823428752E+03  0.00000000000E+00 0.  1.
         22    1    1    2    0    0 -0.79379721535E+03 -0.50833963798E+03 -0.33179123633E+02  0.94319884483E+03  0.00000000000E+00 0.  1.
<mgrwt>
<rscale>  0 0.18978041E+04</rscale>
<asrwt>0</asrwt>
<pdfrwt beam="1">  1        2 0.15484264E+00 0.18978041E+04</pdfrwt>
<pdfrwt beam="2">  1       -2 0.13763393E+00 0.18978041E+04</pdfrwt>
<totfact> 0.87726874E+00</totfact>
</mgrwt>
</event>
<event>
 6    1  0.1817112E-005  0.4772903E+04  0.7818608E-02  0.7864527E-01
          2   -1    0    0  501    0  0.00000000000E+00  0.00000000000E+00  0.37789096707E+04  0.37789096707E+04  0.00000000000E+00 0. -1.
         -2   -1    0    0    0  501 -0.00000000000E+00 -0.00000000000E+00 -0.15070885680E+04  0.15070885680E+04  0.00000000000E+00 0.  1.
         23    2    1    2    0    0 -0.23312266639E+04  0.42005655679E+02  0.57754454576E+03  0.24038193259E+04  0.91691961386E+02 0.  0.
         13    1    3    3    0    0 -0.16841344725E+04 -0.10542165401E+02  0.42102957097E+03  0.17359971078E+04  0.00000000000E+00 0. -1.
        -13    1    3    3    0    0 -0.64709219139E+03  0.52547821080E+02  0.15651497478E+03  0.66782221810E+03  0.00000000000E+00 0.  1.
         22    1    1    2    0    0  0.23312266639E+04 -0.42005655679E+02  0.16942765569E+04  0.28821789127E+04  0.00000000000E+00 0. -1.
<mgrwt>
<rscale>  0 0.47729033E+04</rscale>
<asrwt>0</asrwt>
<pdfrwt beam="1">  1        2 0.58137072E+00 0.47729033E+04</pdfrwt>
<pdfrwt beam="2">  1       -2 0.23185978E+00 0.47729033E+04</pdfrwt>
<totfact> 0.31339512E-02</totfact>
</mgrwt>
</event>
<event>
 6    1  0.1817112E-005  0.9410832E+03  0.7818608E-02  0.9375634E-01
          1   -1    0    0  501    0  0.00000000000E+00  0.00000000000E+00  0.48069268728E+03  0.48069268728E+03  0.00000000000E+00 0. -1.
         -1   -1    0    0    0  501 -0.00000000000E+00 -0.00000000000E+00 -0.46060490882E+03  0.46060490882E+03  0.00000000000E+00 0.  1.
         23    2    1    2    0    0 -0.29890377357E+03  0.20393213738E+03  0.30400830323E+03  0.48135994065E+03  0.91403290549E+02 0.  0.
         11    1    3    3    0    0 -0.17175333055E+03  0.12534733559E+03  0.11952191163E+03  0.24391934826E+03  0.00000000000E+00 0. -1.
        -11    1    3    3    0    0 -0.12715044302E+03  0.78584801793E+02  0.18448639160E+03  0.23744059240E+03  0.00000000000E+00 0.  1.
         22    1    1    2    0    0  0.29890377357E+03 -0.20393213738E+03 -0.28392052477E+03  0.45993765544E+03  0.00000000000E+00 0.  1.
<mgrwt>
<rscale>  0 0.94108323E+03</rscale>
<asrwt>0</asrwt>
<pdfrwt beam="1">  1        1 0.73952721E-01 0.94108323E+03</pdfrwt>
<pdfrwt beam="2">  1       -1 0.70862294E-01 0.94108323E+03</pdfrwt>
<totfact> 0.94740565E+01</totfact>
</mgrwt>
</event>
<event>
 6    1  0.1817112E-005  0.3618826E+04  0.7818608E-02  0.8086193E-01
         -2   -1    0    0    0  501 -0.00000000000E+00  0.00000000000E+00  0.11094700922E+04  0.11094700922E+04  0.00000000000E+00 0.  1.
          2   -1    0    0  501    0  0.00000000000E+00 -0.00000000000E+00 -0.29509355095E+04  0.29509355095E+04  0.00000000000E+00 0. -1.
         23    2    1    2    0    0 -0.70010945567E+02  0.76370176899E+03  0.91630936260E+03  0.11979829108E+04  0.86013266918E+02 0.  0.
         13    1    3    3    0    0 -0.54551141020E+02  0.19910608999E+03  0.22718560189E+03  0.30697289744E+03  0.00000000000E+00 0. -1.
        -13    1    3    3    0    0 -0.15459804547E+02  0.56459567900E+03  0.68912376071E+03  0.89101001334E+03  0.00000000000E+00 0.  1.
         22    1    1    2    0    0  0.70010945567E+02 -0.76370176899E+03 -0.27577747800E+04  0.28624226909E+04  0.00000000000E+00 0. -1.
<mgrwt>
<rscale>  0 0.36188256E+04</rscale>
<asrwt>0</asrwt>
<pdfrwt beam="1">  1        2 0.45399007E+00 0.36188256E+04</pdfrwt>
<pdfrwt beam="2">  1       -2 0.17068771E+00 0.36188256E+04</pdfrwt>
<totfact> 0.32024226E-01</totfact>
</mgrwt>
</event>
<event>
 6    1  0.1817112E-005  0.5293956E+04  0.7818608E-02  0.7784695E-01
         -2   -1    0    0    0  501 -0.00000000000E+00  0.00000000000E+00  0.25690794926E+04  0.25690794926E+04  0.00000000000E+00 0.  1.
          2   -1    0    0  501    0  0.00000000000E+00 -0.00000000000E+00 -0.27272383260E+04  0.27272383260E+04  0.00000000000E+00 0. -1.
         23    2    1    2    0    0 -0.61728159017E+03 -0.25284370856E+04  0.39840143727E+03  0.26347787916E+04  0.96462004772E+02 0.  0.
         11    1    3    3    0    0 -0.45436580633E+02 -0.10352021609E+03  0.17290071396E+02  0.11436723555E+03  0.00000000000E+00 0. -1.
        -11    1    3    3    0    0 -0.57184500954E+03 -0.24249168695E+04  0.38111136587E+03  0.25204115561E+04  0.00000000000E+00 0.  1.
         22    1    1    2    0    0  0.61728159017E+03  0.25284370856E+04 -0.55656027060E+03  0.26615390270E+04  0.00000000000E+00 0.  1.
<mgrwt>
<rscale>  0 0.52939558E+04</rscale>
<asrwt>0</asrwt>
<pdfrwt beam="1">  1        2 0.41957513E+00 0.52939558E+04</pdfrwt>
<pdfrwt beam="2">  1       -2 0.39524300E+00 0.52939558E+04</pdfrwt>
<totfact> 0.14515875E-02</totfact>
</mgrwt>
</event>
<event>
 6    1  0.1817112E-005  0.8766206E+03  0.7818608E-02  0.9455288E-01
         -1   -1    0    0    0  501 -0.00000000000E+00  0.00000000000E+00  0.62671514803E+03  0.62671514803E+03  0.00000000000E+00 0.  1.
          1   -1    0    0  501    0  0.00000000000E+00 -0.00000000000E+00 -0.30654424765E+03  0.30654424765E+03  0.00000000000E+00 0. -1.
         23    2    1    2    0    0 -0.14956362073E+03  0.16234472585E+03  0.55804020809E+03  0.60874915823E+03  0.10218403564E+03 0.  0.
         11    1    3    3    0    0 -0.49367363911E+02 -0.22666703808E+01  0.91885538847E+02  0.10433228965E+03  0.00000000000E+00 0. -1.
        -11    1    3    3    0    0 -0.10019625682E+03  0.16461139624E+03  0.46615466924E+03  0.50441686858E+03  0.00000000000E+00 0.  1.
         22    1    1    2    0    0  0.14956362073E+03 -0.16234472585E+03 -0.23786930771E+03  0.32451023745E+03  0.00000000000E+00 0. -1.
<mgrwt>
<rscale>  0 0.87662061E+03</rscale>
<asrwt>0</asrwt>
<pdfrwt beam="1">  1        1 0.47160654E-01 0.87662061E+03</pdfrwt>
<pdfrwt beam="2">  1       -1 0.96417715E-01 0.87662061E+03</pdfrwt>
<totfact> 0.89114784E+01</totfact>
</mgrwt>
</event>
<event>
 6    1  0.1817112E-005  0.3066377E+04  0.7818608E-02  0.8225026E-01
         -2   -1    0    0    0  501 -0.00000000000E+00  0.00000000000E+00  0.10429964222E+04  0.10429964222E+04  0.00000000000E+00 0. -1.
          2   -1    0    0  501    0  0.00000000000E+00 -0.00000000000E+00 -0.22537633947E+04  0.22537633947E+04  0.00000000000E+00 0.  1.
         23    2    1    2    0    0  0.54225680050E+03 -0.11325417546E+04  0.33749778369E+03  0.13033163091E+04  0.89640304343E+02 0.  0.
         11    1    3    3    0    0  0.57324050914E+02 -0.71142584182E+02  0.34782642497E+02  0.97760658326E+02  0.00000000000E+00 0. -1.
        -11    1    3    3    0    0  0.48493274959E+03 -0.10613991704E+04  0.30271514119E+03  0.12055556508E+04  0.00000000000E+00 0.  1.
         22    1    1    2    0    0 -0.54225680050E+03  0.11325417546E+04 -0.15482647562E+04  0.19934435078E+04  0.00000000000E+00 0.  1.
<mgrwt>
<rscale>  0 0.30663771E+04</rscale>
<asrwt>0</asrwt>
<pdfrwt beam="1">  1        2 0.34673283E+00 0.30663771E+04</pdfrwt>
<pdfrwt beam="2">  1       -2 0.16046099E+00 0.30663771E+04</pdfrwt>
<totfact> 0.10245764E+00</totfact>
</mgrwt>
</event>
<event>
 6    1  0.1817112E-005  0.1776258E+04  0.7818608E-02  0.8719028E-01
         -2   -1    0    0    0  501 -0.00000000000E+00  0.00000000000E+00  0.96263519232E+03  0.96263519232E+03  0.00000000000E+00 0.  1.
          2   -1    0    0  501    0  0.00000000000E+00 -0.00000000000E+00 -0.81938941810E+03  0.81938941810E+03  0.00000000000E+00 0. -1.
         23    2    1    2    0    0 -0.39835700408E+03  0.55831912270E+03 -0.49078709609E+03  0.84799772317E+03  0.88428611539E+02 0.  0.
         11    1    3    3    0    0 -0.11762511596E+03  0.23661537375E+03 -0.17493546226E+03  0.31689890968E+03  0.00000000000E+00 0.  1.
        -11    1    3    3    0    0 -0.28073188813E+03  0.32170374894E+03 -0.31585163383E+03  0.53109881348E+03  0.00000000000E+00 0. -1.
         22    1    1    2    0    0  0.39835700408E+03 -0.55831912270E+03  0.63403287031E+03  0.93402688725E+03  0.00000000000E+00 0.  1.
<mgrwt>
<rscale>  0 0.17762580E+04</rscale>
<asrwt>0</asrwt>
<pdfrwt beam="1">  1        2 0.12605991E+00 0.17762580E+04</pdfrwt>
<pdfrwt beam="2">  1       -2 0.14809772E+00 0.17762580E+04</pdfrwt>
<totfact> 0.97753123E+00</totfact>
</mgrwt>
</event>
<event>
 6    1  0.1817112E-005  0.1708304E+04  0.7818608E-02  0.8756642E-01
         -2   -1    0    0    0  501 -0.00000000000E+00  0.00000000000E+00  0.57492668090E+03  0.57492668090E+03  0.00000000000E+00 0.  1.
          2   -1    0    0  501    0  0.00000000000E+00 -0.00000000000E+00 -0.12689894650E+04  0.12689894650E+04  0.00000000000E+00 0. -1.
         23    2    1    2    0    0  0.57998430672E+03  0.37730525868E+02  0.32385467818E+03  0.67175517204E+03  0.92562249093E+02 0.  0.
         11    1    3    3    0    0  0.50024803132E+03  0.50128919066E+02  0.30775796629E+03  0.58947092140E+03  0.00000000000E+00 0.  1.
        -11    1    3    3    0    0  0.79736275408E+02 -0.12398393198E+02  0.16096711890E+02  0.82284250641E+02  0.00000000000E+00 0. -1.
         22    1    1    2    0    0 -0.57998430672E+03 -0.37730525868E+02 -0.10179174623E+04  0.11721609739E+04  0.00000000000E+00 0. -1.
<mgrwt>
<rscale>  0 0.17083043E+04</rscale>
<asrwt>0</asrwt>
<pdfrwt beam="1">  1        2 0.19522915E+00 0.17083043E+04</pdfrwt>
<pdfrwt beam="2">  1       -2 0.88450259E-01 0.17083043E+04</pdfrwt>
<totfact> 0.18033077E+01</totfact>
</mgrwt>
</event>
<event>
 6    1  0.1817112E-005  0.3006545E+04  0.7818608E-02  0.8241864E-01
          2   -1    0    0  501    0  0.00000000000E+00  0.00000000000E+00  0.26955893075E+04  0.26955893075E+04  0.00000000000E+00 0. -1.
         -2   -1    0    0    0  501 -0.00000000000E+00 -0.00000000000E+00 -0.83834299364E+03  0.83834299364E+03  0.00000000000E+00 0.  1.
         23    2    1    2    0    0  0.13666789956E+04 -0.73887094624E+02  0.20264137686E+03  0.13866111148E+04  0.91411577271E+02 0.  0.
         11    1    3    3    0    0  0.94192852682E+03 -0.88976394180E+02  0.12108278761E+03  0.95383813606E+03  0.00000000000E+00 0.  1.
        -11    1    3    3    0    0  0.42475046875E+03  0.15089299555E+02  0.81558589251E+02  0.43277297876E+03  0.00000000000E+00 0. -1.
         22    1    1    2    0    0 -0.13666789956E+04  0.73887094624E+02  0.16546049370E+04  0.21473211863E+04  0.00000000000E+00 0. -1.
<mgrwt>
<rscale>  0 0.30065451E+04</rscale>
<asrwt>0</asrwt>
<pdfrwt beam="1">  1        2 0.41470604E+00 0.30065451E+04</pdfrwt>
<pdfrwt beam="2">  1       -2 0.12897585E+00 0.30065451E+04</pdfrwt>
<totfact> 0.10124078E+00</totfact>
</mgrwt>
</event>
<event>
 6    1  0.1817112E-005  0.4310515E+04  0.7818608E-02  0.7944677E-01
         -1   -1    0    0    0  501 -0.00000000000E+00  0.00000000000E+00  0.26812020199E+04  0.26812020199E+04  0.00000000000E+00 0.  1.
          1   -1    0    0  501    0  0.00000000000E+00 -0.00000000000E+00 -0.17324818910E+04  0.17324818910E+04  0.00000000000E+00 0. -1.
         23    2    1    2    0    0  0.19232505703E+04 -0.45594707388E+02  0.14673048564E+04  0.24212226809E+04  0.91455427316E+02 0.  0.
         11    1    3    3    0    0  0.85314588196E+03  0.24818510712E+02  0.64270956124E+03  0.10684331680E+04  0.00000000000E+00 0. -1.
        -11    1    3    3    0    0  0.10701046883E+04 -0.70413218100E+02  0.82459529520E+03  0.13527895129E+04  0.00000000000E+00 0.  1.
         22    1    1    2    0    0 -0.19232505703E+04  0.45594707388E+02 -0.51858472756E+03  0.19924612300E+04  0.00000000000E+00 0. -1.
<mgrwt>
<rscale>  0 0.43105146E+04</rscale>
<asrwt>0</asrwt>
<pdfrwt beam="1">  1        1 0.26653568E+00 0.43105146E+04</pdfrwt>
<pdfrwt beam="2">  1       -1 0.41249262E+00 0.43105146E+04</pdfrwt>
<totfact> 0.20291178E-02</totfact>
</mgrwt>
</event>
<event>
 6    1  0.1817112E-005  0.2632586E+04  0.7818608E-02  0.8357216E-01
          2   -1    0    0  501    0  0.00000000000E+00  0.00000000000E+00  0.25649822335E+04  0.25649822335E+04  0.00000000000E+00 0. -1.
         -2   -1    0    0    0  501 -0.00000000000E+00 -0.00000000000E+00 -0.67549287329E+03  0.67549287329E+03  0.00000000000E+00 0.  1.
         23    2    1    2    0    0  0.96850873319E+03 -0.56417199440E+03  0.17915846695E+04  0.21153597642E+04  0.93124102930E+02 0.  0.
         13    1    3    3    0    0  0.61817833969E+03 -0.36657935717E+03  0.10636372669E+04  0.12836857561E+04  0.00000000000E+00 0.  1.
        -13    1    3    3    0    0  0.35033039350E+03 -0.19759263723E+03  0.72794740259E+03  0.83167400815E+03  0.00000000000E+00 0. -1.
         22    1    1    2    0    0 -0.96850873319E+03  0.56417199440E+03  0.97904690656E+02  0.11251153425E+04  0.00000000000E+00 0.  1.
<mgrwt>
<rscale>  0 0.26325860E+04</rscale>
<asrwt>0</asrwt>
<pdfrwt beam="1">  1        2 0.39461265E+00 0.26325860E+04</pdfrwt>
<pdfrwt beam="2">  1       -2 0.10392198E+00 0.26325860E+04</pdfrwt>
<totfact> 0.21203785E+00</totfact>
</mgrwt>
</event>
<event>
 6    1  0.1817112E-005  0.1720532E+04  0.7818608E-02  0.8749740E-01
          2   -1    0    0  501    0  0.00000000000E+00  0.00000000000E+00  0.18674923248E+04  0.18674923248E+04  0.00000000000E+00 0. -1.
         -2   -1    0    0    0  501 -0.00000000000E+00 -0.00000000000E+00 -0.39628394618E+03  0.39628394618E+03  0.00000000000E+00 0.  1.
         23    2    1    2    0    0 -0.69131930353E+03  0.14730648403E+03  0.13773663238E+04  0.15507349602E+04  0.89550807330E+02 0.  0.
         13    1    3    3    0    0 -0.29238535745E+03  0.10758513848E+03  0.59501435420E+03  0.67164413268E+03  0.00000000000E+00 0.  1.
        -13    1    3    3    0    0 -0.39893394608E+03  0.39721345548E+02  0.78235196959E+03  0.87909082747E+03  0.00000000000E+00 0. -1.
         22    1    1    2    0    0  0.69131930353E+03 -0.14730648403E+03  0.93842054825E+02  0.71304131081E+03  0.00000000000E+00 0. -1.
<mgrwt>
<rscale>  0 0.17205316E+04</rscale>
<asrwt>0</asrwt>
<pdfrwt beam="1">  1        2 0.28730651E+00 0.17205316E+04</pdfrwt>
<pdfrwt beam="2">  1       -2 0.60966762E-01 0.17205316E+04</pdfrwt>
<totfact> 0.18826241E+01</totfact>
</mgrwt>
</event>
<event>
 6    1  0.1817112E-005  0.2161123E+04  0.7818608E-02  0.8534786E-01
         -2   -1    0    0    0  501 -0.00000000000E+00  0.00000000000E+00  0.52305210562E+03  0.52305210562E+03  0.00000000000E+00 0.  1.
          2   -1    0    0  501    0  0.00000000000E+00 -0.00000000000E+00 -0.22323072360E+04  0.22323072360E+04  0.00000000000E+00 0. -1.
         23    2    1    2    0    0 -0.69773620124E+03  0.28659488727E+03  0.12676606111E+03  0.77042955659E+03  0.92301849891E+02 0.  0.
         11    1    3    3    0    0 -0.44849557428E+03  0.20112410620E+03  0.40562459525E+02  0.49319823536E+03  0.00000000000E+00 0. -1.
        -11    1    3    3    0    0 -0.24924062696E+03  0.85470781065E+02  0.86203601585E+02  0.27723132122E+03  0.00000000000E+00 0.  1.
         22    1    1    2    0    0  0.69773620124E+03 -0.28659488727E+03 -0.18360211915E+04  0.19849297850E+04  0.00000000000E+00 0. -1.
<mgrwt>
<rscale>  0 0.21611229E+04</rscale>
<asrwt>0</asrwt>
<pdfrwt beam="1">  1        2 0.34343187E+00 0.21611229E+04</pdfrwt>
<pdfrwt beam="2">  1       -2 0.80469557E-01 0.21611229E+04</pdfrwt>
<totfact> 0.61937027E+00</totfact>
</mgrwt>
</event>
<event>
 6    1  0.1817112E-005  0.3448021E+04  0.7818608E-02  0.8126220E-01
          2   -1    0    0  501    0  0.00000000000E+00  0.00000000000E+00  0.34832016877E+04  0.34832016877E+04  0.00000000000E+00 0. -1.
         -2   -1    0    0    0  501 -0.00000000000E+00 -0.00000000000E+00 -0.85329889033E+03  0.85329889033E+03  0.00000000000E+00 0.  1.
         23    2    1    2    0    0 -0.35112646319E+03  0.27349627563E+02  0.34369400524E+04  0.34559627161E+04  0.84163984316E+02 0.  0.
         11    1    3    3    0    0 -0.14754411019E+03 -0.27804928073E+02  0.15601365895E+04  0.15673444281E+04  0.00000000000E+00 0. -1.
        -11    1    3    3    0    0 -0.20358235300E+03  0.55154555636E+02  0.18768034629E+04  0.18886182880E+04  0.00000000000E+00 0.  1.
         22    1    1    2    0    0  0.35112646319E+03 -0.27349627563E+02 -0.80703725501E+03  0.88053786191E+03  0.00000000000E+00 0.  1.
<mgrwt>
<rscale>  0 0.34480210E+04</rscale>
<asrwt>0</asrwt>
<pdfrwt beam="1">  1        2 0.53587718E+00 0.34480210E+04</pdfrwt>
<pdfrwt beam="2">  1       -2 0.13127675E+00 0.34480210E+04</pdfrwt>
<totfact> 0.29156592E-01</totfact>
</mgrwt>
</event>
<event>
 6    1  0.1817112E-005  0.1628227E+04  0.7818608E-02  0.8803393E-01
          2   -1    0    0  501    0  0.00000000000E+00  0.00000000000E+00  0.12005802162E+04  0.12005802162E+04  0.00000000000E+00 0. -1.
         -2   -1    0    0    0  501 -0.00000000000E+00 -0.00000000000E+00 -0.55205008837E+03  0.55205008837E+03  0.00000000000E+00 0.  1.
         23    2    1    2    0    0  0.23618932550E+03  0.62280567550E+03 -0.17378577266E+03  0.69438848574E+03  0.91112937788E+02 0.  0.
         11    1    3    3    0    0  0.17946036264E+03  0.53247233006E+03 -0.11856661587E+03  0.57427419099E+03  0.00000000000E+00 0.  1.
        -11    1    3    3    0    0  0.56728962866E+02  0.90333345432E+02 -0.55219156795E+02  0.12011429474E+03  0.00000000000E+00 0. -1.
         22    1    1    2    0    0 -0.23618932550E+03 -0.62280567550E+03  0.82231590051E+03  0.10582418188E+04  0.00000000000E+00 0. -1.
<mgrwt>
<rscale>  0 0.16282265E+04</rscale>
<asrwt>0</asrwt>
<pdfrwt beam="1">  1        2 0.18470465E+00 0.16282265E+04</pdfrwt>
<pdfrwt beam="2">  1       -2 0.84930783E-01 0.16282265E+04</pdfrwt>
<totfact> 0.21863755E+01</totfact>
</mgrwt>
</event>
<event>
 6    1  0.1817112E-005  0.5706479E+04  0.7818608E-02  0.7727899E-01
          2   -1    0    0  501    0  0.00000000000E+00  0.00000000000E+00  0.40985112806E+04  0.40985112806E+04  0.00000000000E+00 0. -1.
         -2   -1    0    0    0  501 -0.00000000000E+00 -0.00000000000E+00 -0.19863251661E+04  0.19863251661E+04  0.00000000000E+00 0.  1.
         23    2    1    2    0    0  0.18495370072E+04 -0.17999912124E+04  0.23519160161E+04  0.34928823708E+04  0.89234545291E+02 0.  0.
         11    1    3    3    0    0  0.10306096466E+04 -0.10113110815E+04  0.12562858825E+04  0.19139384958E+04  0.00000000000E+00 0.  1.
        -11    1    3    3    0    0  0.81892736057E+03 -0.78868013088E+03  0.10956301337E+04  0.15789438750E+04  0.00000000000E+00 0. -1.
         22    1    1    2    0    0 -0.18495370072E+04  0.17999912124E+04 -0.23972990162E+03  0.25919540758E+04  0.00000000000E+00 0.  1.
<mgrwt>
<rscale>  0 0.57064792E+04</rscale>
<asrwt>0</asrwt>
<pdfrwt beam="1">  1        2 0.63054020E+00 0.57064792E+04</pdfrwt>
<pdfrwt beam="2">  1       -2 0.30558849E+00 0.57064792E+04</pdfrwt>
<totfact> 0.57043700E-03</totfact>
</mgrwt>
</event>
<event>
 6    1  0.1817112E-005  0.2080645E+04  0.7818608E-02  0.8569818E-01
         -2   -1    0    0    0  501 -0.00000000000E+00  0.00000000000E+00  0.71149826821E+03  0.71149826821E+03  0.00000000000E+00 0. -1.
          2   -1    0    0  501    0  0.00000000000E+00 -0.00000000000E+00 -0.15211149394E+04  0.15211149394E+04  0.00000000000E+00 0.  1.
         23    2    1    2    0    0  0.53128228348E+03  0.60356264712E+02  0.54945050001E+03  0.77214502265E+03  0.91697004327E+02 0.  0.
         11    1    3    3    0    0  0.25100369453E+03  0.17633819433E+02  0.32209282464E+03  0.40872679621E+03  0.00000000000E+00 0. -1.
        -11    1    3    3    0    0  0.28027858895E+03  0.42722445279E+02  0.22735767537E+03  0.36341822643E+03  0.00000000000E+00 0.  1.
         22    1    1    2    0    0 -0.53128228348E+03 -0.60356264712E+02 -0.13590671712E+04  0.14604681849E+04  0.00000000000E+00 0.  1.
<mgrwt>
<rscale>  0 0.20806448E+04</rscale>
<asrwt>0</asrwt>
<pdfrwt beam="1">  1        2 0.23401768E+00 0.20806448E+04</pdfrwt>
<pdfrwt beam="2">  1       -2 0.10946127E+00 0.20806448E+04</pdfrwt>
<totfact> 0.75801280E+00</totfact>
</mgrwt>
</event>
<event>
 6    1  0.1817112E-005  0.8055913E+04  0.7818608E-02  0.7477369E-01
          2   -1    0    0  501    0  0.00000000000E+00  0.00000000000E+00  0.37854543446E+04  0.37854543446E+04  0.00000000000E+00 0. -1.
         -2   -1    0    0    0  501 -0.00000000000E+00 -0.00000000000E+00 -0.42859940308E+04  0.42859940308E+04  0.00000000000E+00 0.  1.
         23    2    1    2    0    0  0.88347110704E+03  0.21125066986E+04 -0.35698536824E+04  0.42421019356E+04  0.91475511407E+02 0.  0.
         11    1    3    3    0    0  0.39605269472E+03  0.84954139666E+03 -0.14149944070E+04  0.16972882764E+04  0.00000000000E+00 0. -1.
        -11    1    3    3    0    0  0.48741841232E+03  0.12629653019E+04 -0.21548592755E+04  0.25448136591E+04  0.00000000000E+00 0.  1.
         22    1    1    2    0    0 -0.88347110704E+03 -0.21125066986E+04  0.30693139962E+04  0.38293464398E+04  0.00000000000E+00 0. -1.
<mgrwt>
<rscale>  0 0.80559133E+04</rscale>
<asrwt>0</asrwt>
<pdfrwt beam="1">  1        2 0.58237759E+00 0.80559133E+04</pdfrwt>
<pdfrwt beam="2">  1       -2 0.65938370E+00 0.80559133E+04</pdfrwt>
<totfact> 0.93794140E-05</totfact>
</mgrwt>
</event>
<event>
 6    1  0.1817112E-005  0.2961204E+04  0.7818608E-02  0.8254897E-01
          2   -1    0    0  501    0  0.00000000000E+00  0.00000000000E+00  0.18823964794E+04  0.18823964794E+04  0.00000000000E+00 0. -1.
         -2   -1    0    0    0  501 -0.00000000000E+00 -0.00000000000E+00 -0.11645698945E+04  0.11645698945E+04  0.00000000000E+00 0.  1.
         23    2    1    2    0    0  0.11704425300E+04  0.45608583778E+02  0.12887571643E+04  0.17439016842E+04  0.91006574656E+02 0.  0.
         11    1    3    3    0    0  0.75700843199E+03 -0.12555972650E+02  0.84757394511E+03  0.11364862564E+04  0.00000000000E+00 0.  1.
        -11    1    3    3    0    0  0.41343409803E+03  0.58164556429E+02  0.44118321923E+03  0.60741542783E+03  0.00000000000E+00 0. -1.
         22    1    1    2    0    0 -0.11704425300E+04 -0.45608583778E+02 -0.57093057944E+03  0.13030646897E+04  0.00000000000E+00 0.  1.
<mgrwt>
<rscale>  0 0.29612040E+04</rscale>
<asrwt>0</asrwt>
<pdfrwt beam="1">  1        2 0.28959946E+00 0.29612040E+04</pdfrwt>
<pdfrwt beam="2">  1       -2 0.17916460E+00 0.29612040E+04</pdfrwt>
<totfact> 0.12256773E+00</totfact>
</mgrwt>
</event>
<event>
 6    1  0.1817112E-005  0.3097356E+04  0.7818608E-02  0.8216464E-01
         -2   -1    0    0    0  501 -0.00000000000E+00  0.00000000000E+00  0.25386048779E+04  0.25386048779E+04  0.00000000000E+00 0.  1.
          2   -1    0    0  501    0  0.00000000000E+00 -0.00000000000E+00 -0.94477201484E+03  0.94477201484E+03  0.00000000000E+00 0. -1.
         23    2    1    2    0    0 -0.10823249994E+04 -0.34785830108E+03 -0.38289410801E+03  0.12030518457E+04  0.91066149969E+02 0.  0.
         13    1    3    3    0    0 -0.40801689405E+03 -0.85133852240E+02 -0.14207090541E+03  0.44035179208E+03  0.00000000000E+00 0.  1.
        -13    1    3    3    0    0 -0.67430810531E+03 -0.26272444884E+03 -0.24082320259E+03  0.76270005364E+03  0.00000000000E+00 0. -1.
         22    1    1    2    0    0  0.10823249994E+04  0.34785830108E+03  0.19767269710E+04  0.22803250470E+04  0.00000000000E+00 0.  1.
<mgrwt>
<rscale>  0 0.30973555E+04</rscale>
<asrwt>0</asrwt>
<pdfrwt beam="1">  1        2 0.14534954E+00 0.30973555E+04</pdfrwt>
<pdfrwt beam="2">  1       -2 0.39055459E+00 0.30973555E+04</pdfrwt>
<totfact> 0.19864577E-01</totfact>
</mgrwt>
</event>
<event>
 6    1  0.1817112E-005  0.2601537E+04  0.7818608E-02  0.8367679E-01
          2   -1    0    0  501    0  0.00000000000E+00  0.00000000000E+00  0.14807134396E+04  0.14807134396E+04  0.00000000000E+00 0. -1.
         -2   -1    0    0    0  501 -0.00000000000E+00 -0.00000000000E+00 -0.11426912750E+04  0.11426912750E+04  0.00000000000E+00 0.  1.
         23    2    1    2    0    0 -0.10435218841E+04 -0.51501716046E+03  0.75163287517E+03  0.13883928045E+04  0.92206302925E+02 0.  0.
         11    1    3    3    0    0 -0.41781617321E+03 -0.19528063150E+03  0.24594360048E+03  0.52267880601E+03  0.00000000000E+00 0. -1.
        -11    1    3    3    0    0 -0.62570571092E+03 -0.31973652896E+03  0.50568927469E+03  0.86571399848E+03  0.00000000000E+00 0.  1.
         22    1    1    2    0    0  0.10435218841E+04  0.51501716046E+03 -0.41361071053E+03  0.12350119101E+04  0.00000000000E+00 0.  1.
<mgrwt>
<rscale>  0 0.26015367E+04</rscale>
<asrwt>0</asrwt>
<pdfrwt beam="1">  1        2 0.22780207E+00 0.26015367E+04</pdfrwt>
<pdfrwt beam="2">  1       -2 0.17579866E+00 0.26015367E+04</pdfrwt>
<totfact> 0.22333273E+00</totfact>
</mgrwt>
</event>
<event>
 6    1  0.1817112E-005  0.2515290E+04  0.7818608E-02  0.8397559E-01
          2   -1    0    0  501    0  0.00000000000E+00  0.00000000000E+00  0.37619014794E+04  0.37619014794E+04  0.00000000000E+00 0. -1.
         -2   -1    0    0    0  501 -0.00000000000E+00 -0.00000000000E+00 -0.42044443005E+03  0.42044443005E+03  0.00000000000E+00 0.  1.
         23    2    1    2    0    0  0.34848147543E+03 -0.12019135153E+04  0.14946408516E+04  0.19514793726E+04  0.91022137325E+02 0.  0.
         11    1    3    3    0    0  0.94685129518E+02 -0.27975932137E+03  0.41112273173E+03  0.50621384038E+03  0.00000000000E+00 0.  1.
        -11    1    3    3    0    0  0.25379634592E+03 -0.92215419392E+03  0.10835181199E+04  0.14452655323E+04  0.00000000000E+00 0. -1.
         22    1    1    2    0    0 -0.34848147543E+03  0.12019135153E+04  0.18468161978E+04  0.22308665369E+04  0.00000000000E+00 0.  1.
<mgrwt>
<rscale>  0 0.25152897E+04</rscale>
<asrwt>0</asrwt>
<pdfrwt beam="1">  1        2 0.57875405E+00 0.25152897E+04</pdfrwt>
<pdfrwt beam="2">  1       -2 0.64683761E-01 0.25152897E+04</pdfrwt>
<totfact> 0.10336306E+00</totfact>
</mgrwt>
</event>
<event>
 6    1  0.1817112E-005  0.2135015E+04  0.7818608E-02  0.8545974E-01
          2   -1    0    0  501    0  0.00000000000E+00  0.00000000000E+00  0.74417153429E+03  0.74417153429E+03  0.00000000000E+00 0.  1.
         -2   -1    0    0    0  501 -0.00000000000E+00 -0.00000000000E+00 -0.15313301226E+04  0.15313301226E+04  0.00000000000E+00 0. -1.
         23    2    1    2    0    0 -0.32618488288E+03 -0.92818315367E+03 -0.83027309750E+03  0.12907278730E+04  0.93297808320E+02 0.  0.
         11    1    3    3    0    0 -0.20804121548E+03 -0.54241408508E+03 -0.43344676268E+03  0.72482431189E+03  0.00000000000E+00 0. -1.
        -11    1    3    3    0    0 -0.11814366739E+03 -0.38576906860E+03 -0.39682633482E+03  0.56590356107E+03  0.00000000000E+00 0.  1.
         22    1    1    2    0    0  0.32618488288E+03  0.92818315367E+03  0.43114509204E+02  0.98477378391E+03  0.00000000000E+00 0.  1.
<mgrwt>
<rscale>  0 0.21350150E+04</rscale>
<asrwt>0</asrwt>
<pdfrwt beam="1">  1        2 0.11448793E+00 0.21350150E+04</pdfrwt>
<pdfrwt beam="2">  1       -2 0.23558925E+00 0.21350150E+04</pdfrwt>
<totfact> 0.27454907E+00</totfact>
</mgrwt>
</event>
<event>
 6    1  0.1817112E-005  0.3589249E+04  0.7818608E-02  0.8092959E-01
          2   -1    0    0  501    0  0.00000000000E+00  0.00000000000E+00  0.39601529209E+04  0.39601529209E+04  0.00000000000E+00 0. -1.
         -2   -1    0    0    0  501 -0.00000000000E+00 -0.00000000000E+00 -0.81327074131E+03  0.81327074131E+03  0.00000000000E+00 0.  1.
         23    2    1    2    0    0 -0.12256790053E+04  0.70408233298E+03  0.30428690782E+04  0.33560882465E+04  0.79089415253E+02 0.  0.
         11    1    3    3    0    0 -0.95073221818E+03  0.56539457456E+03  0.23117226109E+04  0.25627376389E+04  0.00000000000E+00 0. -1.
        -11    1    3    3    0    0 -0.27494678708E+03  0.13868775842E+03  0.73114646723E+03  0.79335060761E+03  0.00000000000E+00 0.  1.
         22    1    1    2    0    0  0.12256790053E+04 -0.70408233298E+03  0.10401310145E+03  0.14173354158E+04  0.00000000000E+00 0.  1.
<mgrwt>
<rscale>  0 0.35892487E+04</rscale>
<asrwt>0</asrwt>
<pdfrwt beam="1">  1        2 0.60925428E+00 0.35892487E+04</pdfrwt>
<pdfrwt beam="2">  1       -2 0.12511858E+00 0.35892487E+04</pdfrwt>
<totfact> 0.14333155E-01</totfact>
</mgrwt>
</event>
<event>
 6    1  0.1817112E-005  0.2734110E+04  0.7818608E-02  0.8324022E-01
         -1   -1    0    0    0  501 -0.00000000000E+00  0.00000000000E+00  0.11981225607E+04  0.11981225607E+04  0.00000000000E+00 0.  1.
          1   -1    0    0  501    0  0.00000000000E+00 -0.00000000000E+00 -0.15598064356E+04  0.15598064356E+04  0.00000000000E+00 0. -1.
         23    2    1    2    0    0  0.13184665667E+04 -0.35408010188E+03 -0.21071995995E+03  0.13844236596E+04  0.92190897543E+02 0.  0.
         11    1    3    3    0    0  0.78276456665E+03 -0.25437491329E+03 -0.14170192092E+03  0.83516848462E+03  0.00000000000E+00 0. -1.
        -11    1    3    3    0    0  0.53570200008E+03 -0.99705188590E+02 -0.69018039032E+02  0.54925517498E+03  0.00000000000E+00 0.  1.
         22    1    1    2    0    0 -0.13184665667E+04  0.35408010188E+03 -0.15096391494E+03  0.13735053366E+04  0.00000000000E+00 0.  1.
<mgrwt>
<rscale>  0 0.27341099E+04</rscale>
<asrwt>0</asrwt>
<pdfrwt beam="1">  1        1 0.23997022E+00 0.27341099E+04</pdfrwt>
<pdfrwt beam="2">  1       -1 0.18432655E+00 0.27341099E+04</pdfrwt>
<totfact> 0.10034874E+00</totfact>
</mgrwt>
</event>
<event>
 6    1  0.1817112E-005  0.1480026E+04  0.7818608E-02  0.8897845E-01
         -2   -1    0    0    0  501 -0.00000000000E+00  0.00000000000E+00  0.31809176390E+03  0.31809176390E+03  0.00000000000E+00 0.  1.
          2   -1    0    0  501    0  0.00000000000E+00 -0.00000000000E+00 -0.17215774264E+04  0.17215774264E+04  0.00000000000E+00 0. -1.
         23    2    1    2    0    0 -0.26624565153E+03  0.40918734898E+03  0.56817443843E+02  0.49992694047E+03  0.91529723897E+02 0.  0.
         13    1    3    3    0    0 -0.47431463877E+02  0.12152957313E+03 -0.15387369759E+02  0.13136191251E+03  0.00000000000E+00 0. -1.
        -13    1    3    3    0    0 -0.21881418765E+03  0.28765777585E+03  0.72204813602E+02  0.36856502796E+03  0.00000000000E+00 0.  1.
         22    1    1    2    0    0  0.26624565153E+03 -0.40918734898E+03 -0.14603031063E+04  0.15397422498E+04  0.00000000000E+00 0. -1.
<mgrwt>
<rscale>  0 0.14800265E+04</rscale>
<asrwt>0</asrwt>
<pdfrwt beam="1">  1        2 0.26485806E+00 0.14800265E+04</pdfrwt>
<pdfrwt beam="2">  1       -2 0.48937195E-01 0.14800265E+04</pdfrwt>
<totfact> 0.36491715E+01</totfact>
</mgrwt>
</event>
<event>
 6    1  0.1817112E-005  0.4316759E+04  0.7818608E-02  0.7943526E-01
         -2   -1    0    0    0  501 -0.00000000000E+00  0.00000000000E+00  0.16397184924E+04  0.16397184924E+04  0.00000000000E+00 0.  1.
          2   -1    0    0  501    0  0.00000000000E+00 -0.00000000000E+00 -0.28410989576E+04  0.28410989576E+04  0.00000000000E+00 0. -1.
         23    2    1    2    0    0 -0.79025239550E+02 -0.14813586390E+04  0.10250335362E+04  0.18054506132E+04  0.91048122557E+02 0.  0.
         13    1    3    3    0    0 -0.32211745420E+02 -0.14425600785E+03  0.11665025303E+03  0.18829411536E+03  0.00000000000E+00 0.  1.
        -13    1    3    3    0    0 -0.46813494130E+02 -0.13371026312E+04  0.90838328314E+03  0.16171564979E+04  0.00000000000E+00 0. -1.
         22    1    1    2    0    0  0.79025239550E+02  0.14813586390E+04 -0.22264140014E+04  0.26753668368E+04  0.00000000000E+00 0. -1.
<mgrwt>
<rscale>  0 0.43167592E+04</rscale>
<asrwt>0</asrwt>
<pdfrwt beam="1">  1        2 0.43709214E+00 0.43167592E+04</pdfrwt>
<pdfrwt beam="2">  1       -2 0.25226438E+00 0.43167592E+04</pdfrwt>
<totfact> 0.10445012E-01</totfact>
</mgrwt>
</event>
<event>
 6    1  0.1817112E-005  0.1834791E+04  0.7818608E-02  0.8688014E-01
         -2   -1    0    0    0  501 -0.00000000000E+00  0.00000000000E+00  0.35409600750E+03  0.35409600750E+03  0.00000000000E+00 0.  1.
          2   -1    0    0  501    0  0.00000000000E+00 -0.00000000000E+00 -0.23767966672E+04  0.23767966672E+04  0.00000000000E+00 0. -1.
         23    2    1    2    0    0  0.41171717274E+03  0.80607053756E+03 -0.12149961945E+04  0.15177779873E+04  0.90407544151E+02 0.  0.
         13    1    3    3    0    0  0.21959459347E+03  0.42619105237E+03 -0.71845011249E+03  0.86373095507E+03  0.00000000000E+00 0. -1.
        -13    1    3    3    0    0  0.19212257927E+03  0.37987948519E+03 -0.49654608203E+03  0.65404703219E+03  0.00000000000E+00 0.  1.
         22    1    1    2    0    0 -0.41171717274E+03 -0.80607053756E+03 -0.80770446520E+03  0.12131146875E+04  0.00000000000E+00 0. -1.
<mgrwt>
<rscale>  0 0.18347907E+04</rscale>
<asrwt>0</asrwt>
<pdfrwt beam="1">  1        2 0.36566102E+00 0.18347907E+04</pdfrwt>
<pdfrwt beam="2">  1       -2 0.54476309E-01 0.18347907E+04</pdfrwt>
<totfact> 0.12246562E+01</totfact>
</mgrwt>
</event>
<event>
 6    1  0.1817112E-005  0.2830889E+04  0.7818608E-02  0.8293742E-01
         -2   -1    0    0    0  501 -0.00000000000E+00  0.00000000000E+00  0.11294881968E+04  0.11294881968E+04  0.00000000000E+00 0.  1.
          2   -1    0    0  501    0  0.00000000000E+00 -0.00000000000E+00 -0.17737978073E+04  0.17737978073E+04  0.00000000000E+00 0. -1.
         23    2    1    2    0    0  0.56986864642E+03  0.96011146020E+02  0.10009539289E+04  0.11594796706E+04  0.92281766736E+02 0.  0.
         11    1    3    3    0    0  0.21334464523E+03  0.77090740040E+02  0.42777895364E+03  0.48420424722E+03  0.00000000000E+00 0. -1.
        -11    1    3    3    0    0  0.35652400119E+03  0.18920405979E+02  0.57317497529E+03  0.67527542343E+03  0.00000000000E+00 0.  1.
         22    1    1    2    0    0 -0.56986864642E+03 -0.96011146020E+02 -0.16452635395E+04  0.17438063335E+04  0.00000000000E+00 0. -1.
<mgrwt>
<rscale>  0 0.28308894E+04</rscale>
<asrwt>0</asrwt>
<pdfrwt beam="1">  1        2 0.27289197E+00 0.28308894E+04</pdfrwt>
<pdfrwt beam="2">  1       -2 0.17376742E+00 0.28308894E+04</pdfrwt>
<totfact> 0.15525903E+00</totfact>
</mgrwt>
</event>
<event>
 6    1  0.1817112E-005  0.2022005E+04  0.7818608E-02  0.8596401E-01
          2   -1    0    0  501    0  0.00000000000E+00  0.00000000000E+00  0.25654792470E+04  0.25654792470E+04  0.00000000000E+00 0. -1.
         -2   -1    0    0    0  501 -0.00000000000E+00 -0.00000000000E+00 -0.39841525633E+03  0.39841525633E+03  0.00000000000E+00 0.  1.
         23    2    1    2    0    0 -0.19413011493E+03 -0.97793301381E+03  0.13126831715E+04  0.16508803887E+04  0.90716415422E+02 0.  0.
         13    1    3    3    0    0 -0.89538376195E+02 -0.63731524278E+03  0.80500791691E+03  0.10306432874E+04  0.00000000000E+00 0.  1.
        -13    1    3    3    0    0 -0.10459173874E+03 -0.34061777103E+03  0.50767525461E+03  0.62023710136E+03  0.00000000000E+00 0. -1.
         22    1    1    2    0    0  0.19413011493E+03  0.97793301381E+03  0.85438081912E+03  0.13130141146E+04  0.00000000000E+00 0. -1.
<mgrwt>
<rscale>  0 0.20220050E+04</rscale>
<asrwt>0</asrwt>
<pdfrwt beam="1">  1        2 0.39468910E+00 0.20220050E+04</pdfrwt>
<pdfrwt beam="2">  1       -2 0.61294656E-01 0.20220050E+04</pdfrwt>
<totfact> 0.73240149E+00</totfact>
</mgrwt>
</event>
<event>
 6    1  0.1817112E-005  0.3604539E+04  0.7818608E-02  0.8089453E-01
         -2   -1    0    0    0  501 -0.00000000000E+00  0.00000000000E+00  0.15633170760E+04  0.15633170760E+04  0.00000000000E+00 0.  1.
          2   -1    0    0  501    0  0.00000000000E+00 -0.00000000000E+00 -0.20777451708E+04  0.20777451708E+04  0.00000000000E+00 0. -1.
         23    2    1    2    0    0  0.12724649481E+04  0.25782393796E+03  0.10036120808E+04  0.16435422340E+04  0.91398242838E+02 0.  0.
         11    1    3    3    0    0  0.15307983933E+03  0.33303124662E+02  0.85352324975E+02  0.17840278782E+03  0.00000000000E+00 0.  1.
        -11    1    3    3    0    0  0.11193851088E+04  0.22452081329E+03  0.91825975583E+03  0.14651394461E+04  0.00000000000E+00 0. -1.
         22    1    1    2    0    0 -0.12724649481E+04 -0.25782393796E+03 -0.15180401756E+04  0.19975200129E+04  0.00000000000E+00 0. -1.
<mgrwt>
<rscale>  0 0.36045385E+04</rscale>
<asrwt>0</asrwt>
<pdfrwt beam="1">  1        2 0.31965310E+00 0.36045385E+04</pdfrwt>
<pdfrwt beam="2">  1       -2 0.24051032E+00 0.36045385E+04</pdfrwt>
<totfact> 0.36229729E-01</totfact>
</mgrwt>
</event>
<event>
 6    1  0.1817112E-005  0.1032703E+04  0.7818608E-02  0.9273387E-01
         -1   -1    0    0    0  501 -0.00000000000E+00  0.00000000000E+00  0.63238798489E+03  0.63238798489E+03  0.00000000000E+00 0.  1.
          1   -1    0    0  501    0  0.00000000000E+00 -0.00000000000E+00 -0.42160612622E+03  0.42160612622E+03  0.00000000000E+00 0. -1.
         23    2    1    2    0    0  0.33439978525E+03 -0.92847660380E+02 -0.27893046388E+03  0.45377576477E+03  0.87557618769E+02 0.  0.
         13    1    3    3    0    0  0.12599357057E+03 -0.79089346859E+02 -0.10683325451E+03  0.18314706899E+03  0.00000000000E+00 0. -1.
        -13    1    3    3    0    0  0.20840621468E+03 -0.13758313520E+02 -0.17209720937E+03  0.27062869578E+03  0.00000000000E+00 0.  1.
         22    1    1    2    0    0 -0.33439978525E+03  0.92847660380E+02  0.48971232255E+03  0.60021834633E+03  0.00000000000E+00 0.  1.
<mgrwt>
<rscale>  0 0.10327026E+04</rscale>
<asrwt>0</asrwt>
<pdfrwt beam="1">  1        1 0.64862480E-01 0.10327026E+04</pdfrwt>
<pdfrwt beam="2">  1       -1 0.97290460E-01 0.10327026E+04</pdfrwt>
<totfact> 0.56808372E+01</totfact>
</mgrwt>
</event>
<event>
 6    1  0.1817112E-005  0.1266509E+04  0.7818608E-02  0.9056554E-01
          2   -1    0    0  501    0  0.00000000000E+00  0.00000000000E+00  0.15817340444E+04  0.15817340444E+04  0.00000000000E+00 0. -1.
         -2   -1    0    0    0  501 -0.00000000000E+00 -0.00000000000E+00 -0.25352635881E+03  0.25352635881E+03  0.00000000000E+00 0.  1.
         23    2    1    2    0    0 -0.15461242899E+03  0.60906163862E+03  0.73223070178E+03  0.96920633556E+03  0.91312854638E+02 0.  0.
         13    1    3    3    0    0 -0.67062692561E+02  0.38148867283E+03  0.49998648705E+03  0.63246936642E+03  0.00000000000E+00 0.  1.
        -13    1    3    3    0    0 -0.87549736431E+02  0.22757296580E+03  0.23224421474E+03  0.33673696914E+03  0.00000000000E+00 0. -1.
         22    1    1    2    0    0  0.15461242899E+03 -0.60906163862E+03  0.59597698380E+03  0.86605406763E+03  0.00000000000E+00 0.  1.
<mgrwt>
<rscale>  0 0.12665090E+04</rscale>
<asrwt>0</asrwt>
<pdfrwt beam="1">  1        2 0.24334369E+00 0.12665090E+04</pdfrwt>
<pdfrwt beam="2">  1       -2 0.39004056E-01 0.12665090E+04</pdfrwt>
<totfact> 0.69667947E+01</totfact>
</mgrwt>
</event>
<event>
 6    1  0.1817112E-005  0.1431919E+04  0.7818608E-02  0.8931032E-01
         -2   -1    0    0    0  501 -0.00000000000E+00  0.00000000000E+00  0.82967402543E+03  0.82967402543E+03  0.00000000000E+00 0.  1.
          2   -1    0    0  501    0  0.00000000000E+00 -0.00000000000E+00 -0.61783088107E+03  0.61783088107E+03  0.00000000000E+00 0. -1.
         23    2    1    2    0    0 -0.16772381691E+03  0.26736089890E+02  0.80726251286E+03  0.82833584909E+03  0.74976109259E+02 0.  0.
         13    1    3    3    0    0 -0.12570397430E+02  0.31619396507E+01  0.22261718211E+03  0.22299422083E+03  0.00000000000E+00 0. -1.
        -13    1    3    3    0    0 -0.15515341948E+03  0.23574150239E+02  0.58464533075E+03  0.60534162826E+03  0.00000000000E+00 0.  1.
         22    1    1    2    0    0  0.16772381691E+03 -0.26736089890E+02 -0.59541936850E+03  0.61916905741E+03  0.00000000000E+00 0. -1.
<mgrwt>
<rscale>  0 0.14319193E+04</rscale>
<asrwt>0</asrwt>
<pdfrwt beam="1">  1        2 0.95050905E-01 0.14319193E+04</pdfrwt>
<pdfrwt beam="2">  1       -2 0.12764216E+00 0.14319193E+04</pdfrwt>
<totfact> 0.21133288E+01</totfact>
</mgrwt>
</event>
<event>
 6    1  0.1817112E-005  0.4846126E+04  0.7818608E-02  0.7852692E-01
         -2   -1    0    0    0  501 -0.00000000000E+00  0.00000000000E+00  0.13705085020E+04  0.13705085020E+04  0.00000000000E+00 0.  1.
          2   -1    0    0  501    0  0.00000000000E+00 -0.00000000000E+00 -0.42839826101E+04  0.42839826101E+04  0.00000000000E+00 0. -1.
         23    2    1    2    0    0 -0.16090994062E+04 -0.18102618941E+04 -0.14207023511E+04  0.28093871523E+04  0.89509646408E+02 0.  0.
         13    1    3    3    0    0 -0.76588048573E+03 -0.88715933182E+03 -0.63945678472E+03  0.13351140693E+04  0.00000000000E+00 0.  1.
        -13    1    3    3    0    0 -0.84321892044E+03 -0.92310256227E+03 -0.78124556635E+03  0.14742730830E+04  0.00000000000E+00 0. -1.
         22    1    1    2    0    0  0.16090994062E+04  0.18102618941E+04 -0.14927717570E+04  0.28451039599E+04  0.00000000000E+00 0.  1.
<mgrwt>
<rscale>  0 0.48461261E+04</rscale>
<asrwt>0</asrwt>
<pdfrwt beam="1">  1        2 0.65907424E+00 0.48461261E+04</pdfrwt>
<pdfrwt beam="2">  1       -2 0.21084747E+00 0.48461261E+04</pdfrwt>
<totfact> 0.16225909E-02</totfact>
</mgrwt>
</event>
<event>
 6    1  0.1817112E-005  0.3183997E+04  0.7818608E-02  0.8193056E-01
         -2   -1    0    0    0  501 -0.00000000000E+00  0.00000000000E+00  0.16534325079E+04  0.16534325079E+04  0.00000000000E+00 0. -1.
          2   -1    0    0  501    0  0.00000000000E+00 -0.00000000000E+00 -0.15328469285E+04  0.15328469285E+04  0.00000000000E+00 0.  1.
         23    2    1    2    0    0 -0.14945724625E+04 -0.48512841592E+03 -0.18807825503E+03  0.15849144598E+04  0.86510052411E+02 0.  0.
         13    1    3    3    0    0 -0.49347522557E+03 -0.13821629290E+03 -0.96395632942E+02  0.52145341108E+03  0.00000000000E+00 0.  1.
        -13    1    3    3    0    0 -0.10010972369E+04 -0.34691212301E+03 -0.91682622084E+02  0.10634610487E+04  0.00000000000E+00 0. -1.
         22    1    1    2    0    0  0.14945724625E+04  0.48512841592E+03  0.30866383448E+03  0.16013649766E+04  0.00000000000E+00 0. -1.
<mgrwt>
<rscale>  0 0.31839968E+04</rscale>
<asrwt>0</asrwt>
<pdfrwt beam="1">  1        2 0.23582260E+00 0.31839968E+04</pdfrwt>
<pdfrwt beam="2">  1       -2 0.25437423E+00 0.31839968E+04</pdfrwt>
<totfact> 0.61950683E-01</totfact>
</mgrwt>
</event>
<event>
 6    1  0.1817112E-005  0.2344363E+04  0.7818608E-02  0.8460632E-01
         -2   -1    0    0    0  501 -0.00000000000E+00  0.00000000000E+00  0.97968641164E+03  0.97968641164E+03  0.00000000000E+00 0.  1.
          2   -1    0    0  501    0  0.00000000000E+00 -0.00000000000E+00 -0.14024990346E+04  0.14024990346E+04  0.00000000000E+00 0. -1.
         23    2    1    2    0    0  0.10780812189E+04 -0.24677524306E+03 -0.60133050247E+03  0.12619061201E+04  0.87473124198E+02 0.  0.
         13    1    3    3    0    0  0.50728714611E+03 -0.10027702976E+03 -0.23472286623E+03  0.56788251887E+03  0.00000000000E+00 0. -1.
        -13    1    3    3    0    0  0.57079407284E+03 -0.14649821330E+03 -0.36660763624E+03  0.69402360121E+03  0.00000000000E+00 0.  1.
         22    1    1    2    0    0 -0.10780812189E+04  0.24677524306E+03  0.17851787955E+03  0.11202793261E+04  0.00000000000E+00 0.  1.
<mgrwt>
<rscale>  0 0.23443628E+04</rscale>
<asrwt>0</asrwt>
<pdfrwt beam="1">  1        2 0.21576908E+00 0.23443628E+04</pdfrwt>
<pdfrwt beam="2">  1       -2 0.15072099E+00 0.23443628E+04</pdfrwt>
<totfact> 0.38548775E+00</totfact>
</mgrwt>
</event>
<event>
 6    1  0.1817112E-005  0.8579077E+03  0.7818608E-02  0.9479785E-01
          2   -1    0    0  501    0  0.00000000000E+00  0.00000000000E+00  0.16244108589E+04  0.16244108589E+04  0.00000000000E+00 0.  1.
         -2   -1    0    0    0  501 -0.00000000000E+00 -0.00000000000E+00 -0.11327269270E+03  0.11327269270E+03  0.00000000000E+00 0. -1.
         23    2    1    2    0    0 -0.26385381094E+03  0.12339983932E+03  0.13936240143E+03  0.33532300499E+03  0.90406221301E+02 0.  0.
         13    1    3    3    0    0 -0.10495350937E+02  0.37141914148E+00 -0.11698034113E+02  0.15720507167E+02  0.00000000000E+00 0.  1.
        -13    1    3    3    0    0 -0.25335846000E+03  0.12302842018E+03  0.15106043555E+03  0.31960249782E+03  0.00000000000E+00 0. -1.
         22    1    1    2    0    0  0.26385381094E+03 -0.12339983932E+03  0.13717757647E+04  0.14023605466E+04  0.00000000000E+00 0.  1.
<mgrwt>
<rscale>  0 0.85790767E+03</rscale>
<asrwt>0</asrwt>
<pdfrwt beam="1">  1        2 0.24990935E+00 0.85790767E+03</pdfrwt>
<pdfrwt beam="2">  1       -2 0.17426569E-01 0.85790767E+03</pdfrwt>
<totfact> 0.29547350E+02</totfact>
</mgrwt>
</event>
<event>
 6    1  0.1817112E-005  0.1575790E+04  0.7818608E-02  0.8835561E-01
         -2   -1    0    0    0  501 -0.00000000000E+00  0.00000000000E+00  0.56465433431E+03  0.56465433431E+03  0.00000000000E+00 0.  1.
          2   -1    0    0  501    0  0.00000000000E+00 -0.00000000000E+00 -0.10993961087E+04  0.10993961087E+04  0.00000000000E+00 0. -1.
         23    2    1    2    0    0  0.60440547896E+03  0.35912264918E+03 -0.63778359463E+03  0.95349243910E+03  0.90026983053E+02 0.  0.
         11    1    3    3    0    0  0.51607164329E+03  0.33090340410E+03 -0.58179024497E+03  0.84516678413E+03  0.00000000000E+00 0. -1.
        -11    1    3    3    0    0  0.88333835675E+02  0.28219245080E+02 -0.55993349661E+02  0.10832565497E+03  0.00000000000E+00 0.  1.
         22    1    1    2    0    0 -0.60440547896E+03 -0.35912264918E+03  0.10304182028E+03  0.71055800388E+03  0.00000000000E+00 0.  1.
<mgrwt>
<rscale>  0 0.15757903E+04</rscale>
<asrwt>0</asrwt>
<pdfrwt beam="1">  1        2 0.16913786E+00 0.15757903E+04</pdfrwt>
<pdfrwt beam="2">  1       -2 0.86869899E-01 0.15757903E+04</pdfrwt>
<totfact> 0.24020685E+01</totfact>
</mgrwt>
</event>
<event>
 6    1  0.1817112E-005  0.1473357E+04  0.7818608E-02  0.8902366E-01
          2   -1    0    0  501    0  0.00000000000E+00  0.00000000000E+00  0.18817399611E+04  0.18817399611E+04  0.00000000000E+00 0. -1.
         -2   -1    0    0    0  501 -0.00000000000E+00 -0.00000000000E+00 -0.28840082958E+03  0.28840082958E+03  0.00000000000E+00 0.  1.
         23    2    1    2    0    0 -0.58942858548E+03 -0.40885931709E+03  0.57355842985E+03  0.92332698017E+03  0.94717692680E+02 0.  0.
         13    1    3    3    0    0 -0.35795678778E+03 -0.19196855835E+03  0.33241046106E+03  0.52486350981E+03  0.00000000000E+00 0. -1.
        -13    1    3    3    0    0 -0.23147179771E+03 -0.21689075874E+03  0.24114796879E+03  0.39846347036E+03  0.00000000000E+00 0.  1.
         22    1    1    2    0    0  0.58942858548E+03  0.40885931709E+03  0.10197807017E+04  0.12468138105E+04  0.00000000000E+00 0. -1.
<mgrwt>
<rscale>  0 0.14733572E+04</rscale>
<asrwt>0</asrwt>
<pdfrwt beam="1">  1        2 0.28949845E+00 0.14733572E+04</pdfrwt>
<pdfrwt beam="2">  1       -2 0.44369360E-01 0.14733572E+04</pdfrwt>
<totfact> 0.36254530E+01</totfact>
</mgrwt>
</event>
<event>
 6    1  0.1817112E-005  0.1071483E+04  0.7818608E-02  0.9233441E-01
          2   -1    0    0  501    0  0.00000000000E+00  0.00000000000E+00  0.67088812220E+03  0.67088812220E+03  0.00000000000E+00 0. -1.
         -2   -1    0    0    0  501 -0.00000000000E+00 -0.00000000000E+00 -0.42781971770E+03  0.42781971770E+03  0.00000000000E+00 0.  1.
         23    2    1    2    0    0  0.36292053950E+03 -0.97280410879E+02 -0.26333062571E+03  0.46814081402E+03  0.92940878945E+02 0.  0.
         11    1    3    3    0    0  0.13574005461E+03 -0.27663060832E+02 -0.15227739519E+03  0.20586163423E+03  0.00000000000E+00 0. -1.
        -11    1    3    3    0    0  0.22718048489E+03 -0.69617350047E+02 -0.11105323052E+03  0.26227917979E+03  0.00000000000E+00 0.  1.
         22    1    1    2    0    0 -0.36292053950E+03  0.97280410879E+02  0.50639903020E+03  0.63056702588E+03  0.00000000000E+00 0. -1.
<mgrwt>
<rscale>  0 0.10714834E+04</rscale>
<asrwt>0</asrwt>
<pdfrwt beam="1">  1        2 0.10321356E+00 0.10714834E+04</pdfrwt>
<pdfrwt beam="2">  1       -2 0.65818418E-01 0.10714834E+04</pdfrwt>
<totfact> 0.91407649E+01</totfact>
</mgrwt>
</event>
<event>
 6    1  0.1817112E-005  0.4132996E+04  0.7818608E-02  0.7978242E-01
          2   -1    0    0  501    0  0.00000000000E+00  0.00000000000E+00  0.40626180478E+04  0.40626180478E+04  0.00000000000E+00 0. -1.
         -2   -1    0    0    0  501 -0.00000000000E+00 -0.00000000000E+00 -0.10511484442E+04  0.10511484442E+04  0.00000000000E+00 0.  1.
         23    2    1    2    0    0 -0.26509487272E+03 -0.84180198858E+03 -0.80408128576E+03  0.11974755849E+04  0.92169315598E+02 0.  0.
         13    1    3    3    0    0 -0.97136969214E+02 -0.32898918214E+03 -0.37351513988E+03  0.50713216470E+03  0.00000000000E+00 0. -1.
        -13    1    3    3    0    0 -0.16795790351E+03 -0.51281280644E+03 -0.43056614589E+03  0.69034342018E+03  0.00000000000E+00 0.  1.
         22    1    1    2    0    0  0.26509487272E+03  0.84180198858E+03  0.38155508894E+04  0.39162909071E+04  0.00000000000E+00 0. -1.
<mgrwt>
<rscale>  0 0.41329963E+04</rscale>
<asrwt>0</asrwt>
<pdfrwt beam="1">  1        2 0.62501815E+00 0.41329963E+04</pdfrwt>
<pdfrwt beam="2">  1       -2 0.16171515E+00 0.41329963E+04</pdfrwt>
<totfact> 0.57812047E-02</totfact>
</mgrwt>
</event>
<event>
 6    1  0.1817112E-005  0.1147816E+04  0.7818608E-02  0.9159800E-01
         -2   -1    0    0    0  501 -0.00000000000E+00  0.00000000000E+00  0.12769159148E+04  0.12769159148E+04  0.00000000000E+00 0.  1.
          2   -1    0    0  501    0  0.00000000000E+00 -0.00000000000E+00 -0.25794223023E+03  0.25794223023E+03  0.00000000000E+00 0. -1.
         23    2    1    2    0    0  0.77265398019E+02 -0.33123036673E+03 -0.99524794523E+02  0.36578913709E+03  0.90625661467E+02 0.  0.
         13    1    3    3    0    0  0.62087516277E+02 -0.27070268998E+03 -0.11641313351E+03  0.30114253052E+03  0.00000000000E+00 0.  1.
        -13    1    3    3    0    0  0.15177881742E+02 -0.60527676749E+02  0.16888338984E+02  0.64646606566E+02  0.00000000000E+00 0. -1.
         22    1    1    2    0    0 -0.77265398019E+02  0.33123036673E+03  0.11184984791E+04  0.11690690079E+04  0.00000000000E+00 0.  1.
<mgrwt>
<rscale>  0 0.11478163E+04</rscale>
<asrwt>0</asrwt>
<pdfrwt beam="1">  1        2 0.39683421E-01 0.11478163E+04</pdfrwt>
<pdfrwt beam="2">  1       -2 0.19644860E+00 0.11478163E+04</pdfrwt>
<totfact> 0.18052131E+01</totfact>
</mgrwt>
</event>
<event>
 6    1  0.1817112E-005  0.8762045E+03  0.7818608E-02  0.9455826E-01
         -2   -1    0    0    0  501 -0.00000000000E+00  0.00000000000E+00  0.84429459158E+02  0.84429459158E+02  0.00000000000E+00 0.  1.
          2   -1    0    0  501    0  0.00000000000E+00 -0.00000000000E+00 -0.22733011240E+04  0.22733011240E+04  0.00000000000E+00 0. -1.
         23    2    1    2    0    0 -0.25591331320E+03  0.26257269103E+03 -0.48521207572E+03  0.61506250301E+03  0.91842703789E+02 0.  0.
         11    1    3    3    0    0 -0.92594284403E+02  0.13594225112E+03 -0.15813921553E+03  0.22817100743E+03  0.00000000000E+00 0. -1.
        -11    1    3    3    0    0 -0.16331902880E+03  0.12663043990E+03 -0.32707286019E+03  0.38689149558E+03  0.00000000000E+00 0.  1.
         22    1    1    2    0    0  0.25591331320E+03 -0.26257269103E+03 -0.17036595891E+04  0.17426680801E+04  0.00000000000E+00 0. -1.
<mgrwt>
<rscale>  0 0.87620451E+03</rscale>
<asrwt>0</asrwt>
<pdfrwt beam="1">  1        2 0.34973858E+00 0.87620451E+03</pdfrwt>
<pdfrwt beam="2">  1       -2 0.12989150E-01 0.87620451E+03</pdfrwt>
<totfact> 0.21359405E+02</totfact>
</mgrwt>
</event>
<event>
 6    1  0.1817112E-005  0.2835387E+04  0.7818608E-02  0.8292366E-01
          2   -1    0    0  501    0  0.00000000000E+00  0.00000000000E+00  0.29775107697E+04  0.29775107697E+04  0.00000000000E+00 0. -1.
         -2   -1    0    0    0  501 -0.00000000000E+00 -0.00000000000E+00 -0.67501185042E+03  0.67501185042E+03  0.00000000000E+00 0.  1.
         23    2    1    2    0    0  0.69749360205E+03  0.11713390269E+04  0.65795122711E+03  0.15163883658E+04  0.89450644159E+02 0.  0.
         11    1    3    3    0    0  0.63097436652E+03  0.10554835861E+04  0.62188768174E+03  0.13780125328E+04  0.00000000000E+00 0.  1.
        -11    1    3    3    0    0  0.66519235524E+02  0.11585544074E+03  0.36063545374E+02  0.13837583297E+03  0.00000000000E+00 0. -1.
         22    1    1    2    0    0 -0.69749360205E+03 -0.11713390269E+04  0.16445476921E+04  0.21361342543E+04  0.00000000000E+00 0.  1.
<mgrwt>
<rscale>  0 0.28353871E+04</rscale>
<asrwt>0</asrwt>
<pdfrwt beam="1">  1        2 0.45807857E+00 0.28353871E+04</pdfrwt>
<pdfrwt beam="2">  1       -2 0.10384798E+00 0.28353871E+04</pdfrwt>
<totfact> 0.11773216E+00</totfact>
</mgrwt>
</event>
<event>
 6    1  0.1817112E-005  0.4011586E+04  0.7818608E-02  0.8002213E-01
          2   -1    0    0  501    0  0.00000000000E+00  0.00000000000E+00  0.11168587553E+04  0.11168587553E+04  0.00000000000E+00 0. -1.
         -2   -1    0    0    0  501 -0.00000000000E+00 -0.00000000000E+00 -0.36022505147E+04  0.36022505147E+04  0.00000000000E+00 0.  1.
         23    2    1    2    0    0 -0.15224539395E+04  0.90629676798E+03 -0.23469085731E+04  0.29419155770E+04  0.87450454647E+02 0.  0.
         11    1    3    3    0    0 -0.85853554745E+03  0.46705372633E+03 -0.13289496149E+04  0.16496452796E+04  0.00000000000E+00 0.  1.
        -11    1    3    3    0    0 -0.66391839207E+03  0.43924304165E+03 -0.10179589582E+04  0.12922702974E+04  0.00000000000E+00 0. -1.
         22    1    1    2    0    0  0.15224539395E+04 -0.90629676798E+03 -0.13848318633E+03  0.17771936930E+04  0.00000000000E+00 0. -1.
<mgrwt>
<rscale>  0 0.40115857E+04</rscale>
<asrwt>0</asrwt>
<pdfrwt beam="1">  1        2 0.17182443E+00 0.40115857E+04</pdfrwt>
<pdfrwt beam="2">  1       -2 0.55419237E+00 0.40115857E+04</pdfrwt>
<totfact> 0.13636724E-02</totfact>
</mgrwt>
</event>
<event>
 6    1  0.1817112E-005  0.6658668E+03  0.7818608E-02  0.9777453E-01
         -2   -1    0    0    0  501 -0.00000000000E+00  0.00000000000E+00  0.84418117735E+02  0.84418117735E+02  0.00000000000E+00 0.  1.
          2   -1    0    0  501    0  0.00000000000E+00 -0.00000000000E+00 -0.13130435409E+04  0.13130435409E+04  0.00000000000E+00 0. -1.
         23    2    1    2    0    0 -0.30476124348E+03 -0.39646009947E+02 -0.85792657588E+03  0.91593403013E+03  0.91901666555E+02 0.  0.
         13    1    3    3    0    0 -0.11693327094E+03 -0.13164606041E+02 -0.46441567691E+03  0.47909145021E+03  0.00000000000E+00 0.  1.
        -13    1    3    3    0    0 -0.18782797255E+03 -0.26481403906E+02 -0.39351089897E+03  0.43684257992E+03  0.00000000000E+00 0. -1.
         22    1    1    2    0    0  0.30476124348E+03  0.39646009947E+02 -0.37069884729E+03  0.48152762851E+03  0.00000000000E+00 0.  1.
<mgrwt>
<rscale>  0 0.66586685E+03</rscale>
<asrwt>0</asrwt>
<pdfrwt beam="1">  1        2 0.20200668E+00 0.66586685E+03</pdfrwt>
<pdfrwt beam="2">  1       -2 0.12987404E-01 0.66586685E+03</pdfrwt>
<totfact> 0.73407845E+02</totfact>
</mgrwt>
</event>
<event>
 6    1  0.1817112E-005  0.2869857E+04  0.7818608E-02  0.8281903E-01
         -2   -1    0    0    0  501 -0.00000000000E+00  0.00000000000E+00  0.87140353763E+03  0.87140353763E+03  0.00000000000E+00 0.  1.
          2   -1    0    0  501    0  0.00000000000E+00 -0.00000000000E+00 -0.23628779485E+04  0.23628779485E+04  0.00000000000E+00 0. -1.
         23    2    1    2    0    0 -0.85378431283E+03  0.48681939721E+03  0.42949683338E+03  0.10764883312E+04  0.91754122164E+02 0.  0.
         11    1    3    3    0    0 -0.68496561566E+03  0.42281348984E+03  0.37408758446E+03  0.88763205365E+03  0.00000000000E+00 0. -1.
        -11    1    3    3    0    0 -0.16881869717E+03  0.64005907369E+02  0.55409248920E+02  0.18885627752E+03  0.00000000000E+00 0.  1.
         22    1    1    2    0    0  0.85378431283E+03 -0.48681939721E+03 -0.19209712443E+04  0.21577931550E+04  0.00000000000E+00 0. -1.
<mgrwt>
<rscale>  0 0.28698573E+04</rscale>
<asrwt>0</asrwt>
<pdfrwt beam="1">  1        2 0.36351968E+00 0.28698573E+04</pdfrwt>
<pdfrwt beam="2">  1       -2 0.13406208E+00 0.28698573E+04</pdfrwt>
<totfact> 0.14504170E+00</totfact>
</mgrwt>
</event>
<event>
 6    1  0.1817112E-005  0.1461852E+04  0.7818608E-02  0.8910225E-01
          4   -1    0    0  501    0  0.00000000000E+00  0.00000000000E+00  0.75792065792E+03  0.75792065792E+03  0.00000000000E+00 0. -1.
         -4   -1    0    0    0  501 -0.00000000000E+00 -0.00000000000E+00 -0.70489305426E+03  0.70489305426E+03  0.00000000000E+00 0.  1.
         23    2    1    2    0    0  0.14037744940E+03 -0.53220442041E+03 -0.45030283332E+03  0.71696593804E+03  0.91214808023E+02 0.  0.
         13    1    3    3    0    0  0.77530612095E+02 -0.43705873138E+03 -0.35925141785E+03  0.57104545503E+03  0.00000000000E+00 0.  1.
        -13    1    3    3    0    0  0.62846837308E+02 -0.95145689035E+02 -0.91051415470E+02  0.14592048301E+03  0.00000000000E+00 0. -1.
         22    1    1    2    0    0 -0.14037744940E+03  0.53220442041E+03  0.50333043698E+03  0.74584777414E+03  0.00000000000E+00 0. -1.
<mgrwt>
<rscale>  0 0.14618523E+04</rscale>
<asrwt>0</asrwt>
<pdfrwt beam="1">  1        4 0.11660318E+00 0.14618523E+04</pdfrwt>
<pdfrwt beam="2">  1       -4 0.10844508E+00 0.14618523E+04</pdfrwt>
<totfact> 0.74763674E-01</totfact>
</mgrwt>
</event>
<event>
 6    1  0.1817112E-005  0.3959933E+04  0.7818608E-02  0.8012679E-01
          2   -1    0    0  501    0  0.00000000000E+00  0.00000000000E+00  0.28056514515E+04  0.28056514515E+04  0.00000000000E+00 0. -1.
         -2   -1    0    0    0  501 -0.00000000000E+00 -0.00000000000E+00 -0.13972750188E+04  0.13972750188E+04  0.00000000000E+00 0.  1.
         23    2    1    2    0    0  0.13585213315E+04  0.61565600426E+03  0.20849525021E+04  0.25651329236E+04  0.90925552051E+02 0.  0.
         13    1    3    3    0    0  0.71844135157E+03  0.27790532480E+03  0.10520144993E+04  0.13038879753E+04  0.00000000000E+00 0. -1.
        -13    1    3    3    0    0  0.64007997994E+03  0.33775067946E+03  0.10329380027E+04  0.12612449483E+04  0.00000000000E+00 0.  1.
         22    1    1    2    0    0 -0.13585213315E+04 -0.61565600426E+03 -0.67657606939E+03  0.16377935466E+04  0.00000000000E+00 0.  1.
<mgrwt>
<rscale>  0 0.39599327E+04</rscale>
<asrwt>0</asrwt>
<pdfrwt beam="1">  1        2 0.43163868E+00 0.39599327E+04</pdfrwt>
<pdfrwt beam="2">  1       -2 0.21496539E+00 0.39599327E+04</pdfrwt>
<totfact> 0.19314728E-01</totfact>
</mgrwt>
</event>
<event>
 6    1  0.1817112E-005  0.9831875E+03  0.7818608E-02  0.9327179E-01
          2   -1    0    0  501    0  0.00000000000E+00  0.00000000000E+00  0.10302605955E+04  0.10302605955E+04  0.00000000000E+00 0. -1.
         -2   -1    0    0    0  501 -0.00000000000E+00 -0.00000000000E+00 -0.23456631943E+03  0.23456631943E+03  0.00000000000E+00 0.  1.
         23    2    1    2    0    0 -0.99533263584E+02  0.22856211858E+03 -0.13831462101E+03  0.29812110010E+03  0.87165034991E+02 0.  0.
         13    1    3    3    0    0 -0.73972196791E+02  0.66839811310E+02 -0.62700008235E+02  0.11777409438E+03  0.00000000000E+00 0.  1.
        -13    1    3    3    0    0 -0.25561066793E+02  0.16172230727E+03 -0.75614612779E+02  0.18034700572E+03  0.00000000000E+00 0. -1.
         22    1    1    2    0    0  0.99533263584E+02 -0.22856211858E+03  0.93400889705E+03  0.96670581481E+03  0.00000000000E+00 0. -1.
<mgrwt>
<rscale>  0 0.98318754E+03</rscale>
<asrwt>0</asrwt>
<pdfrwt beam="1">  1        2 0.15850163E+00 0.98318754E+03</pdfrwt>
<pdfrwt beam="2">  1       -2 0.36087127E-01 0.98318754E+03</pdfrwt>
<totfact> 0.17368112E+02</totfact>
</mgrwt>
</event>
<event>
 6    1  0.1817112E-005  0.1217177E+04  0.7818608E-02  0.9097953E-01
         -4   -1    0    0    0  501 -0.00000000000E+00  0.00000000000E+00  0.19293375811E+04  0.19293375811E+04  0.00000000000E+00 0.  1.
          4   -1    0    0  501    0  0.00000000000E+00 -0.00000000000E+00 -0.19197248631E+03  0.19197248631E+03  0.00000000000E+00 0. -1.
         23    2    1    2    0    0  0.21707124099E+03  0.52395919573E+03  0.50623325762E+03  0.76582537072E+03  0.92537694254E+02 0.  0.
         13    1    3    3    0    0  0.18240365148E+02  0.84035263480E+01  0.74028577289E+01  0.21404029489E+02  0.00000000000E+00 0.  1.
        -13    1    3    3    0    0  0.19883087584E+03  0.51555566938E+03  0.49883039989E+03  0.74442134123E+03  0.00000000000E+00 0. -1.
         22    1    1    2    0    0 -0.21707124099E+03 -0.52395919573E+03  0.12311318371E+04  0.13554846966E+04  0.00000000000E+00 0.  1.
<mgrwt>
<rscale>  0 0.12171766E+04</rscale>
<asrwt>0</asrwt>
<pdfrwt beam="1">  1        4 0.29534230E-01 0.12171766E+04</pdfrwt>
<pdfrwt beam="2">  1       -4 0.29682115E+00 0.12171766E+04</pdfrwt>
<totfact> 0.71406265E-01</totfact>
</mgrwt>
</event>
<event>
 6    1  0.1817112E-005  0.3698193E+04  0.7818608E-02  0.8068362E-01
          2   -1    0    0  501    0  0.00000000000E+00  0.00000000000E+00  0.20213407542E+04  0.20213407542E+04  0.00000000000E+00 0. -1.
         -2   -1    0    0    0  501 -0.00000000000E+00 -0.00000000000E+00 -0.16915299352E+04  0.16915299352E+04  0.00000000000E+00 0.  1.
         23    2    1    2    0    0  0.81554456980E+03  0.16575155821E+01 -0.14998263357E+04  0.17097012481E+04  0.92106610922E+02 0.  0.
         11    1    3    3    0    0  0.19814385230E+03  0.17693754412E+02 -0.44351336109E+03  0.48608451592E+03  0.00000000000E+00 0.  1.
        -11    1    3    3    0    0  0.61740071749E+03 -0.16036238830E+02 -0.10563129746E+04  0.12236167322E+04  0.00000000000E+00 0. -1.
         22    1    1    2    0    0 -0.81554456980E+03 -0.16575155821E+01  0.18296371547E+04  0.20031694413E+04  0.00000000000E+00 0. -1.
<mgrwt>
<rscale>  0 0.36981933E+04</rscale>
<asrwt>0</asrwt>
<pdfrwt beam="1">  1        2 0.31097550E+00 0.36981933E+04</pdfrwt>
<pdfrwt beam="2">  1       -2 0.26023537E+00 0.36981933E+04</pdfrwt>
<totfact> 0.29230017E-01</totfact>
</mgrwt>
</event>
<event>
 6    1  0.1817112E-005  0.1873660E+04  0.7818608E-02  0.8668080E-01
          1   -1    0    0  501    0  0.00000000000E+00  0.00000000000E+00  0.87702120367E+03  0.87702120367E+03  0.00000000000E+00 0. -1.
         -1   -1    0    0    0  501 -0.00000000000E+00 -0.00000000000E+00 -0.10007169770E+04  0.10007169770E+04  0.00000000000E+00 0.  1.
         23    2    1    2    0    0 -0.39825237383E+03 -0.63213279983E+03  0.50066864522E+03  0.90407101114E+03  0.92078613159E+02 0.  0.
         11    1    3    3    0    0 -0.28869865536E+03 -0.39104772054E+03  0.35438922084E+03  0.60154547060E+03  0.00000000000E+00 0. -1.
        -11    1    3    3    0    0 -0.10955371847E+03 -0.24108507929E+03  0.14627942438E+03  0.30252554055E+03  0.00000000000E+00 0.  1.
         22    1    1    2    0    0  0.39825237383E+03  0.63213279983E+03 -0.62436441860E+03  0.97366716957E+03  0.00000000000E+00 0.  1.
<mgrwt>
<rscale>  0 0.18736595E+04</rscale>
<asrwt>0</asrwt>
<pdfrwt beam="1">  1        1 0.13492634E+00 0.18736595E+04</pdfrwt>
<pdfrwt beam="2">  1       -1 0.15395646E+00 0.18736595E+04</pdfrwt>
<totfact> 0.57952439E+00</totfact>
</mgrwt>
</event>
<event>
 6    1  0.1817112E-005  0.2803665E+04  0.7818608E-02  0.8302132E-01
         -2   -1    0    0    0  501 -0.00000000000E+00  0.00000000000E+00  0.18550399847E+04  0.18550399847E+04  0.00000000000E+00 0.  1.
          2   -1    0    0  501    0  0.00000000000E+00 -0.00000000000E+00 -0.10593484513E+04  0.10593484513E+04  0.00000000000E+00 0. -1.
         23    2    1    2    0    0  0.30637016484E+03  0.96031883418E+03 -0.61222501377E+03  0.11828273066E+04  0.90476674444E+02 0.  0.
         11    1    3    3    0    0  0.80875660351E+02  0.14545136367E+03 -0.10808436442E+03  0.19844193474E+03  0.00000000000E+00 0. -1.
        -11    1    3    3    0    0  0.22549450449E+03  0.81486747051E+03 -0.50414064935E+03  0.98438537189E+03  0.00000000000E+00 0.  1.
         22    1    1    2    0    0 -0.30637016484E+03 -0.96031883418E+03  0.14079165471E+04  0.17315611294E+04  0.00000000000E+00 0.  1.
<mgrwt>
<rscale>  0 0.28036646E+04</rscale>
<asrwt>0</asrwt>
<pdfrwt beam="1">  1        2 0.16297669E+00 0.28036646E+04</pdfrwt>
<pdfrwt beam="2">  1       -2 0.28539077E+00 0.28036646E+04</pdfrwt>
<totfact> 0.78426995E-01</totfact>
</mgrwt>
</event>
<event>
 6    1  0.1817112E-005  0.1607261E+04  0.7818608E-02  0.8816100E-01
          2   -1    0    0  501    0  0.00000000000E+00  0.00000000000E+00  0.18431765000E+04  0.18431765000E+04  0.00000000000E+00 0. -1.
         -2   -1    0    0    0  501 -0.00000000000E+00 -0.00000000000E+00 -0.35038511614E+03  0.35038511614E+03  0.00000000000E+00 0.  1.
         23    2    1    2    0    0 -0.49100330557E+03 -0.46572415754E+02  0.16102640651E+04  0.16865576054E+04  0.90955819136E+02 0.  0.
         13    1    3    3    0    0 -0.47969740238E+02 -0.32047503313E+02  0.21235147376E+03  0.22004837390E+03  0.00000000000E+00 0. -1.
        -13    1    3    3    0    0 -0.44303356534E+03 -0.14524912441E+02  0.13979125914E+04  0.14665092316E+04  0.00000000000E+00 0.  1.
         22    1    1    2    0    0  0.49100330557E+03  0.46572415754E+02 -0.11747268129E+03  0.50700401068E+03  0.00000000000E+00 0.  1.
<mgrwt>
<rscale>  0 0.16072605E+04</rscale>
<asrwt>0</asrwt>
<pdfrwt beam="1">  1        2 0.28356561E+00 0.16072605E+04</pdfrwt>
<pdfrwt beam="2">  1       -2 0.53905404E-01 0.16072605E+04</pdfrwt>
<totfact> 0.25367303E+01</totfact>
</mgrwt>
</event>
<event>
 6    1  0.1817112E-005  0.3301977E+04  0.7818608E-02  0.8162392E-01
          2   -1    0    0  501    0  0.00000000000E+00  0.00000000000E+00  0.33906594387E+04  0.33906594387E+04  0.00000000000E+00 0. -1.
         -2   -1    0    0    0  501 -0.00000000000E+00 -0.00000000000E+00 -0.80390369235E+03  0.80390369235E+03  0.00000000000E+00 0.  1.
         23    2    1    2    0    0  0.40223899461E+02  0.11833771812E+04  0.27535881601E+04  0.29988070651E+04  0.92717547599E+02 0.  0.
         13    1    3    3    0    0 -0.47042290174E+01  0.42133057509E+03  0.10825972048E+04  0.11617049071E+04  0.00000000000E+00 0. -1.
        -13    1    3    3    0    0  0.44928128479E+02  0.76204660609E+03  0.16709909553E+04  0.18371021581E+04  0.00000000000E+00 0.  1.
         22    1    1    2    0    0 -0.40223899461E+02 -0.11833771812E+04 -0.16683241368E+03  0.11957560660E+04  0.00000000000E+00 0.  1.
<mgrwt>
<rscale>  0 0.33019774E+04</rscale>
<asrwt>0</asrwt>
<pdfrwt beam="1">  1        2 0.52163991E+00 0.33019774E+04</pdfrwt>
<pdfrwt beam="2">  1       -2 0.12367749E+00 0.33019774E+04</pdfrwt>
<totfact> 0.39736368E-01</totfact>
</mgrwt>
</event>
<event>
 6    1  0.3124858E-005  0.3927989E+04  0.7818608E-02  0.8019233E-01
          2   -1    0    0  501    0  0.00000000000E+00  0.00000000000E+00  0.28631164017E+04  0.28631164017E+04  0.00000000000E+00 0. -1.
         -2   -1    0    0    0  501 -0.00000000000E+00 -0.00000000000E+00 -0.13472291803E+04  0.13472291803E+04  0.00000000000E+00 0.  1.
         23    2    1    2    0    0 -0.21835594141E+03 -0.51235615228E+03 -0.12591648049E+04  0.13799565818E+04  0.92714711343E+02 0.  0.
         11    1    3    3    0    0 -0.72881998230E+02 -0.28782329891E+03 -0.67883767671E+03  0.74092822081E+03  0.00000000000E+00 0. -1.
        -11    1    3    3    0    0 -0.14547394318E+03 -0.22453285337E+03 -0.58032712822E+03  0.63902836097E+03  0.00000000000E+00 0.  1.
         22    1    1    2    0    0  0.21835594141E+03  0.51235615228E+03  0.27750520263E+04  0.28303890003E+04  0.00000000000E+00 0. -1.
<mgrwt>
<rscale>  0 0.39279888E+04</rscale>
<asrwt>0</asrwt>
<pdfrwt beam="1">  1        2 0.44047944E+00 0.39279888E+04</pdfrwt>
<pdfrwt beam="2">  1       -2 0.20726603E+00 0.39279888E+04</pdfrwt>
<totfact> 0.20021020E-01</totfact>
</mgrwt>
</event>
<event>
 6    1  0.1817112E-005  0.3147326E+04  0.7818608E-02  0.8202868E-01
         -1   -1    0    0    0  501 -0.00000000000E+00  0.00000000000E+00  0.13119034071E+04  0.13119034071E+04  0.00000000000E+00 0.  1.
          1   -1    0    0  501    0  0.00000000000E+00 -0.00000000000E+00 -0.18876504813E+04  0.18876504813E+04  0.00000000000E+00 0. -1.
         23    2    1    2    0    0  0.14818212156E+04 -0.35782114194E+03 -0.68047240144E+03  0.16715494778E+04  0.84881582468E+02 0.  0.
         13    1    3    3    0    0  0.10135765133E+04 -0.28513432135E+03 -0.46854455972E+03  0.11524638536E+04  0.00000000000E+00 0.  1.
        -13    1    3    3    0    0  0.46824470229E+03 -0.72686820586E+02 -0.21192784172E+03  0.51908562416E+03  0.00000000000E+00 0. -1.
         22    1    1    2    0    0 -0.14818212156E+04  0.35782114194E+03  0.10472532723E+03  0.15280044106E+04  0.00000000000E+00 0.  1.
<mgrwt>
<rscale>  0 0.31473259E+04</rscale>
<asrwt>0</asrwt>
<pdfrwt beam="1">  1        1 0.29040777E+00 0.31473259E+04</pdfrwt>
<pdfrwt beam="2">  1       -1 0.20183129E+00 0.31473259E+04</pdfrwt>
<totfact> 0.43643607E-01</totfact>
</mgrwt>
</event>
<event>
 6    1  0.1817112E-005  0.1912007E+04  0.7818608E-02  0.8648903E-01
         -2   -1    0    0    0  501 -0.00000000000E+00  0.00000000000E+00  0.10065548144E+04  0.10065548144E+04  0.00000000000E+00 0.  1.
          2   -1    0    0  501    0  0.00000000000E+00 -0.00000000000E+00 -0.90799113133E+03  0.90799113133E+03  0.00000000000E+00 0. -1.
         23    2    1    2    0    0 -0.17653225152E+03 -0.51317387252E+03  0.83486437512E+03  0.99986033388E+03  0.90615137556E+02 0.  0.
         13    1    3    3    0    0  0.37826476624E+01 -0.53436500509E+02  0.11530646914E+03  0.12714302905E+03  0.00000000000E+00 0. -1.
        -13    1    3    3    0    0 -0.18031489918E+03 -0.45973737201E+03  0.71955790598E+03  0.87271730483E+03  0.00000000000E+00 0.  1.
         22    1    1    2    0    0  0.17653225152E+03  0.51317387252E+03 -0.73630069210E+03  0.91468561181E+03  0.00000000000E+00 0. -1.
<mgrwt>
<rscale>  0 0.19120072E+04</rscale>
<asrwt>0</asrwt>
<pdfrwt beam="1">  1        2 0.13969094E+00 0.19120072E+04</pdfrwt>
<pdfrwt beam="2">  1       -2 0.15485459E+00 0.19120072E+04</pdfrwt>
<totfact> 0.74553315E+00</totfact>
</mgrwt>
</event>
<event>
 6    1  0.1817112E-005  0.4129860E+04  0.7818608E-02  0.7978850E-01
         -2   -1    0    0    0  501 -0.00000000000E+00  0.00000000000E+00  0.14235007271E+04  0.14235007271E+04  0.00000000000E+00 0.  1.
          2   -1    0    0  501    0  0.00000000000E+00 -0.00000000000E+00 -0.29953866625E+04  0.29953866625E+04  0.00000000000E+00 0. -1.
         23    2    1    2    0    0 -0.16740243657E+04  0.12071508504E+04 -0.79842904604E+03  0.22148442157E+04  0.92060878556E+02 0.  0.
         13    1    3    3    0    0 -0.11928766847E+04  0.90616917626E+03 -0.59748299818E+03  0.16127874299E+04  0.00000000000E+00 0.  1.
        -13    1    3    3    0    0 -0.48114768103E+03  0.30098167418E+03 -0.20094604786E+03  0.60205678578E+03  0.00000000000E+00 0. -1.
         22    1    1    2    0    0  0.16740243657E+04 -0.12071508504E+04 -0.77345688944E+03  0.22040431739E+04  0.00000000000E+00 0. -1.
<mgrwt>
<rscale>  0 0.41298596E+04</rscale>
<asrwt>0</asrwt>
<pdfrwt beam="1">  1        2 0.46082871E+00 0.41298596E+04</pdfrwt>
<pdfrwt beam="2">  1       -2 0.21900011E+00 0.41298596E+04</pdfrwt>
<totfact> 0.13715274E-01</totfact>
</mgrwt>
</event>
<event>
 6    1  0.1817112E-005  0.1726637E+04  0.7818608E-02  0.8746317E-01
         -2   -1    0    0    0  501 -0.00000000000E+00  0.00000000000E+00  0.33319441863E+03  0.33319441863E+03  0.00000000000E+00 0.  1.
          2   -1    0    0  501    0  0.00000000000E+00 -0.00000000000E+00 -0.22368880628E+04  0.22368880628E+04  0.00000000000E+00 0. -1.
         23    2    1    2    0    0  0.72144851245E+03 -0.46185354577E+03 -0.10849032704E+04  0.13850869835E+04  0.87488239036E+02 0.  0.
         13    1    3    3    0    0  0.22198388836E+03 -0.12099642981E+03 -0.37918857808E+03  0.45574220834E+03  0.00000000000E+00 0.  1.
        -13    1    3    3    0    0  0.49946462409E+03 -0.34085711596E+03 -0.70571469234E+03  0.92934477520E+03  0.00000000000E+00 0. -1.
         22    1    1    2    0    0 -0.72144851245E+03  0.46185354577E+03 -0.81879037374E+03  0.11849954979E+04  0.00000000000E+00 0. -1.
<mgrwt>
<rscale>  0 0.17266368E+04</rscale>
<asrwt>0</asrwt>
<pdfrwt beam="1">  1        2 0.34413663E+00 0.17266368E+04</pdfrwt>
<pdfrwt beam="2">  1       -2 0.51260679E-01 0.17266368E+04</pdfrwt>
<totfact> 0.16817835E+01</totfact>
</mgrwt>
</event>
<event>
 6    1  0.1817112E-005  0.3199472E+04  0.7818608E-02  0.8188957E-01
         -2   -1    0    0    0  501 -0.00000000000E+00  0.00000000000E+00  0.10628611141E+04  0.10628611141E+04  0.00000000000E+00 0. -1.
          2   -1    0    0  501    0  0.00000000000E+00 -0.00000000000E+00 -0.24077979281E+04  0.24077979281E+04  0.00000000000E+00 0.  1.
         23    2    1    2    0    0  0.31343290520E+03  0.93212814643E+03 -0.20395802492E+04  0.22666521613E+04  0.10354400080E+03 0.  0.
         11    1    3    3    0    0  0.21027434809E+03  0.49500711218E+03 -0.10410602677E+04  0.11717737936E+04  0.00000000000E+00 0. -1.
        -11    1    3    3    0    0  0.10315855711E+03  0.43712103426E+03 -0.99851998152E+03  0.10948783677E+04  0.00000000000E+00 0.  1.
         22    1    1    2    0    0 -0.31343290520E+03 -0.93212814643E+03  0.69464343517E+03  0.12040068810E+04  0.00000000000E+00 0. -1.
<mgrwt>
<rscale>  0 0.31994717E+04</rscale>
<asrwt>0</asrwt>
<pdfrwt beam="1">  1        2 0.37043045E+00 0.31994717E+04</pdfrwt>
<pdfrwt beam="2">  1       -2 0.16351710E+00 0.31994717E+04</pdfrwt>
<totfact> 0.78632168E-01</totfact>
</mgrwt>
</event>
<event>
 6    1  0.1817112E-005  0.3758300E+04  0.7818608E-02  0.8055163E-01
         -2   -1    0    0    0  501 -0.00000000000E+00  0.00000000000E+00  0.20874151699E+04  0.20874151699E+04  0.00000000000E+00 0.  1.
          2   -1    0    0  501    0  0.00000000000E+00 -0.00000000000E+00 -0.16916635056E+04  0.16916635056E+04  0.00000000000E+00 0. -1.
         23    2    1    2    0    0 -0.14887741776E+04  0.11154715376E+04 -0.60922008846E+02  0.18635432030E+04  0.91413757965E+02 0.  0.
         11    1    3    3    0    0 -0.83093197188E+03  0.64156141828E+03 -0.77096390677E+02  0.10526123925E+04  0.00000000000E+00 0.  1.
        -11    1    3    3    0    0 -0.65784220570E+03  0.47391011928E+03  0.16174381831E+02  0.81093081049E+03  0.00000000000E+00 0. -1.
         22    1    1    2    0    0  0.14887741776E+04 -0.11154715376E+04  0.45667367311E+03  0.19155354726E+04  0.00000000000E+00 0.  1.
<mgrwt>
<rscale>  0 0.37582996E+04</rscale>
<asrwt>0</asrwt>
<pdfrwt beam="1">  1        2 0.26025592E+00 0.37582996E+04</pdfrwt>
<pdfrwt beam="2">  1       -2 0.32114080E+00 0.37582996E+04</pdfrwt>
<totfact> 0.18784946E-01</totfact>
</mgrwt>
</event>
<event>
 6    1  0.1817112E-005  0.2181662E+04  0.7818608E-02  0.8526100E-01
          2   -1    0    0  501    0  0.00000000000E+00  0.00000000000E+00  0.17098544952E+04  0.17098544952E+04  0.00000000000E+00 0. -1.
         -2   -1    0    0    0  501 -0.00000000000E+00 -0.00000000000E+00 -0.69591420824E+03  0.69591420824E+03  0.00000000000E+00 0.  1.
         23    2    1    2    0    0  0.25061693581E+03  0.84398377977E+03 -0.19892205210E+03  0.90705174465E+03  0.89751967281E+02 0.  0.
         13    1    3    3    0    0  0.41670343555E+02  0.20831806684E+03 -0.14313835887E+02  0.21292656105E+03  0.00000000000E+00 0. -1.
        -13    1    3    3    0    0  0.20894659226E+03  0.63566571293E+03 -0.18460821622E+03  0.69412518359E+03  0.00000000000E+00 0.  1.
         22    1    1    2    0    0 -0.25061693581E+03 -0.84398377977E+03  0.12128623390E+04  0.14987169588E+04  0.00000000000E+00 0. -1.
<mgrwt>
<rscale>  0 0.21816618E+04</rscale>
<asrwt>0</asrwt>
<pdfrwt beam="1">  1        2 0.26305454E+00 0.21816618E+04</pdfrwt>
<pdfrwt beam="2">  1       -2 0.10706372E+00 0.21816618E+04</pdfrwt>
<totfact> 0.62184566E+00</totfact>
</mgrwt>
</event>
<event>
 6    1  0.1817112E-005  0.1655741E+04  0.7818608E-02  0.8787017E-01
          2   -1    0    0  501    0  0.00000000000E+00  0.00000000000E+00  0.10517893886E+04  0.10517893886E+04  0.00000000000E+00 0. -1.
         -2   -1    0    0    0  501 -0.00000000000E+00 -0.00000000000E+00 -0.65162236032E+03  0.65162236032E+03  0.00000000000E+00 0.  1.
         23    2    1    2    0    0 -0.35905320641E+03  0.73973558077E+03  0.23971789013E+03  0.86563381864E+03  0.12541653255E+03 0.  0.
         11    1    3    3    0    0 -0.11697195479E+03  0.14979688918E+03  0.91611496192E+02  0.21098391514E+03  0.00000000000E+00 0. -1.
        -11    1    3    3    0    0 -0.24208125162E+03  0.58993869160E+03  0.14810639394E+03  0.65464990350E+03  0.00000000000E+00 0.  1.
         22    1    1    2    0    0  0.35905320641E+03 -0.73973558077E+03  0.16044913814E+03  0.83777793026E+03  0.00000000000E+00 0.  1.
<mgrwt>
<rscale>  0 0.16557409E+04</rscale>
<asrwt>0</asrwt>
<pdfrwt beam="1">  1        2 0.16181375E+00 0.16557409E+04</pdfrwt>
<pdfrwt beam="2">  1       -2 0.10024959E+00 0.16557409E+04</pdfrwt>
<totfact> 0.18309074E+01</totfact>
</mgrwt>
</event>
<event>
 6    1  0.1817112E-005  0.2742818E+04  0.7818608E-02  0.8321244E-01
         -1   -1    0    0    0  501 -0.00000000000E+00  0.00000000000E+00  0.67572768980E+03  0.67572768980E+03  0.00000000000E+00 0. -1.
          1   -1    0    0  501    0  0.00000000000E+00 -0.00000000000E+00 -0.27833142158E+04  0.27833142158E+04  0.00000000000E+00 0.  1.
         23    2    1    2    0    0 -0.50046047800E+03  0.12353564758E+04 -0.65601856982E+03  0.14883527257E+04  0.90923922642E+02 0.  0.
         13    1    3    3    0    0 -0.20478184336E+03  0.58765132905E+03 -0.34306179427E+03  0.71060613746E+03  0.00000000000E+00 0.  1.
        -13    1    3    3    0    0 -0.29567863463E+03  0.64770514679E+03 -0.31295677555E+03  0.77774658824E+03  0.00000000000E+00 0. -1.
         22    1    1    2    0    0  0.50046047800E+03 -0.12353564758E+04 -0.14515679562E+04  0.19706891799E+04  0.00000000000E+00 0.  1.
<mgrwt>
<rscale>  0 0.27428179E+04</rscale>
<asrwt>0</asrwt>
<pdfrwt beam="1">  1        1 0.42820219E+00 0.27428179E+04</pdfrwt>
<pdfrwt beam="2">  1       -1 0.10395810E+00 0.27428179E+04</pdfrwt>
<totfact> 0.64895839E-01</totfact>
</mgrwt>
</event>
<event>
 6    1  0.1817112E-005  0.3525586E+04  0.7818608E-02  0.8107753E-01
         -2   -1    0    0    0  501 -0.00000000000E+00  0.00000000000E+00  0.81641005412E+03  0.81641005412E+03  0.00000000000E+00 0.  1.
          2   -1    0    0  501    0  0.00000000000E+00 -0.00000000000E+00 -0.38062239767E+04  0.38062239767E+04  0.00000000000E+00 0. -1.
         23    2    1    2    0    0  0.14244366572E+03  0.17290355710E+04 -0.10950615449E+04  0.20535990415E+04  0.90857209768E+02 0.  0.
         11    1    3    3    0    0  0.37238132324E+02  0.28770448353E+03 -0.22071088155E+03  0.36451864366E+03  0.00000000000E+00 0.  1.
        -11    1    3    3    0    0  0.10520553340E+03  0.14413310874E+04 -0.87435066339E+03  0.16890803979E+04  0.00000000000E+00 0. -1.
         22    1    1    2    0    0 -0.14244366572E+03 -0.17290355710E+04 -0.18947523776E+04  0.25690349893E+04  0.00000000000E+00 0. -1.
<mgrwt>
<rscale>  0 0.35255862E+04</rscale>
<asrwt>0</asrwt>
<pdfrwt beam="1">  1        2 0.58557292E+00 0.35255862E+04</pdfrwt>
<pdfrwt beam="2">  1       -2 0.12560155E+00 0.35255862E+04</pdfrwt>
<totfact> 0.18827868E-01</totfact>
</mgrwt>
</event>
<event>
 6    1  0.1817112E-005  0.1228965E+04  0.7818608E-02  0.9087875E-01
          2   -1    0    0  501    0  0.00000000000E+00  0.00000000000E+00  0.67544683555E+03  0.67544683555E+03  0.00000000000E+00 0. -1.
         -2   -1    0    0    0  501 -0.00000000000E+00 -0.00000000000E+00 -0.55902056556E+03  0.55902056556E+03  0.00000000000E+00 0.  1.
         23    2    1    2    0    0 -0.26294651848E+03  0.21305431252E+03 -0.45254393953E+03  0.57245523279E+03  0.91520296524E+02 0.  0.
         11    1    3    3    0    0 -0.14549302976E+03  0.17148655800E+03 -0.31252051728E+03  0.38502588875E+03  0.00000000000E+00 0. -1.
        -11    1    3    3    0    0 -0.11745348873E+03  0.41567754517E+02 -0.14002342225E+03  0.18742934404E+03  0.00000000000E+00 0.  1.
         22    1    1    2    0    0  0.26294651848E+03 -0.21305431252E+03  0.56897020953E+03  0.66201216832E+03  0.00000000000E+00 0. -1.
<mgrwt>
<rscale>  0 0.12289649E+04</rscale>
<asrwt>0</asrwt>
<pdfrwt beam="1">  1        2 0.10391490E+00 0.12289649E+04</pdfrwt>
<pdfrwt beam="2">  1       -2 0.86003164E-01 0.12289649E+04</pdfrwt>
<totfact> 0.49540791E+01</totfact>
</mgrwt>
</event>
<event>
 6    1  0.1817112E-005  0.2405587E+04  0.7818608E-02  0.8437415E-01
         -1   -1    0    0    0  501 -0.00000000000E+00  0.00000000000E+00  0.13145839779E+04  0.13145839779E+04  0.00000000000E+00 0.  1.
          1   -1    0    0  501    0  0.00000000000E+00 -0.00000000000E+00 -0.11005099397E+04  0.11005099397E+04  0.00000000000E+00 0. -1.
         23    2    1    2    0    0  0.38582955060E+03  0.80461466395E+03 -0.69992225130E+03  0.11377300632E+04  0.90935907367E+02 0.  0.
         11    1    3    3    0    0  0.26673197038E+03  0.56234269737E+03 -0.43383273095E+03  0.75867390344E+03  0.00000000000E+00 0. -1.
        -11    1    3    3    0    0  0.11909758022E+03  0.24227196658E+03 -0.26608952034E+03  0.37905615974E+03  0.00000000000E+00 0.  1.
         22    1    1    2    0    0 -0.38582955060E+03 -0.80461466395E+03  0.91399628941E+03  0.12773638544E+04  0.00000000000E+00 0.  1.
<mgrwt>
<rscale>  0 0.24055874E+04</rscale>
<asrwt>0</asrwt>
<pdfrwt beam="1">  1        1 0.16930922E+00 0.24055874E+04</pdfrwt>
<pdfrwt beam="2">  1       -1 0.20224369E+00 0.24055874E+04</pdfrwt>
<totfact> 0.16479190E+00</totfact>
</mgrwt>
</event>
<event>
 6    1  0.1817112E-005  0.4808896E+04  0.7818608E-02  0.7858682E-01
         -2   -1    0    0    0  501 -0.00000000000E+00  0.00000000000E+00  0.16833317549E+04  0.16833317549E+04  0.00000000000E+00 0.  1.
          2   -1    0    0  501    0  0.00000000000E+00 -0.00000000000E+00 -0.34344812342E+04  0.34344812342E+04  0.00000000000E+00 0. -1.
         23    2    1    2    0    0  0.13646338821E+04 -0.77869350471E+03  0.10599069090E+04  0.18974671653E+04  0.91595747683E+02 0.  0.
         11    1    3    3    0    0  0.37315784312E+03 -0.18077500851E+03  0.24480194438E+03  0.48151258712E+03  0.00000000000E+00 0. -1.
        -11    1    3    3    0    0  0.99147603902E+03 -0.59791849619E+03  0.81510496466E+03  0.14159545782E+04  0.00000000000E+00 0.  1.
         22    1    1    2    0    0 -0.13646338821E+04  0.77869350471E+03 -0.28110563883E+04  0.32203458238E+04  0.00000000000E+00 0. -1.
<mgrwt>
<rscale>  0 0.48088965E+04</rscale>
<asrwt>0</asrwt>
<pdfrwt beam="1">  1        2 0.52838172E+00 0.48088965E+04</pdfrwt>
<pdfrwt beam="2">  1       -2 0.25897412E+00 0.48088965E+04</pdfrwt>
<totfact> 0.37709674E-02</totfact>
</mgrwt>
</event>
<event>
 6    1  0.1817112E-005  0.1707910E+04  0.7818608E-02  0.8756866E-01
         -2   -1    0    0    0  501 -0.00000000000E+00  0.00000000000E+00  0.64002247833E+03  0.64002247833E+03  0.00000000000E+00 0.  1.
          2   -1    0    0  501    0  0.00000000000E+00 -0.00000000000E+00 -0.11393965893E+04  0.11393965893E+04  0.00000000000E+00 0. -1.
         23    2    1    2    0    0 -0.28071159180E+03 -0.79738843668E+03 -0.14297468032E+03  0.86200538182E+03  0.89354363922E+02 0.  0.
         11    1    3    3    0    0 -0.11719524156E+03 -0.24087675660E+03 -0.73829052252E+02  0.27786159409E+03  0.00000000000E+00 0.  1.
        -11    1    3    3    0    0 -0.16351635024E+03 -0.55651168008E+03 -0.69145628073E+02  0.58414378773E+03  0.00000000000E+00 0. -1.
         22    1    1    2    0    0  0.28071159180E+03  0.79738843668E+03 -0.35639943064E+03  0.91741368579E+03  0.00000000000E+00 0.  1.
<mgrwt>
<rscale>  0 0.17079103E+04</rscale>
<asrwt>0</asrwt>
<pdfrwt beam="1">  1        2 0.17529178E+00 0.17079103E+04</pdfrwt>
<pdfrwt beam="2">  1       -2 0.98464997E-01 0.17079103E+04</pdfrwt>
<totfact> 0.16792370E+01</totfact>
</mgrwt>
</event>
<event>
 6    1  0.1817112E-005  0.1369827E+04  0.7818608E-02  0.8975953E-01
         -2   -1    0    0    0  501 -0.00000000000E+00  0.00000000000E+00  0.17120617005E+04  0.17120617005E+04  0.00000000000E+00 0.  1.
          2   -1    0    0  501    0  0.00000000000E+00 -0.00000000000E+00 -0.27400104830E+03  0.27400104830E+03  0.00000000000E+00 0. -1.
         23    2    1    2    0    0 -0.30051111635E+02  0.59366482926E+03  0.12062934925E+04  0.13480525490E+04  0.93598535954E+02 0.  0.
         13    1    3    3    0    0 -0.34620508738E+02  0.29563879116E+03  0.69791973148E+03  0.75874424285E+03  0.00000000000E+00 0.  1.
        -13    1    3    3    0    0  0.45693971030E+01  0.29802603810E+03  0.50837376101E+03  0.58930830611E+03  0.00000000000E+00 0. -1.
         22    1    1    2    0    0  0.30051111635E+02 -0.59366482926E+03  0.23176715975E+03  0.63801019988E+03  0.00000000000E+00 0. -1.
<mgrwt>
<rscale>  0 0.13698273E+04</rscale>
<asrwt>0</asrwt>
<pdfrwt beam="1">  1        2 0.42154009E-01 0.13698273E+04</pdfrwt>
<pdfrwt beam="2">  1       -2 0.26339410E+00 0.13698273E+04</pdfrwt>
<totfact> 0.63166328E+00</totfact>
</mgrwt>
</event>
<event>
 6    1  0.1817112E-005  0.2079069E+04  0.7818608E-02  0.8570520E-01
          2   -1    0    0  501    0  0.00000000000E+00  0.00000000000E+00  0.17536299467E+04  0.17536299467E+04  0.00000000000E+00 0. -1.
         -2   -1    0    0    0  501 -0.00000000000E+00 -0.00000000000E+00 -0.61622557779E+03  0.61622557779E+03  0.00000000000E+00 0.  1.
         23    2    1    2    0    0 -0.51115908520E+03 -0.38893450713E+03  0.14985576280E+04  0.16329801362E+04  0.91626958474E+02 0.  0.
         13    1    3    3    0    0 -0.43680345260E+03 -0.30920080561E+03  0.13112238469E+04  0.14162310444E+04  0.00000000000E+00 0.  1.
        -13    1    3    3    0    0 -0.74355632599E+02 -0.79733701514E+02  0.18733378114E+03  0.21674909184E+03  0.00000000000E+00 0. -1.
         22    1    1    2    0    0  0.51115908520E+03  0.38893450713E+03 -0.36115325915E+03  0.73687538825E+03  0.00000000000E+00 0.  1.
<mgrwt>
<rscale>  0 0.20790687E+04</rscale>
<asrwt>0</asrwt>
<pdfrwt beam="1">  1        2 0.26978922E+00 0.20790687E+04</pdfrwt>
<pdfrwt beam="2">  1       -2 0.94803936E-01 0.20790687E+04</pdfrwt>
<totfact> 0.79155738E+00</totfact>
</mgrwt>
</event>
<event>
 6    1  0.1817112E-005  0.2285043E+04  0.7818608E-02  0.8483842E-01
          2   -1    0    0  501    0  0.00000000000E+00  0.00000000000E+00  0.12624754118E+04  0.12624754118E+04  0.00000000000E+00 0. -1.
         -2   -1    0    0    0  501 -0.00000000000E+00 -0.00000000000E+00 -0.10339646025E+04  0.10339646025E+04  0.00000000000E+00 0.  1.
         23    2    1    2    0    0  0.22176229309E+03  0.63231744528E+03 -0.81338541621E+03  0.10576698132E+04  0.89809421924E+02 0.  0.
         11    1    3    3    0    0  0.17849886434E+03  0.40246169492E+03 -0.49268343590E+03  0.66073763966E+03  0.00000000000E+00 0.  1.
        -11    1    3    3    0    0  0.43263428752E+02  0.22985575035E+03 -0.32070198030E+03  0.39693217356E+03  0.00000000000E+00 0. -1.
         22    1    1    2    0    0 -0.22176229309E+03 -0.63231744528E+03  0.10418962256E+04  0.12387702011E+04  0.00000000000E+00 0. -1.
<mgrwt>
<rscale>  0 0.22850426E+04</rscale>
<asrwt>0</asrwt>
<pdfrwt beam="1">  1        2 0.19422699E+00 0.22850426E+04</pdfrwt>
<pdfrwt beam="2">  1       -2 0.15907148E+00 0.22850426E+04</pdfrwt>
<totfact> 0.40402005E+00</totfact>
</mgrwt>
</event>
<event>
 6    1  0.1817112E-005  0.1092292E+04  0.7818608E-02  0.9212737E-01
          2   -1    0    0  501    0  0.00000000000E+00  0.00000000000E+00  0.16172936292E+04  0.16172936292E+04  0.00000000000E+00 0. -1.
         -2   -1    0    0    0  501 -0.00000000000E+00 -0.00000000000E+00 -0.18442874537E+03  0.18442874537E+03  0.00000000000E+00 0.  1.
         23    2    1    2    0    0  0.46730477214E+03 -0.25996044124E+03  0.86927364982E+03  0.10248129461E+04  0.93014596020E+02 0.  0.
         13    1    3    3    0    0  0.26089512996E+03 -0.11375214075E+03  0.38902211063E+03  0.48202076815E+03  0.00000000000E+00 0.  1.
        -13    1    3    3    0    0  0.20640964218E+03 -0.14620830048E+03  0.48025153919E+03  0.54279217791E+03  0.00000000000E+00 0. -1.
         22    1    1    2    0    0 -0.46730477214E+03  0.25996044124E+03  0.56359123406E+03  0.77690942856E+03  0.00000000000E+00 0. -1.
<mgrwt>
<rscale>  0 0.10922920E+04</rscale>
<asrwt>0</asrwt>
<pdfrwt beam="1">  1        2 0.24881439E+00 0.10922920E+04</pdfrwt>
<pdfrwt beam="2">  1       -2 0.28373654E-01 0.10922920E+04</pdfrwt>
<totfact> 0.12317475E+02</totfact>
</mgrwt>
</event>
<event>
 6    1  0.1817112E-005  0.2025669E+04  0.7818608E-02  0.8594713E-01
         -2   -1    0    0    0  501 -0.00000000000E+00  0.00000000000E+00  0.11094037076E+04  0.11094037076E+04  0.00000000000E+00 0.  1.
          2   -1    0    0  501    0  0.00000000000E+00 -0.00000000000E+00 -0.92467127838E+03  0.92467127838E+03  0.00000000000E+00 0. -1.
         23    2    1    2    0    0 -0.21585595438E+03  0.18183603289E+03  0.10673004924E+04  0.11074766253E+04  0.87840757794E+02 0.  0.
         13    1    3    3    0    0 -0.43665400186E+02  0.23703395130E+01  0.22561313311E+03  0.22981203518E+03  0.00000000000E+00 0. -1.
        -13    1    3    3    0    0 -0.17219055420E+03  0.17946569338E+03  0.84168735926E+03  0.87766459014E+03  0.00000000000E+00 0.  1.
         22    1    1    2    0    0  0.21585595438E+03 -0.18183603289E+03 -0.88256806314E+03  0.92659836066E+03  0.00000000000E+00 0. -1.
<mgrwt>
<rscale>  0 0.20256690E+04</rscale>
<asrwt>0</asrwt>
<pdfrwt beam="1">  1        2 0.14225712E+00 0.20256690E+04</pdfrwt>
<pdfrwt beam="2">  1       -2 0.17067749E+00 0.20256690E+04</pdfrwt>
<totfact> 0.55135382E+00</totfact>
</mgrwt>
</event>
<event>
 6    1  0.1817112E-005  0.3617236E+04  0.7818608E-02  0.8086555E-01
         -2   -1    0    0    0  501 -0.00000000000E+00  0.00000000000E+00  0.90122444581E+03  0.90122444581E+03  0.00000000000E+00 0.  1.
          2   -1    0    0  501    0  0.00000000000E+00 -0.00000000000E+00 -0.36296156249E+04  0.36296156249E+04  0.00000000000E+00 0. -1.
         23    2    1    2    0    0  0.54815523915E+03 -0.43012786718E+03  0.72389351263E+03  0.10089437433E+04  0.91986472698E+02 0.  0.
         13    1    3    3    0    0  0.33706869245E+03 -0.31819837231E+03  0.46246604269E+03  0.65478267250E+03  0.00000000000E+00 0.  1.
        -13    1    3    3    0    0  0.21108654670E+03 -0.11192949487E+03  0.26142746994E+03  0.35416107079E+03  0.00000000000E+00 0. -1.
         22    1    1    2    0    0 -0.54815523915E+03  0.43012786718E+03 -0.34522846918E+04  0.35218963275E+04  0.00000000000E+00 0. -1.
<mgrwt>
<rscale>  0 0.36172356E+04</rscale>
<asrwt>0</asrwt>
<pdfrwt beam="1">  1        2 0.55840241E+00 0.36172356E+04</pdfrwt>
<pdfrwt beam="2">  1       -2 0.13864991E+00 0.36172356E+04</pdfrwt>
<totfact> 0.19662307E-01</totfact>
</mgrwt>
</event>
<event>
 6    1  0.1817112E-005  0.1399960E+04  0.7818608E-02  0.8953848E-01
         -2   -1    0    0    0  501 -0.00000000000E+00  0.00000000000E+00  0.34191883840E+03  0.34191883840E+03  0.00000000000E+00 0.  1.
          2   -1    0    0  501    0  0.00000000000E+00 -0.00000000000E+00 -0.14330060859E+04  0.14330060859E+04  0.00000000000E+00 0. -1.
         23    2    1    2    0    0  0.30910641489E+03  0.20072783019E+03  0.20183656511E+03  0.43049552013E+03  0.93541201076E+02 0.  0.
         11    1    3    3    0    0  0.16227350693E+03  0.73244379101E+02  0.53434923541E+02  0.18588362267E+03  0.00000000000E+00 0. -1.
        -11    1    3    3    0    0  0.14683290796E+03  0.12748345109E+03  0.14840164157E+03  0.24461189747E+03  0.00000000000E+00 0.  1.
         22    1    1    2    0    0 -0.30910641489E+03 -0.20072783019E+03 -0.12929238126E+04  0.13444294042E+04  0.00000000000E+00 0. -1.
<mgrwt>
<rscale>  0 0.13999597E+04</rscale>
<asrwt>0</asrwt>
<pdfrwt beam="1">  1        2 0.22046248E+00 0.13999597E+04</pdfrwt>
<pdfrwt beam="2">  1       -2 0.52602898E-01 0.13999597E+04</pdfrwt>
<totfact> 0.45973847E+01</totfact>
</mgrwt>
</event>
<event>
 6    1  0.1967875E-005  0.2933855E+04  0.7818608E-02  0.8262875E-01
          2   -1    0    0  501    0  0.00000000000E+00  0.00000000000E+00  0.21226558418E+04  0.21226558418E+04  0.00000000000E+00 0. -1.
         -2   -1    0    0    0  501 -0.00000000000E+00 -0.00000000000E+00 -0.10137658557E+04  0.10137658557E+04  0.00000000000E+00 0.  1.
         23    2    1    2    0    0  0.93042018388E+03 -0.10615745651E+04  0.97532012358E+03  0.17185136667E+04  0.97044336409E+02 0.  0.
         13    1    3    3    0    0  0.50735856830E+03 -0.51020827301E+03  0.47490683597E+03  0.86212626774E+03  0.00000000000E+00 0.  1.
        -13    1    3    3    0    0  0.42306161559E+03 -0.55136629206E+03  0.50041328761E+03  0.85638739892E+03  0.00000000000E+00 0. -1.
         22    1    1    2    0    0 -0.93042018388E+03  0.10615745651E+04  0.13356986259E+03  0.14179080309E+04  0.00000000000E+00 0.  1.
<mgrwt>
<rscale>  0 0.29338548E+04</rscale>
<asrwt>0</asrwt>
<pdfrwt beam="1">  1        2 0.32656244E+00 0.29338548E+04</pdfrwt>
<pdfrwt beam="2">  1       -2 0.15596398E+00 0.29338548E+04</pdfrwt>
<totfact> 0.13260543E+00</totfact>
</mgrwt>
</event>
<event>
 6    1  0.1817112E-005  0.1422736E+04  0.7818608E-02  0.8937523E-01
          2   -1    0    0  501    0  0.00000000000E+00  0.00000000000E+00  0.11090327902E+04  0.11090327902E+04  0.00000000000E+00 0. -1.
         -2   -1    0    0    0  501 -0.00000000000E+00 -0.00000000000E+00 -0.45629374671E+03  0.45629374671E+03  0.00000000000E+00 0.  1.
         23    2    1    2    0    0  0.97083051387E+02 -0.15699740008E+03  0.10802302296E+04  0.10996850259E+04  0.91304462906E+02 0.  0.
         13    1    3    3    0    0 -0.12992447659E+02 -0.29384546305E+02  0.28423070150E+03  0.28604081340E+03  0.00000000000E+00 0.  1.
        -13    1    3    3    0    0  0.11007549905E+03 -0.12761285377E+03  0.79599952806E+03  0.81364421255E+03  0.00000000000E+00 0. -1.
         22    1    1    2    0    0 -0.97083051387E+02  0.15699740008E+03 -0.42749118610E+03  0.46564151092E+03  0.00000000000E+00 0.  1.
<mgrwt>
<rscale>  0 0.14227364E+04</rscale>
<asrwt>0</asrwt>
<pdfrwt beam="1">  1        2 0.17062043E+00 0.14227364E+04</pdfrwt>
<pdfrwt beam="2">  1       -2 0.70199038E-01 0.14227364E+04</pdfrwt>
<totfact> 0.38616549E+01</totfact>
</mgrwt>
</event>
<event>
 6    1  0.1817112E-005  0.1607545E+04  0.7818608E-02  0.8815926E-01
         -2   -1    0    0    0  501 -0.00000000000E+00  0.00000000000E+00  0.12367870936E+04  0.12367870936E+04  0.00000000000E+00 0.  1.
          2   -1    0    0  501    0  0.00000000000E+00 -0.00000000000E+00 -0.52236190662E+03  0.52236190662E+03  0.00000000000E+00 0. -1.
         23    2    1    2    0    0 -0.35754675755E+03  0.16421750264E+03 -0.40583808521E+03  0.57180032732E+03  0.86278565715E+02 0.  0.
         11    1    3    3    0    0 -0.19274891013E+03  0.95836038638E+02 -0.16080812392E+03  0.26869302443E+03  0.00000000000E+00 0. -1.
        -11    1    3    3    0    0 -0.16479784742E+03  0.68381464002E+02 -0.24502996129E+03  0.30310730288E+03  0.00000000000E+00 0.  1.
         22    1    1    2    0    0  0.35754675755E+03 -0.16421750264E+03  0.11202632722E+04  0.11873486729E+04  0.00000000000E+00 0.  1.
<mgrwt>
<rscale>  0 0.16075453E+04</rscale>
<asrwt>0</asrwt>
<pdfrwt beam="1">  1        2 0.80363371E-01 0.16075453E+04</pdfrwt>
<pdfrwt beam="2">  1       -2 0.19027494E+00 0.16075453E+04</pdfrwt>
<totfact> 0.86455117E+00</totfact>
</mgrwt>
</event>
<event>
 6    1  0.1817112E-005  0.3188638E+04  0.7818608E-02  0.8191824E-01
         -2   -1    0    0    0  501 -0.00000000000E+00  0.00000000000E+00  0.97679241587E+03  0.97679241587E+03  0.00000000000E+00 0.  1.
          2   -1    0    0  501    0  0.00000000000E+00 -0.00000000000E+00 -0.26022441178E+04  0.26022441178E+04  0.00000000000E+00 0. -1.
         23    2    1    2    0    0 -0.75584717252E+03 -0.73776413882E+03  0.52513749269E+03  0.11830743560E+04  0.91075095024E+02 0.  0.
         13    1    3    3    0    0 -0.29146145929E+03 -0.34030085981E+03  0.19906593217E+03  0.49028736756E+03  0.00000000000E+00 0.  1.
        -13    1    3    3    0    0 -0.46438571323E+03 -0.39746327901E+03  0.32607156052E+03  0.69278698847E+03  0.00000000000E+00 0. -1.
         22    1    1    2    0    0  0.75584717252E+03  0.73776413882E+03 -0.21505891947E+04  0.23959621777E+04  0.00000000000E+00 0. -1.
<mgrwt>
<rscale>  0 0.31886375E+04</rscale>
<asrwt>0</asrwt>
<pdfrwt beam="1">  1        2 0.40034525E+00 0.31886375E+04</pdfrwt>
<pdfrwt beam="2">  1       -2 0.15027576E+00 0.31886375E+04</pdfrwt>
<totfact> 0.76224263E-01</totfact>
</mgrwt>
</event>
<event>
 6    1  0.1817112E-005  0.2321397E+04  0.7818608E-02  0.8469532E-01
          2   -1    0    0  501    0  0.00000000000E+00  0.00000000000E+00  0.14910337451E+04  0.14910337451E+04  0.00000000000E+00 0. -1.
         -2   -1    0    0    0  501 -0.00000000000E+00 -0.00000000000E+00 -0.90354838575E+03  0.90354838575E+03  0.00000000000E+00 0.  1.
         23    2    1    2    0    0  0.81052346915E+03  0.76980153105E+03  0.60947580401E+03  0.12765363935E+04  0.92421409677E+02 0.  0.
         13    1    3    3    0    0  0.15492629212E+03  0.13940973108E+03  0.15544276791E+03  0.25999939078E+03  0.00000000000E+00 0.  1.
        -13    1    3    3    0    0  0.65559717703E+03  0.63039179998E+03  0.45403303610E+03  0.10165370027E+04  0.00000000000E+00 0. -1.
         22    1    1    2    0    0 -0.81052346915E+03 -0.76980153105E+03 -0.21990444622E+02  0.11180457374E+04  0.00000000000E+00 0. -1.
<mgrwt>
<rscale>  0 0.23213971E+04</rscale>
<asrwt>0</asrwt>
<pdfrwt beam="1">  1        2 0.22938981E+00 0.23213971E+04</pdfrwt>
<pdfrwt beam="2">  1       -2 0.13900744E+00 0.23213971E+04</pdfrwt>
<totfact> 0.42532542E+00</totfact>
</mgrwt>
</event>
<event>
 6    1  0.1817112E-005  0.4300922E+04  0.7818608E-02  0.7946448E-01
         -2   -1    0    0    0  501 -0.00000000000E+00  0.00000000000E+00  0.24836624750E+04  0.24836624750E+04  0.00000000000E+00 0.  1.
          2   -1    0    0  501    0  0.00000000000E+00 -0.00000000000E+00 -0.18619606878E+04  0.18619606878E+04  0.00000000000E+00 0. -1.
         23    2    1    2    0    0 -0.72650692334E+03  0.16904242508E+04  0.14338551880E+04  0.23344196416E+04  0.90707804051E+02 0.  0.
         13    1    3    3    0    0 -0.50529599698E+03  0.12731349911E+04  0.10542846462E+04  0.17285001780E+04  0.00000000000E+00 0. -1.
        -13    1    3    3    0    0 -0.22121092636E+03  0.41728925966E+03  0.37957054182E+03  0.60591946361E+03  0.00000000000E+00 0.  1.
         22    1    1    2    0    0  0.72650692334E+03 -0.16904242508E+04 -0.81215340079E+03  0.20112035212E+04  0.00000000000E+00 0. -1.
<mgrwt>
<rscale>  0 0.43009217E+04</rscale>
<asrwt>0</asrwt>
<pdfrwt beam="1">  1        2 0.28645549E+00 0.43009217E+04</pdfrwt>
<pdfrwt beam="2">  1       -2 0.38210192E+00 0.43009217E+04</pdfrwt>
<totfact> 0.59553653E-02</totfact>
</mgrwt>
</event>
<event>
 6    1  0.1817112E-005  0.2254996E+04  0.7818608E-02  0.8495880E-01
         -1   -1    0    0    0  501 -0.00000000000E+00  0.00000000000E+00  0.18772262816E+04  0.18772262816E+04  0.00000000000E+00 0.  1.
          1   -1    0    0  501    0  0.00000000000E+00 -0.00000000000E+00 -0.67719662690E+03  0.67719662690E+03  0.00000000000E+00 0. -1.
         23    2    1    2    0    0 -0.50824875550E+03 -0.84750410013E+03 -0.97093696336E+01  0.99235744758E+03  0.89994637068E+02 0.  0.
         13    1    3    3    0    0 -0.41245070966E+03 -0.74641475144E+03 -0.61410213350E+00  0.85279009503E+03  0.00000000000E+00 0. -1.
        -13    1    3    3    0    0 -0.95798045846E+02 -0.10108934870E+03 -0.90952675001E+01  0.13956735255E+03  0.00000000000E+00 0.  1.
         22    1    1    2    0    0  0.50824875550E+03  0.84750410013E+03  0.12097390243E+04  0.15620654609E+04  0.00000000000E+00 0.  1.
<mgrwt>
<rscale>  0 0.22549956E+04</rscale>
<asrwt>0</asrwt>
<pdfrwt beam="1">  1        1 0.10418410E+00 0.22549956E+04</pdfrwt>
<pdfrwt beam="2">  1       -1 0.28880404E+00 0.22549956E+04</pdfrwt>
<totfact> 0.10147190E+00</totfact>
</mgrwt>
</event>
<event>
 6    1  0.1817112E-005  0.2478438E+04  0.7818608E-02  0.8410708E-01
         -1   -1    0    0    0  501 -0.00000000000E+00  0.00000000000E+00  0.95819605494E+03  0.95819605494E+03  0.00000000000E+00 0.  1.
          1   -1    0    0  501    0  0.00000000000E+00 -0.00000000000E+00 -0.16026615779E+04  0.16026615779E+04  0.00000000000E+00 0. -1.
         23    2    1    2    0    0  0.93711343941E+03 -0.73224189350E+03 -0.67599983175E+03  0.13711710348E+04  0.93672008942E+02 0.  0.
         11    1    3    3    0    0  0.43009062767E+03 -0.39118384427E+03 -0.34969552388E+03  0.67844653986E+03  0.00000000000E+00 0.  1.
        -11    1    3    3    0    0  0.50702281174E+03 -0.34105804923E+03 -0.32630430787E+03  0.69272449495E+03  0.00000000000E+00 0. -1.
         22    1    1    2    0    0 -0.93711343941E+03  0.73224189350E+03  0.31534308792E+02  0.11896865980E+04  0.00000000000E+00 0.  1.
<mgrwt>
<rscale>  0 0.24784382E+04</rscale>
<asrwt>0</asrwt>
<pdfrwt beam="1">  1        1 0.24656332E+00 0.24784382E+04</pdfrwt>
<pdfrwt beam="2">  1       -1 0.14741478E+00 0.24784382E+04</pdfrwt>
<totfact> 0.18082079E+00</totfact>
</mgrwt>
</event>
<event>
 6    1  0.1817112E-005  0.2073633E+04  0.7818608E-02  0.8572948E-01
          2   -1    0    0  501    0  0.00000000000E+00  0.00000000000E+00  0.10394949986E+04  0.10394949986E+04  0.00000000000E+00 0. -1.
         -2   -1    0    0    0  501 -0.00000000000E+00 -0.00000000000E+00 -0.10341453914E+04  0.10341453914E+04  0.00000000000E+00 0.  1.
         23    2    1    2    0    0 -0.24213424674E+03  0.38730557740E+03 -0.92607184850E+03  0.10362491755E+04  0.86998169179E+02 0.  0.
         11    1    3    3    0    0 -0.15322265439E+03  0.24260248530E+03 -0.48381987327E+03  0.56250761548E+03  0.00000000000E+00 0. -1.
        -11    1    3    3    0    0 -0.88911592353E+02  0.14470309210E+03 -0.44225197523E+03  0.47374156004E+03  0.00000000000E+00 0.  1.
         22    1    1    2    0    0  0.24213424674E+03 -0.38730557740E+03  0.93142145572E+03  0.10373912145E+04  0.00000000000E+00 0. -1.
<mgrwt>
<rscale>  0 0.20736335E+04</rscale>
<asrwt>0</asrwt>
<pdfrwt beam="1">  1        2 0.15992231E+00 0.20736335E+04</pdfrwt>
<pdfrwt beam="2">  1       -2 0.15909929E+00 0.20736335E+04</pdfrwt>
<totfact> 0.56143661E+00</totfact>
</mgrwt>
</event>
<event>
 6    1  0.1817112E-005  0.1630708E+04  0.7818608E-02  0.8801902E-01
         -2   -1    0    0    0  501 -0.00000000000E+00  0.00000000000E+00  0.69673425949E+03  0.69673425949E+03  0.00000000000E+00 0.  1.
          2   -1    0    0  501    0  0.00000000000E+00 -0.00000000000E+00 -0.95416875566E+03  0.95416875566E+03  0.00000000000E+00 0. -1.
         23    2    1    2    0    0 -0.69668082225E+03  0.99352602807E+02 -0.54069665398E+03  0.89230393933E+03  0.92835018977E+02 0.  0.
         11    1    3    3    0    0 -0.19036092506E+03  0.11616509621E+01 -0.10658629266E+03  0.21817256703E+03  0.00000000000E+00 0.  1.
        -11    1    3    3    0    0 -0.50631989719E+03  0.98190951845E+02 -0.43411036131E+03  0.67413137230E+03  0.00000000000E+00 0. -1.
         22    1    1    2    0    0  0.69668082225E+03 -0.99352602807E+02  0.28326215781E+03  0.75859907582E+03  0.00000000000E+00 0.  1.
<mgrwt>
<rscale>  0 0.16307079E+04</rscale>
<asrwt>0</asrwt>
<pdfrwt beam="1">  1        2 0.14679519E+00 0.16307079E+04</pdfrwt>
<pdfrwt beam="2">  1       -2 0.10718989E+00 0.16307079E+04</pdfrwt>
<totfact> 0.18055357E+01</totfact>
</mgrwt>
</event>
<event>
 6    1  0.1817112E-005  0.1807723E+04  0.7818608E-02  0.8702203E-01
          2   -1    0    0  501    0  0.00000000000E+00  0.00000000000E+00  0.74048394353E+03  0.74048394353E+03  0.00000000000E+00 0. -1.
         -2   -1    0    0    0  501 -0.00000000000E+00 -0.00000000000E+00 -0.11032865262E+04  0.11032865262E+04  0.00000000000E+00 0.  1.
         23    2    1    2    0    0  0.63206033153E+03 -0.57704919093E+03  0.10736433617E+03  0.86727522500E+03  0.90294981966E+02 0.  0.
         13    1    3    3    0    0  0.43888114458E+03 -0.44273876432E+03  0.10365606756E+03  0.63196428130E+03  0.00000000000E+00 0. -1.
        -13    1    3    3    0    0  0.19317918696E+03 -0.13431042661E+03  0.37082686110E+01  0.23531094370E+03  0.00000000000E+00 0.  1.
         22    1    1    2    0    0 -0.63206033153E+03  0.57704919093E+03 -0.47016691889E+03  0.97649524478E+03  0.00000000000E+00 0.  1.
<mgrwt>
<rscale>  0 0.18077234E+04</rscale>
<asrwt>0</asrwt>
<pdfrwt beam="1">  1        2 0.11392061E+00 0.18077234E+04</pdfrwt>
<pdfrwt beam="2">  1       -2 0.16973639E+00 0.18077234E+04</pdfrwt>
<totfact> 0.76952163E+00</totfact>
</mgrwt>
</event>
<event>
 6    1  0.1817112E-005  0.4598248E+04  0.7818608E-02  0.7893659E-01
          2   -1    0    0  501    0  0.00000000000E+00  0.00000000000E+00  0.33153980803E+04  0.33153980803E+04  0.00000000000E+00 0. -1.
         -2   -1    0    0    0  501 -0.00000000000E+00 -0.00000000000E+00 -0.15943701208E+04  0.15943701208E+04  0.00000000000E+00 0.  1.
         23    2    1    2    0    0 -0.24776828010E+03 -0.17565851741E+04 -0.69926320867E+03  0.19089699851E+04  0.90646425503E+02 0.  0.
         13    1    3    3    0    0 -0.49674604249E+01 -0.26538231242E+03 -0.10139096918E+03  0.28413478498E+03  0.00000000000E+00 0. -1.
        -13    1    3    3    0    0 -0.24280081967E+03 -0.14912028617E+04 -0.59787223949E+03  0.16248352001E+04  0.00000000000E+00 0.  1.
         22    1    1    2    0    0  0.24776828010E+03  0.17565851741E+04  0.24202911682E+04  0.30007982160E+04  0.00000000000E+00 0. -1.
<mgrwt>
<rscale>  0 0.45982482E+04</rscale>
<asrwt>0</asrwt>
<pdfrwt beam="1">  1        2 0.51006124E+00 0.45982482E+04</pdfrwt>
<pdfrwt beam="2">  1       -2 0.24528771E+00 0.45982482E+04</pdfrwt>
<totfact> 0.56106430E-02</totfact>
</mgrwt>
</event>
<event>
 6    1  0.1817112E-005  0.4974243E+03  0.7818608E-02  0.1014453E+00
          2   -1    0    0  501    0  0.00000000000E+00  0.00000000000E+00  0.71350958250E+03  0.71350958250E+03  0.00000000000E+00 0. -1.
         -2   -1    0    0    0  501 -0.00000000000E+00 -0.00000000000E+00 -0.86695041526E+02  0.86695041526E+02  0.00000000000E+00 0.  1.
         23    2    1    2    0    0  0.18204915403E+03  0.14322952171E+03  0.21882593290E+03  0.33104442250E+03  0.89716388618E+02 0.  0.
         11    1    3    3    0    0  0.15988519633E+03  0.10196659629E+03  0.21076372241E+03  0.28351685920E+03  0.00000000000E+00 0. -1.
        -11    1    3    3    0    0  0.22163957708E+02  0.41262925425E+02  0.80622104835E+01  0.47527563305E+02  0.00000000000E+00 0.  1.
         22    1    1    2    0    0 -0.18204915403E+03 -0.14322952171E+03  0.40798860808E+03  0.46916020152E+03  0.00000000000E+00 0. -1.
<mgrwt>
<rscale>  0 0.49742434E+03</rscale>
<asrwt>0</asrwt>
<pdfrwt beam="1">  1        2 0.10977070E+00 0.49742434E+03</pdfrwt>
<pdfrwt beam="2">  1       -2 0.13337699E-01 0.49742434E+03</pdfrwt>
<totfact> 0.17087527E+03</totfact>
</mgrwt>
</event>
<event>
 6    1  0.1817112E-005  0.1998906E+04  0.7818608E-02  0.8607132E-01
          2   -1    0    0  501    0  0.00000000000E+00  0.00000000000E+00  0.46496570475E+03  0.46496570475E+03  0.00000000000E+00 0. -1.
         -2   -1    0    0    0  501 -0.00000000000E+00 -0.00000000000E+00 -0.21483446595E+04  0.21483446595E+04  0.00000000000E+00 0.  1.
         23    2    1    2    0    0 -0.16419925534E+03  0.14303893450E+02 -0.21294261480E+04  0.21377852909E+04  0.92218399686E+02 0.  0.
         13    1    3    3    0    0 -0.13409122510E+03  0.48858596560E+02 -0.16632723168E+04  0.16693838441E+04  0.00000000000E+00 0. -1.
        -13    1    3    3    0    0 -0.30108030245E+02 -0.34554703110E+02 -0.46615383120E+03  0.46840144677E+03  0.00000000000E+00 0.  1.
         22    1    1    2    0    0  0.16419925534E+03 -0.14303893450E+02  0.44604719324E+03  0.47552507339E+03  0.00000000000E+00 0. -1.
<mgrwt>
<rscale>  0 0.19989063E+04</rscale>
<asrwt>0</asrwt>
<pdfrwt beam="1">  1        2 0.71533185E-01 0.19989063E+04</pdfrwt>
<pdfrwt beam="2">  1       -2 0.33051456E+00 0.19989063E+04</pdfrwt>
<totfact> 0.12849196E+00</totfact>
</mgrwt>
</event>
<event>
 6    1  0.1817112E-005  0.2416452E+04  0.7818608E-02  0.8433370E-01
         -1   -1    0    0    0  501 -0.00000000000E+00  0.00000000000E+00  0.16027683823E+04  0.16027683823E+04  0.00000000000E+00 0.  1.
          1   -1    0    0  501    0  0.00000000000E+00 -0.00000000000E+00 -0.91080575734E+03  0.91080575734E+03  0.00000000000E+00 0. -1.
         23    2    1    2    0    0 -0.41292553443E+03 -0.54775573372E+03 -0.68575624918E+03  0.97453121076E+03  0.94369521837E+02 0.  0.
         13    1    3    3    0    0 -0.18227893882E+03 -0.28282172365E+03 -0.39217146599E+03  0.51673223011E+03  0.00000000000E+00 0.  1.
        -13    1    3    3    0    0 -0.23064659561E+03 -0.26493401007E+03 -0.29358478319E+03  0.45779898065E+03  0.00000000000E+00 0. -1.
         22    1    1    2    0    0  0.41292553443E+03  0.54775573372E+03  0.13777188742E+04  0.15390429289E+04  0.00000000000E+00 0.  1.
<mgrwt>
<rscale>  0 0.24164525E+04</rscale>
<asrwt>0</asrwt>
<pdfrwt beam="1">  1        1 0.14012396E+00 0.24164525E+04</pdfrwt>
<pdfrwt beam="2">  1       -1 0.24657975E+00 0.24164525E+04</pdfrwt>
<totfact> 0.11711067E+00</totfact>
</mgrwt>
</event>
<event>
 6    1  0.1817112E-005  0.1434319E+04  0.7818608E-02  0.8929345E-01
          1   -1    0    0  501    0  0.00000000000E+00  0.00000000000E+00  0.16013894814E+04  0.16013894814E+04  0.00000000000E+00 0. -1.
         -1   -1    0    0    0  501 -0.00000000000E+00 -0.00000000000E+00 -0.32116967111E+03  0.32116967111E+03  0.00000000000E+00 0.  1.
         23    2    1    2    0    0  0.19349469517E+03  0.23151911518E+03 -0.22497795593E+03  0.38741693981E+03  0.91845015352E+02 0.  0.
         13    1    3    3    0    0  0.50011619842E+02  0.12795546089E+03 -0.11419002008E+03  0.17864244394E+03  0.00000000000E+00 0.  1.
        -13    1    3    3    0    0  0.14348307533E+03  0.10356365429E+03 -0.11078793585E+03  0.20877449587E+03  0.00000000000E+00 0. -1.
         22    1    1    2    0    0 -0.19349469517E+03 -0.23151911518E+03  0.15051977662E+04  0.15351422127E+04  0.00000000000E+00 0. -1.
<mgrwt>
<rscale>  0 0.14343190E+04</rscale>
<asrwt>0</asrwt>
<pdfrwt beam="1">  1        1 0.24636761E+00 0.14343190E+04</pdfrwt>
<pdfrwt beam="2">  1       -1 0.49410719E-01 0.14343190E+04</pdfrwt>
<totfact> 0.22229051E+01</totfact>
</mgrwt>
</event>
<event>
 6    1  0.1817112E-005  0.3278909E+04  0.7818608E-02  0.8168283E-01
          2   -1    0    0  501    0  0.00000000000E+00  0.00000000000E+00  0.23485914769E+04  0.23485914769E+04  0.00000000000E+00 0. -1.
         -2   -1    0    0    0  501 -0.00000000000E+00 -0.00000000000E+00 -0.11444355831E+04  0.11444355831E+04  0.00000000000E+00 0.  1.
         23    2    1    2    0    0 -0.66304471908E+03  0.19622944773E+02 -0.99321414659E+03  0.11977169604E+04  0.89656102315E+02 0.  0.
         13    1    3    3    0    0 -0.15464239982E+03  0.18361766129E+02 -0.30052849013E+03  0.33848013185E+03  0.00000000000E+00 0.  1.
        -13    1    3    3    0    0 -0.50840231926E+03  0.12611786440E+01 -0.69268565646E+03  0.85923682851E+03  0.00000000000E+00 0. -1.
         22    1    1    2    0    0  0.66304471908E+03 -0.19622944773E+02  0.21973700403E+04  0.22953100997E+04  0.00000000000E+00 0. -1.
<mgrwt>
<rscale>  0 0.32789094E+04</rscale>
<asrwt>0</asrwt>
<pdfrwt beam="1">  1        2 0.36132177E+00 0.32789094E+04</pdfrwt>
<pdfrwt beam="2">  1       -2 0.17606701E+00 0.32789094E+04</pdfrwt>
<totfact> 0.68728220E-01</totfact>
</mgrwt>
</event>
<event>
 6    1  0.1817112E-005  0.2343148E+04  0.7818608E-02  0.8461100E-01
          2   -1    0    0  501    0  0.00000000000E+00  0.00000000000E+00  0.15853327444E+04  0.15853327444E+04  0.00000000000E+00 0. -1.
         -2   -1    0    0    0  501 -0.00000000000E+00 -0.00000000000E+00 -0.86580285684E+03  0.86580285684E+03  0.00000000000E+00 0.  1.
         23    2    1    2    0    0  0.40167217596E+03 -0.99578489240E+03 -0.12465718340E+03  0.10852732730E+04  0.96698370616E+02 0.  0.
         11    1    3    3    0    0  0.63727448307E+02 -0.18936921864E+03  0.12598952221E+02  0.20020145413E+03  0.00000000000E+00 0.  1.
        -11    1    3    3    0    0  0.33794472765E+03 -0.80641567376E+03 -0.13725613562E+03  0.88507181889E+03  0.00000000000E+00 0. -1.
         22    1    1    2    0    0 -0.40167217596E+03  0.99578489240E+03  0.84418707095E+03  0.13658623282E+04  0.00000000000E+00 0. -1.
<mgrwt>
<rscale>  0 0.23431480E+04</rscale>
<asrwt>0</asrwt>
<pdfrwt beam="1">  1        2 0.24389734E+00 0.23431480E+04</pdfrwt>
<pdfrwt beam="2">  1       -2 0.13320044E+00 0.23431480E+04</pdfrwt>
<totfact> 0.41925178E+00</totfact>
</mgrwt>
</event>
<event>
 6    1  0.1817112E-005  0.2757789E+04  0.7818608E-02  0.8316494E-01
          2   -1    0    0  501    0  0.00000000000E+00  0.00000000000E+00  0.14509971868E+04  0.14509971868E+04  0.00000000000E+00 0. -1.
         -2   -1    0    0    0  501 -0.00000000000E+00 -0.00000000000E+00 -0.13103743001E+04  0.13103743001E+04  0.00000000000E+00 0.  1.
         23    2    1    2    0    0 -0.53108065308E+03 -0.98698122917E+03 -0.73136893755E+03  0.13413192525E+04  0.89767519881E+02 0.  0.
         11    1    3    3    0    0 -0.49822166979E+03 -0.92103342522E+03 -0.65463915816E+03  0.12349412253E+04  0.00000000000E+00 0. -1.
        -11    1    3    3    0    0 -0.32858983284E+02 -0.65947803946E+02 -0.76729779396E+02  0.10637802721E+03  0.00000000000E+00 0.  1.
         22    1    1    2    0    0  0.53108065308E+03  0.98698122917E+03  0.87199182418E+03  0.14200522343E+04  0.00000000000E+00 0. -1.
<mgrwt>
<rscale>  0 0.27577886E+04</rscale>
<asrwt>0</asrwt>
<pdfrwt beam="1">  1        2 0.22323034E+00 0.27577886E+04</pdfrwt>
<pdfrwt beam="2">  1       -2 0.20159605E+00 0.27577886E+04</pdfrwt>
<totfact> 0.15342404E+00</totfact>
</mgrwt>
</event>
<event>
 6    1  0.1817112E-005  0.3099385E+04  0.7818608E-02  0.8215907E-01
          2   -1    0    0  501    0  0.00000000000E+00  0.00000000000E+00  0.30277573471E+04  0.30277573471E+04  0.00000000000E+00 0. -1.
         -2   -1    0    0    0  501 -0.00000000000E+00 -0.00000000000E+00 -0.79317694883E+03  0.79317694883E+03  0.00000000000E+00 0.  1.
         23    2    1    2    0    0  0.25161355242E+03 -0.96602924321E+03  0.25773955717E+04  0.27654514105E+04  0.90728673765E+02 0.  0.
         11    1    3    3    0    0  0.66679791421E+02 -0.41736687700E+03  0.11397179899E+04  0.12155650542E+04  0.00000000000E+00 0. -1.
        -11    1    3    3    0    0  0.18493376100E+03 -0.54866236621E+03  0.14376775818E+04  0.15498863563E+04  0.00000000000E+00 0.  1.
         22    1    1    2    0    0 -0.25161355242E+03  0.96602924321E+03 -0.34281517337E+03  0.10554828855E+04  0.00000000000E+00 0.  1.
<mgrwt>
<rscale>  0 0.30993853E+04</rscale>
<asrwt>0</asrwt>
<pdfrwt beam="1">  1        2 0.46580882E+00 0.30993853E+04</pdfrwt>
<pdfrwt beam="2">  1       -2 0.12202722E+00 0.30993853E+04</pdfrwt>
<totfact> 0.72272846E-01</totfact>
</mgrwt>
</event>
<event>
 6    1  0.3110747E-005  0.4558381E+04  0.7818608E-02  0.7900495E-01
          2   -1    0    0  501    0  0.00000000000E+00  0.00000000000E+00  0.29374249052E+04  0.29374249052E+04  0.00000000000E+00 0. -1.
         -2   -1    0    0    0  501 -0.00000000000E+00 -0.00000000000E+00 -0.17684566745E+04  0.17684566745E+04  0.00000000000E+00 0.  1.
         23    2    1    2    0    0 -0.81098651574E+03  0.17907563545E+04  0.17734561435E+04  0.26492063290E+04  0.92951766706E+02 0.  0.
         13    1    3    3    0    0 -0.47341709516E+03  0.11287518463E+04  0.11424935535E+04  0.16743643559E+04  0.00000000000E+00 0.  1.
        -13    1    3    3    0    0 -0.33756942057E+03  0.66200450824E+03  0.63096258998E+03  0.97484197314E+03  0.00000000000E+00 0. -1.
         22    1    1    2    0    0  0.81098651574E+03 -0.17907563545E+04 -0.60448791274E+03  0.20566752506E+04  0.00000000000E+00 0.  1.
<mgrwt>
<rscale>  0 0.45583807E+04</rscale>
<asrwt>0</asrwt>
<pdfrwt beam="1">  1        2 0.45191152E+00 0.45583807E+04</pdfrwt>
<pdfrwt beam="2">  1       -2 0.27207026E+00 0.45583807E+04</pdfrwt>
<totfact> 0.67599048E-02</totfact>
</mgrwt>
</event>
<event>
 6    1  0.1817112E-005  0.1825122E+04  0.7818608E-02  0.8693053E-01
          2   -1    0    0  501    0  0.00000000000E+00  0.00000000000E+00  0.30984903539E+04  0.30984903539E+04  0.00000000000E+00 0. -1.
         -2   -1    0    0    0  501 -0.00000000000E+00 -0.00000000000E+00 -0.26876549927E+03  0.26876549927E+03  0.00000000000E+00 0.  1.
         23    2    1    2    0    0  0.83277720038E+03  0.29380439060E+03  0.10112518738E+04  0.13457012862E+04  0.91884241793E+02 0.  0.
         11    1    3    3    0    0  0.36251151576E+03  0.14106841556E+03  0.37934172815E+03  0.54333695222E+03  0.00000000000E+00 0.  1.
        -11    1    3    3    0    0  0.47026568461E+03  0.15273597504E+03  0.63191014567E+03  0.80236433395E+03  0.00000000000E+00 0. -1.
         22    1    1    2    0    0 -0.83277720038E+03 -0.29380439060E+03  0.18184729808E+04  0.20215545670E+04  0.00000000000E+00 0. -1.
<mgrwt>
<rscale>  0 0.18251217E+04</rscale>
<asrwt>0</asrwt>
<pdfrwt beam="1">  1        2 0.47669080E+00 0.18251217E+04</pdfrwt>
<pdfrwt beam="2">  1       -2 0.41348541E-01 0.18251217E+04</pdfrwt>
<totfact> 0.79077797E+00</totfact>
</mgrwt>
</event>
<event>
 6    1  0.1817112E-005  0.3739326E+04  0.7818608E-02  0.8059302E-01
          2   -1    0    0  501    0  0.00000000000E+00  0.00000000000E+00  0.21456082175E+04  0.21456082175E+04  0.00000000000E+00 0. -1.
         -2   -1    0    0    0  501 -0.00000000000E+00 -0.00000000000E+00 -0.16292073151E+04  0.16292073151E+04  0.00000000000E+00 0.  1.
         23    2    1    2    0    0 -0.13396426587E+04 -0.30812217032E+03  0.15360174163E+04  0.20633250826E+04  0.91537796394E+02 0.  0.
         11    1    3    3    0    0 -0.17146643434E+03 -0.65038935260E+02  0.17774543090E+03  0.25539036672E+03  0.00000000000E+00 0. -1.
        -11    1    3    3    0    0 -0.11681762244E+04 -0.24308323506E+03  0.13582719854E+04  0.18079347158E+04  0.00000000000E+00 0.  1.
         22    1    1    2    0    0  0.13396426587E+04  0.30812217032E+03 -0.10196165139E+04  0.17114904500E+04  0.00000000000E+00 0.  1.
<mgrwt>
<rscale>  0 0.37393265E+04</rscale>
<asrwt>0</asrwt>
<pdfrwt beam="1">  1        2 0.33009357E+00 0.37393265E+04</pdfrwt>
<pdfrwt beam="2">  1       -2 0.25064728E+00 0.37393265E+04</pdfrwt>
<totfact> 0.28428866E-01</totfact>
</mgrwt>
</event>
<event>
 6    1  0.1817112E-005  0.1353392E+04  0.7818608E-02  0.8988264E-01
         -4   -1    0    0    0  501 -0.00000000000E+00  0.00000000000E+00  0.57148196720E+03  0.57148196720E+03  0.00000000000E+00 0.  1.
          4   -1    0    0  501    0  0.00000000000E+00 -0.00000000000E+00 -0.80128112887E+03  0.80128112887E+03  0.00000000000E+00 0. -1.
         23    2    1    2    0    0 -0.23636732294E+03  0.46280022683E+03  0.31693570993E+03  0.61846038421E+03  0.10950543956E+03 0.  0.
         11    1    3    3    0    0 -0.16283561882E+03  0.26712137076E+03  0.24510784384E+03  0.39742561642E+03  0.00000000000E+00 0.  1.
        -11    1    3    3    0    0 -0.73531704125E+02  0.19567885607E+03  0.71827866092E+02  0.22103476779E+03  0.00000000000E+00 0. -1.
         22    1    1    2    0    0  0.23636732294E+03 -0.46280022683E+03 -0.54673487160E+03  0.75430271187E+03  0.00000000000E+00 0. -1.
<mgrwt>
<rscale>  0 0.13533924E+04</rscale>
<asrwt>0</asrwt>
<pdfrwt beam="1">  1        4 0.12327402E+00 0.13533924E+04</pdfrwt>
<pdfrwt beam="2">  1       -4 0.87920304E-01 0.13533924E+04</pdfrwt>
<totfact> 0.10784802E+00</totfact>
</mgrwt>
</event>
<event>
 6    1  0.1984534E-005  0.3360247E+04  0.7818608E-02  0.8147733E-01
          2   -1    0    0  501    0  0.00000000000E+00  0.00000000000E+00  0.18944806618E+04  0.18944806618E+04  0.00000000000E+00 0. -1.
         -2   -1    0    0    0  501 -0.00000000000E+00 -0.00000000000E+00 -0.14900202294E+04  0.14900202294E+04  0.00000000000E+00 0.  1.
         23    2    1    2    0    0 -0.37265037609E+02 -0.14495377627E+04  0.10547776362E+04  0.17953310218E+04  0.90051138121E+02 0.  0.
         11    1    3    3    0    0 -0.12932534158E+02 -0.75257348420E+03  0.49239100990E+03  0.89943482599E+03  0.00000000000E+00 0. -1.
        -11    1    3    3    0    0 -0.24332503451E+02 -0.69696427846E+03  0.56238662632E+03  0.89589619579E+03  0.00000000000E+00 0.  1.
         22    1    1    2    0    0  0.37265037609E+02  0.14495377627E+04 -0.65031720386E+03  0.15891698695E+04  0.00000000000E+00 0.  1.
<mgrwt>
<rscale>  0 0.33602467E+04</rscale>
<asrwt>0</asrwt>
<pdfrwt beam="1">  1        2 0.29145856E+00 0.33602467E+04</pdfrwt>
<pdfrwt beam="2">  1       -2 0.22923388E+00 0.33602467E+04</pdfrwt>
<totfact> 0.54949250E-01</totfact>
</mgrwt>
</event>
<event>
 6    1  0.1817112E-005  0.1327231E+04  0.7818608E-02  0.9008245E-01
         -2   -1    0    0    0  501 -0.00000000000E+00  0.00000000000E+00  0.66386030409E+03  0.66386030409E+03  0.00000000000E+00 0.  1.
          2   -1    0    0  501    0  0.00000000000E+00 -0.00000000000E+00 -0.66337039252E+03  0.66337039252E+03  0.00000000000E+00 0. -1.
         23    2    1    2    0    0 -0.49378992744E+02  0.63396108460E+03 -0.17849327374E+03  0.66664011060E+03  0.90577296103E+02 0.  0.
         13    1    3    3    0    0  0.20473547130E+02  0.31490509848E+03 -0.81354138612E+02  0.32588783815E+03  0.00000000000E+00 0. -1.
        -13    1    3    3    0    0 -0.69852539874E+02  0.31905598612E+03 -0.97139135130E+02  0.34075227245E+03  0.00000000000E+00 0.  1.
         22    1    1    2    0    0  0.49378992744E+02 -0.63396108460E+03  0.17898318531E+03  0.66059058602E+03  0.00000000000E+00 0.  1.
<mgrwt>
<rscale>  0 0.13272306E+04</rscale>
<asrwt>0</asrwt>
<pdfrwt beam="1">  1        2 0.10205698E+00 0.13272306E+04</pdfrwt>
<pdfrwt beam="2">  1       -2 0.10213236E+00 0.13272306E+04</pdfrwt>
<totfact> 0.33696114E+01</totfact>
</mgrwt>
</event>
<event>
 6    1  0.1817112E-005  0.1618917E+04  0.7818608E-02  0.8809010E-01
          2   -1    0    0  501    0  0.00000000000E+00  0.00000000000E+00  0.16939159434E+04  0.16939159434E+04  0.00000000000E+00 0. -1.
         -2   -1    0    0    0  501 -0.00000000000E+00 -0.00000000000E+00 -0.38680967509E+03  0.38680967509E+03  0.00000000000E+00 0.  1.
         23    2    1    2    0    0 -0.33848924243E+03  0.65112630260E+03  0.22499694045E+03  0.77324673658E+03  0.93522527947E+02 0.  0.
         11    1    3    3    0    0 -0.28803393866E+03  0.52177688791E+03  0.21664972137E+03  0.63415437580E+03  0.00000000000E+00 0. -1.
        -11    1    3    3    0    0 -0.50455303768E+02  0.12934941469E+03  0.83472190770E+01  0.13909236078E+03  0.00000000000E+00 0.  1.
         22    1    1    2    0    0  0.33848924243E+03 -0.65112630260E+03  0.10821093278E+04  0.13074788819E+04  0.00000000000E+00 0. -1.
<mgrwt>
<rscale>  0 0.16189170E+04</rscale>
<asrwt>0</asrwt>
<pdfrwt beam="1">  1        2 0.26060245E+00 0.16189170E+04</pdfrwt>
<pdfrwt beam="2">  1       -2 0.59509182E-01 0.16189170E+04</pdfrwt>
<totfact> 0.24938158E+01</totfact>
</mgrwt>
</event>
<event>
 6    1  0.1817112E-005  0.2264005E+04  0.7818608E-02  0.8492250E-01
          2   -1    0    0  501    0  0.00000000000E+00  0.00000000000E+00  0.49647585973E+04  0.49647585973E+04  0.00000000000E+00 0. -1.
         -2   -1    0    0    0  501 -0.00000000000E+00 -0.00000000000E+00 -0.25810502970E+03  0.25810502970E+03  0.00000000000E+00 0.  1.
         23    2    1    2    0    0 -0.89723400424E+03 -0.66728004089E+03  0.27360394724E+04  0.29571161954E+04  0.91283555671E+02 0.  0.
         11    1    3    3    0    0 -0.29582274272E+03 -0.27388008946E+03  0.10016814543E+04  0.10797625361E+04  0.00000000000E+00 0. -1.
        -11    1    3    3    0    0 -0.60141126152E+03 -0.39339995143E+03  0.17343580181E+04  0.18773536593E+04  0.00000000000E+00 0.  1.
         22    1    1    2    0    0  0.89723400424E+03  0.66728004089E+03  0.19706140952E+04  0.22657474315E+04  0.00000000000E+00 0.  1.
<mgrwt>
<rscale>  0 0.22640046E+04</rscale>
<asrwt>0</asrwt>
<pdfrwt beam="1">  1        2 0.76380894E+00 0.22640046E+04</pdfrwt>
<pdfrwt beam="2">  1       -2 0.39708470E-01 0.22640046E+04</pdfrwt>
<totfact> 0.21057944E-01</totfact>
</mgrwt>
</event>
<event>
 6    1  0.1817112E-005  0.4595727E+03  0.7818608E-02  0.1024905E+00
          2   -1    0    0  501    0  0.00000000000E+00  0.00000000000E+00  0.79845338421E+03  0.79845338421E+03  0.00000000000E+00 0. -1.
         -2   -1    0    0    0  501 -0.00000000000E+00 -0.00000000000E+00 -0.66130043905E+02  0.66130043905E+02  0.00000000000E+00 0.  1.
         23    2    1    2    0    0 -0.70787203005E+02  0.17064606453E+03  0.60849672639E+03  0.64217853212E+03  0.89409695477E+02 0.  0.
         11    1    3    3    0    0 -0.91299034744E+02  0.12142523832E+03  0.45085456529E+03  0.47576195864E+03  0.00000000000E+00 0. -1.
        -11    1    3    3    0    0  0.20511831738E+02  0.49220826206E+02  0.15764216109E+03  0.16641657348E+03  0.00000000000E+00 0.  1.
         22    1    1    2    0    0  0.70787203005E+02 -0.17064606453E+03  0.12382661392E+03  0.22240489600E+03  0.00000000000E+00 0.  1.
<mgrwt>
<rscale>  0 0.45957266E+03</rscale>
<asrwt>0</asrwt>
<pdfrwt beam="1">  1        2 0.12283898E+00 0.45957266E+03</pdfrwt>
<pdfrwt beam="2">  1       -2 0.10173853E-01 0.45957266E+03</pdfrwt>
<totfact> 0.23043445E+03</totfact>
</mgrwt>
</event>
<event>
 6    1  0.1817112E-005  0.2548015E+04  0.7818608E-02  0.8386077E-01
          2   -1    0    0  501    0  0.00000000000E+00  0.00000000000E+00  0.22199615446E+04  0.22199615446E+04  0.00000000000E+00 0. -1.
         -2   -1    0    0    0  501 -0.00000000000E+00 -0.00000000000E+00 -0.73113666003E+03  0.73113666003E+03  0.00000000000E+00 0.  1.
         23    2    1    2    0    0  0.57198150341E+01  0.44918979134E+03 -0.63368379417E+03  0.78157123402E+03  0.86569382156E+02 0.  0.
         11    1    3    3    0    0  0.41691477530E+02  0.14987562119E+03 -0.19934260351E+03  0.25286034624E+03  0.00000000000E+00 0. -1.
        -11    1    3    3    0    0 -0.35971662496E+02  0.29931417014E+03 -0.43434119066E+03  0.52871088778E+03  0.00000000000E+00 0.  1.
         22    1    1    2    0    0 -0.57198150341E+01 -0.44918979134E+03  0.21225086788E+04  0.21695269707E+04  0.00000000000E+00 0. -1.
<mgrwt>
<rscale>  0 0.25480151E+04</rscale>
<asrwt>0</asrwt>
<pdfrwt beam="1">  1        2 0.34153254E+00 0.25480151E+04</pdfrwt>
<pdfrwt beam="2">  1       -2 0.11248256E+00 0.25480151E+04</pdfrwt>
<totfact> 0.27816206E+00</totfact>
</mgrwt>
</event>
<event>
 6    1  0.1817112E-005  0.2482328E+04  0.7818608E-02  0.8409308E-01
         -2   -1    0    0    0  501 -0.00000000000E+00  0.00000000000E+00  0.67829089001E+03  0.67829089001E+03  0.00000000000E+00 0.  1.
          2   -1    0    0  501    0  0.00000000000E+00 -0.00000000000E+00 -0.22711321409E+04  0.22711321409E+04  0.00000000000E+00 0. -1.
         23    2    1    2    0    0 -0.78786996537E+03  0.55508911505E+03  0.12778847940E+03  0.97725932656E+03  0.99211329427E+02 0.  0.
         13    1    3    3    0    0 -0.49294762647E+03  0.32755473002E+03  0.32359472017E+02  0.59273653425E+03  0.00000000000E+00 0. -1.
        -13    1    3    3    0    0 -0.29492233891E+03  0.22753438503E+03  0.95429007382E+02  0.38452279231E+03  0.00000000000E+00 0.  1.
         22    1    1    2    0    0  0.78786996537E+03 -0.55508911505E+03 -0.17206297303E+04  0.19721637043E+04  0.00000000000E+00 0. -1.
<mgrwt>
<rscale>  0 0.24823281E+04</rscale>
<asrwt>0</asrwt>
<pdfrwt beam="1">  1        2 0.34940495E+00 0.24823281E+04</pdfrwt>
<pdfrwt beam="2">  1       -2 0.10435244E+00 0.24823281E+04</pdfrwt>
<totfact> 0.31366982E+00</totfact>
</mgrwt>
</event>
<event>
 6    1  0.1817112E-005  0.5681097E+04  0.7818608E-02  0.7731250E-01
          2   -1    0    0  501    0  0.00000000000E+00  0.00000000000E+00  0.32470123244E+04  0.32470123244E+04  0.00000000000E+00 0.  1.
         -2   -1    0    0    0  501 -0.00000000000E+00 -0.00000000000E+00 -0.24849662060E+04  0.24849662060E+04  0.00000000000E+00 0. -1.
         23    2    1    2    0    0  0.19575553829E+03 -0.18476329866E+04  0.25477871737E+04  0.31549765900E+04  0.10290732091E+03 0.  0.
         11    1    3    3    0    0  0.14129302755E+03 -0.12490660962E+04  0.18025423562E+04  0.21975642831E+04  0.00000000000E+00 0. -1.
        -11    1    3    3    0    0  0.54462510739E+02 -0.59856689038E+03  0.74524481751E+03  0.95741230688E+03  0.00000000000E+00 0.  1.
         22    1    1    2    0    0 -0.19575553829E+03  0.18476329866E+04 -0.17857410553E+04  0.25770019404E+04  0.00000000000E+00 0. -1.
<mgrwt>
<rscale>  0 0.56810970E+04</rscale>
<asrwt>0</asrwt>
<pdfrwt beam="1">  1        2 0.49954035E+00 0.56810970E+04</pdfrwt>
<pdfrwt beam="2">  1       -2 0.38230250E+00 0.56810970E+04</pdfrwt>
<totfact> 0.80579716E-03</totfact>
</mgrwt>
</event>
<event>
 6    1  0.1817112E-005  0.1153614E+04  0.7818608E-02  0.9154456E-01
         -2   -1    0    0    0  501 -0.00000000000E+00  0.00000000000E+00  0.18656613730E+03  0.18656613730E+03  0.00000000000E+00 0.  1.
          2   -1    0    0  501    0  0.00000000000E+00 -0.00000000000E+00 -0.17833142827E+04  0.17833142827E+04  0.00000000000E+00 0. -1.
         23    2    1    2    0    0 -0.48367746514E+02 -0.86688257890E+02 -0.17673869159E+04  0.17724674444E+04  0.90166724828E+02 0.  0.
         13    1    3    3    0    0  0.22530930643E+02 -0.94218498837E+01 -0.56103032428E+03  0.56156160735E+03  0.00000000000E+00 0.  1.
        -13    1    3    3    0    0 -0.70898677157E+02 -0.77266408007E+02 -0.12063565916E+04  0.12109058371E+04  0.00000000000E+00 0. -1.
         22    1    1    2    0    0  0.48367746514E+02  0.86688257890E+02  0.17063877044E+03  0.19741297560E+03  0.00000000000E+00 0.  1.
<mgrwt>
<rscale>  0 0.11536136E+04</rscale>
<asrwt>0</asrwt>
<pdfrwt beam="1">  1        2 0.27435604E+00 0.11536136E+04</pdfrwt>
<pdfrwt beam="2">  1       -2 0.28702483E-01 0.11536136E+04</pdfrwt>
<totfact> 0.97156760E+01</totfact>
</mgrwt>
</event>
<event>
 6    1  0.1817112E-005  0.2851960E+04  0.7818608E-02  0.8287316E-01
          2   -1    0    0  501    0  0.00000000000E+00  0.00000000000E+00  0.22709404247E+04  0.22709404247E+04  0.00000000000E+00 0. -1.
         -2   -1    0    0    0  501 -0.00000000000E+00 -0.00000000000E+00 -0.89540843359E+03  0.89540843359E+03  0.00000000000E+00 0.  1.
         23    2    1    2    0    0  0.20819188969E+03  0.11929368765E+04 -0.14459449220E+03  0.12228399750E+04  0.89374397973E+02 0.  0.
         11    1    3    3    0    0  0.76549689154E+02  0.26419952773E+03 -0.55388519614E+02  0.28058712278E+03  0.00000000000E+00 0. -1.
        -11    1    3    3    0    0  0.13164220054E+03  0.92873734876E+03 -0.89205972586E+02  0.94225285221E+03  0.00000000000E+00 0.  1.
         22    1    1    2    0    0 -0.20819188969E+03 -0.11929368765E+04  0.15201264833E+04  0.19435088833E+04  0.00000000000E+00 0. -1.
<mgrwt>
<rscale>  0 0.28519602E+04</rscale>
<asrwt>0</asrwt>
<pdfrwt beam="1">  1        2 0.34937545E+00 0.28519602E+04</pdfrwt>
<pdfrwt beam="2">  1       -2 0.13775514E+00 0.28519602E+04</pdfrwt>
<totfact> 0.15280664E+00</totfact>
</mgrwt>
</event>
<event>
 6    1  0.1817112E-005  0.2458015E+04  0.7818608E-02  0.8418097E-01
         -2   -1    0    0    0  501 -0.00000000000E+00  0.00000000000E+00  0.10061724443E+04  0.10061724443E+04  0.00000000000E+00 0. -1.
          2   -1    0    0  501    0  0.00000000000E+00 -0.00000000000E+00 -0.15011931492E+04  0.15011931492E+04  0.00000000000E+00 0.  1.
         23    2    1    2    0    0 -0.80440628183E+02  0.10865650814E+04  0.32860395468E+03  0.11415501043E+04  0.89787031149E+02 0.  0.
         13    1    3    3    0    0 -0.36522976932E+02  0.80360653061E+03  0.27561744043E+03  0.85034249415E+03  0.00000000000E+00 0.  1.
        -13    1    3    3    0    0 -0.43917651251E+02  0.28295855076E+03  0.52986514251E+02  0.29120761019E+03  0.00000000000E+00 0. -1.
         22    1    1    2    0    0  0.80440628183E+02 -0.10865650814E+04 -0.82362465953E+03  0.13658154892E+04  0.00000000000E+00 0.  1.
<mgrwt>
<rscale>  0 0.24580148E+04</rscale>
<asrwt>0</asrwt>
<pdfrwt beam="1">  1        2 0.23095279E+00 0.24580148E+04</pdfrwt>
<pdfrwt beam="2">  1       -2 0.15479576E+00 0.24580148E+04</pdfrwt>
<totfact> 0.31254351E+00</totfact>
</mgrwt>
</event>
<event>
 6    1  0.1817112E-005  0.2389136E+04  0.7818608E-02  0.8443582E-01
         -2   -1    0    0    0  501 -0.00000000000E+00  0.00000000000E+00  0.88968790248E+03  0.88968790248E+03  0.00000000000E+00 0.  1.
          2   -1    0    0  501    0  0.00000000000E+00 -0.00000000000E+00 -0.16039246516E+04  0.16039246516E+04  0.00000000000E+00 0. -1.
         23    2    1    2    0    0  0.36846963656E+03 -0.79686842938E+03 -0.12003984609E+04  0.14900576842E+04  0.92446040429E+02 0.  0.
         11    1    3    3    0    0  0.98817319266E+02 -0.25751792310E+03 -0.31328601571E+03  0.41740684103E+03  0.00000000000E+00 0.  1.
        -11    1    3    3    0    0  0.26965231730E+03 -0.53935050629E+03 -0.88711244522E+03  0.10726508432E+04  0.00000000000E+00 0. -1.
         22    1    1    2    0    0 -0.36846963656E+03  0.79686842938E+03  0.48616171182E+03  0.10035548699E+04  0.00000000000E+00 0.  1.
<mgrwt>
<rscale>  0 0.23891357E+04</rscale>
<asrwt>0</asrwt>
<pdfrwt beam="1">  1        2 0.24675764E+00 0.23891357E+04</pdfrwt>
<pdfrwt beam="2">  1       -2 0.13687506E+00 0.23891357E+04</pdfrwt>
<totfact> 0.38035252E+00</totfact>
</mgrwt>
</event>
<event>
 6    1  0.1817112E-005  0.1178730E+04  0.7818608E-02  0.9131680E-01
         -2   -1    0    0    0  501 -0.00000000000E+00  0.00000000000E+00  0.15527919813E+03  0.15527919813E+03  0.00000000000E+00 0.  1.
          2   -1    0    0  501    0  0.00000000000E+00 -0.00000000000E+00 -0.22369459362E+04  0.22369459362E+04  0.00000000000E+00 0. -1.
         23    2    1    2    0    0 -0.16399512812E+03 -0.41101577328E+03 -0.18263826382E+04  0.18813451684E+04  0.89206131094E+02 0.  0.
         11    1    3    3    0    0 -0.41022436445E+02 -0.13900870836E+03 -0.77357651005E+03  0.78703677055E+03  0.00000000000E+00 0.  1.
        -11    1    3    3    0    0 -0.12297269168E+03 -0.27200706492E+03 -0.10528061281E+04  0.10943083979E+04  0.00000000000E+00 0. -1.
         22    1    1    2    0    0  0.16399512812E+03  0.41101577328E+03 -0.25528409995E+03  0.51087996596E+03  0.00000000000E+00 0.  1.
<mgrwt>
<rscale>  0 0.11787301E+04</rscale>
<asrwt>0</asrwt>
<pdfrwt beam="1">  1        2 0.34414553E+00 0.11787301E+04</pdfrwt>
<pdfrwt beam="2">  1       -2 0.23889108E-01 0.11787301E+04</pdfrwt>
<totfact> 0.76027033E+01</totfact>
</mgrwt>
</event>
<event>
 6    1  0.1817112E-005  0.1975954E+04  0.7818608E-02  0.8617946E-01
         -2   -1    0    0    0  501 -0.00000000000E+00  0.00000000000E+00  0.58077634906E+03  0.58077634906E+03  0.00000000000E+00 0.  1.
          2   -1    0    0  501    0  0.00000000000E+00 -0.00000000000E+00 -0.16806784649E+04  0.16806784649E+04  0.00000000000E+00 0. -1.
         23    2    1    2    0    0  0.63102519377E+02 -0.83530916760E+03 -0.11464362674E+04  0.14224740271E+04  0.85982027629E+02 0.  0.
         11    1    3    3    0    0  0.18556640652E+02 -0.26624141553E+03 -0.43509160241E+03  0.51042486494E+03  0.00000000000E+00 0.  1.
        -11    1    3    3    0    0  0.44545878724E+02 -0.56906775207E+03 -0.71134466499E+03  0.91204916214E+03  0.00000000000E+00 0. -1.
         22    1    1    2    0    0 -0.63102519377E+02  0.83530916760E+03  0.46534151599E+02  0.83898078684E+03  0.00000000000E+00 0.  1.
<mgrwt>
<rscale>  0 0.19759537E+04</rscale>
<asrwt>0</asrwt>
<pdfrwt beam="1">  1        2 0.25856591E+00 0.19759537E+04</pdfrwt>
<pdfrwt beam="2">  1       -2 0.89350209E-01 0.19759537E+04</pdfrwt>
<totfact> 0.10056275E+01</totfact>
</mgrwt>
</event>
<event>
 6    1  0.1817112E-005  0.2127312E+04  0.7818608E-02  0.8549307E-01
          2   -1    0    0  501    0  0.00000000000E+00  0.00000000000E+00  0.18175291614E+04  0.18175291614E+04  0.00000000000E+00 0. -1.
         -2   -1    0    0    0  501 -0.00000000000E+00 -0.00000000000E+00 -0.62247349416E+03  0.62247349416E+03  0.00000000000E+00 0.  1.
         23    2    1    2    0    0 -0.51163309349E+03  0.34333959917E+03 -0.39258511993E+03  0.73698951064E+03  0.96850191980E+02 0.  0.
         13    1    3    3    0    0 -0.24318971297E+03  0.18002384504E+03 -0.24744247630E+03  0.39086775302E+03  0.00000000000E+00 0. -1.
        -13    1    3    3    0    0 -0.26844338052E+03  0.16331575413E+03 -0.14514264363E+03  0.34612175761E+03  0.00000000000E+00 0.  1.
         22    1    1    2    0    0  0.51163309349E+03 -0.34333959917E+03  0.15876407871E+04  0.17030131449E+04  0.00000000000E+00 0. -1.
<mgrwt>
<rscale>  0 0.21273117E+04</rscale>
<asrwt>0</asrwt>
<pdfrwt beam="1">  1        2 0.27961987E+00 0.21273117E+04</pdfrwt>
<pdfrwt beam="2">  1       -2 0.95765153E-01 0.21273117E+04</pdfrwt>
<totfact> 0.70961780E+00</totfact>
</mgrwt>
</event>
<event>
 6    1  0.1817112E-005  0.8773897E+03  0.7818608E-02  0.9454295E-01
         -2   -1    0    0    0  501 -0.00000000000E+00  0.00000000000E+00  0.97438906196E+02  0.97438906196E+02  0.00000000000E+00 0.  1.
          2   -1    0    0  501    0  0.00000000000E+00 -0.00000000000E+00 -0.19751165060E+04  0.19751165060E+04  0.00000000000E+00 0. -1.
         23    2    1    2    0    0 -0.92569318111E+02 -0.36028115579E+03 -0.42613898314E+03  0.57411090354E+03  0.98169785246E+02 0.  0.
         13    1    3    3    0    0 -0.72040719989E+02 -0.21485673121E+03 -0.32333080657E+03  0.39483679003E+03  0.00000000000E+00 0. -1.
        -13    1    3    3    0    0 -0.20528598122E+02 -0.14542442457E+03 -0.10280817657E+03  0.17927411351E+03  0.00000000000E+00 0.  1.
         22    1    1    2    0    0  0.92569318111E+02  0.36028115579E+03 -0.14515386167E+04  0.14984445087E+04  0.00000000000E+00 0. -1.
<mgrwt>
<rscale>  0 0.87738975E+03</rscale>
<asrwt>0</asrwt>
<pdfrwt beam="1">  1        2 0.30386406E+00 0.87738975E+03</pdfrwt>
<pdfrwt beam="2">  1       -2 0.14990602E-01 0.87738975E+03</pdfrwt>
<totfact> 0.24507334E+02</totfact>
</mgrwt>
</event>
<event>
 6    1  0.1817112E-005  0.3217269E+04  0.7818608E-02  0.8184271E-01
          1   -1    0    0  501    0  0.00000000000E+00  0.00000000000E+00  0.32023325446E+04  0.32023325446E+04  0.00000000000E+00 0. -1.
         -1   -1    0    0    0  501 -0.00000000000E+00 -0.00000000000E+00 -0.80806902488E+03  0.80806902488E+03  0.00000000000E+00 0.  1.
         23    2    1    2    0    0  0.98271181636E+03  0.15818337224E+03  0.27712933753E+04  0.29460256935E+04  0.90862102305E+02 0.  0.
         13    1    3    3    0    0  0.18287315360E+03  0.65700088649E+02  0.54528146813E+03  0.57887042716E+03  0.00000000000E+00 0.  1.
        -13    1    3    3    0    0  0.79983866276E+03  0.92483283595E+02  0.22260119072E+04  0.23671552664E+04  0.00000000000E+00 0. -1.
         22    1    1    2    0    0 -0.98271181636E+03 -0.15818337224E+03 -0.37702985560E+03  0.10643758759E+04  0.00000000000E+00 0.  1.
<mgrwt>
<rscale>  0 0.32172695E+04</rscale>
<asrwt>0</asrwt>
<pdfrwt beam="1">  1        1 0.49266654E+00 0.32172695E+04</pdfrwt>
<pdfrwt beam="2">  1       -1 0.12431831E+00 0.32172695E+04</pdfrwt>
<totfact> 0.20043942E-01</totfact>
</mgrwt>
</event>
<event>
 6    1  0.1817112E-005  0.2171582E+04  0.7818608E-02  0.8530350E-01
          2   -1    0    0  501    0  0.00000000000E+00  0.00000000000E+00  0.12198638075E+04  0.12198638075E+04  0.00000000000E+00 0. -1.
         -2   -1    0    0    0  501 -0.00000000000E+00 -0.00000000000E+00 -0.96645356576E+03  0.96645356576E+03  0.00000000000E+00 0.  1.
         23    2    1    2    0    0  0.13946369118E+03 -0.10664901758E+04 -0.74880262596E+01  0.10795566392E+04  0.92385337094E+02 0.  0.
         11    1    3    3    0    0  0.14244266976E+03 -0.85924056716E+03 -0.26866568465E+02  0.87138170678E+03  0.00000000000E+00 0. -1.
        -11    1    3    3    0    0 -0.29789785880E+01 -0.20724960862E+03  0.19378542205E+02  0.20817493241E+03  0.00000000000E+00 0.  1.
         22    1    1    2    0    0 -0.13946369118E+03  0.10664901758E+04  0.26089826798E+03  0.11067607340E+04  0.00000000000E+00 0.  1.
<mgrwt>
<rscale>  0 0.21715817E+04</rscale>
<asrwt>0</asrwt>
<pdfrwt beam="1">  1        2 0.18767136E+00 0.21715817E+04</pdfrwt>
<pdfrwt beam="2">  1       -2 0.14868516E+00 0.21715817E+04</pdfrwt>
<totfact> 0.51792241E+00</totfact>
</mgrwt>
</event>
<event>
 6    1  0.2615169E-005  0.3690526E+04  0.7818608E-02  0.8070065E-01
         -2   -1    0    0    0  501 -0.00000000000E+00  0.00000000000E+00  0.17809757257E+04  0.17809757257E+04  0.00000000000E+00 0.  1.
          2   -1    0    0  501    0  0.00000000000E+00 -0.00000000000E+00 -0.19118710706E+04  0.19118710706E+04  0.00000000000E+00 0. -1.
         23    2    1    2    0    0  0.12413870748E+04  0.28827535323E+03  0.12686187998E+04  0.18000223485E+04  0.80884158757E+02 0.  0.
         13    1    3    3    0    0  0.25216323731E+03  0.92253410686E+02  0.26306571503E+03  0.37589966807E+03  0.00000000000E+00 0. -1.
        -13    1    3    3    0    0  0.98922383748E+03  0.19602194254E+03  0.10055530848E+04  0.14241226804E+04  0.00000000000E+00 0.  1.
         22    1    1    2    0    0 -0.12413870748E+04 -0.28827535323E+03 -0.13995141447E+04  0.18928244477E+04  0.00000000000E+00 0. -1.
<mgrwt>
<rscale>  0 0.36905262E+04</rscale>
<asrwt>0</asrwt>
<pdfrwt beam="1">  1        2 0.29413401E+00 0.36905262E+04</pdfrwt>
<pdfrwt beam="2">  1       -2 0.27399627E+00 0.36905262E+04</pdfrwt>
<totfact> 0.27725005E-01</totfact>
</mgrwt>
</event>
<event>
 6    1  0.1817112E-005  0.1964089E+04  0.7818608E-02  0.8623597E-01
          2   -1    0    0  501    0  0.00000000000E+00  0.00000000000E+00  0.98551930095E+03  0.98551930095E+03  0.00000000000E+00 0. -1.
         -2   -1    0    0    0  501 -0.00000000000E+00 -0.00000000000E+00 -0.97858162780E+03  0.97858162780E+03  0.00000000000E+00 0.  1.
         23    2    1    2    0    0 -0.20103013298E+03  0.93720155356E+03 -0.19845716722E+03  0.98382193438E+03  0.98795166877E+02 0.  0.
         13    1    3    3    0    0 -0.74853904505E+02  0.35505475723E+03 -0.26458362743E+02  0.36382280386E+03  0.00000000000E+00 0.  1.
        -13    1    3    3    0    0 -0.12617622847E+03  0.58214679633E+03 -0.17199880448E+03  0.61999913052E+03  0.00000000000E+00 0. -1.
         22    1    1    2    0    0  0.20103013298E+03 -0.93720155356E+03  0.20539484037E+03  0.98027899437E+03  0.00000000000E+00 0. -1.
<mgrwt>
<rscale>  0 0.19640887E+04</rscale>
<asrwt>0</asrwt>
<pdfrwt beam="1">  1        2 0.15161835E+00 0.19640887E+04</pdfrwt>
<pdfrwt beam="2">  1       -2 0.15055102E+00 0.19640887E+04</pdfrwt>
<totfact> 0.71144241E+00</totfact>
</mgrwt>
</event>
<event>
 6    1  0.1817112E-005  0.2684557E+04  0.7818608E-02  0.8340033E-01
         -2   -1    0    0    0  501 -0.00000000000E+00  0.00000000000E+00  0.83279588689E+03  0.83279588689E+03  0.00000000000E+00 0.  1.
          2   -1    0    0  501    0  0.00000000000E+00 -0.00000000000E+00 -0.21634488279E+04  0.21634488279E+04  0.00000000000E+00 0. -1.
         23    2    1    2    0    0  0.95042175007E+03  0.28317014972E+03  0.34091913541E+03  0.10526295154E+04  0.91193218320E+02 0.  0.
         11    1    3    3    0    0  0.47744112691E+03  0.95930936722E+02  0.17770631184E+03  0.51839396944E+03  0.00000000000E+00 0.  1.
        -11    1    3    3    0    0  0.47298062317E+03  0.18723921300E+03  0.16321282356E+03  0.53423554595E+03  0.00000000000E+00 0. -1.
         22    1    1    2    0    0 -0.95042175007E+03 -0.28317014972E+03 -0.16715720764E+04  0.19436151994E+04  0.00000000000E+00 0. -1.
<mgrwt>
<rscale>  0 0.26845568E+04</rscale>
<asrwt>0</asrwt>
<pdfrwt beam="1">  1        2 0.33283827E+00 0.26845568E+04</pdfrwt>
<pdfrwt beam="2">  1       -2 0.12812245E+00 0.26845568E+04</pdfrwt>
<totfact> 0.21427390E+00</totfact>
</mgrwt>
</event>
<event>
 6    1  0.1817112E-005  0.3861512E+04  0.7818608E-02  0.8033082E-01
         -2   -1    0    0    0  501 -0.00000000000E+00  0.00000000000E+00  0.92123862896E+03  0.92123862896E+03  0.00000000000E+00 0.  1.
          2   -1    0    0  501    0  0.00000000000E+00 -0.00000000000E+00 -0.40465292635E+04  0.40465292635E+04  0.00000000000E+00 0. -1.
         23    2    1    2    0    0 -0.16653089565E+03  0.18674397354E+04 -0.21508724997E+04  0.28548186725E+04  0.93131295171E+02 0.  0.
         13    1    3    3    0    0 -0.46352929899E+01  0.22290585503E+03 -0.29684835981E+03  0.37125120184E+03  0.00000000000E+00 0. -1.
        -13    1    3    3    0    0 -0.16189560266E+03  0.16445338804E+04 -0.18540241399E+04  0.24835674706E+04  0.00000000000E+00 0.  1.
         22    1    1    2    0    0  0.16653089565E+03 -0.18674397354E+04 -0.97441813481E+03  0.21129492200E+04  0.00000000000E+00 0.  1.
<mgrwt>
<rscale>  0 0.38615122E+04</rscale>
<asrwt>0</asrwt>
<pdfrwt beam="1">  1        2 0.62254296E+00 0.38615122E+04</pdfrwt>
<pdfrwt beam="2">  1       -2 0.14172902E+00 0.38615122E+04</pdfrwt>
<totfact> 0.86669586E-02</totfact>
</mgrwt>
</event>
<event>
 6    1  0.1817112E-005  0.2677780E+04  0.7818608E-02  0.8342251E-01
         -2   -1    0    0    0  501 -0.00000000000E+00  0.00000000000E+00  0.76882162894E+03  0.76882162894E+03  0.00000000000E+00 0.  1.
          2   -1    0    0  501    0  0.00000000000E+00 -0.00000000000E+00 -0.23316538329E+04  0.23316538329E+04  0.00000000000E+00 0. -1.
         23    2    1    2    0    0  0.23614604345E+03  0.12090207508E+04 -0.17954552051E+03  0.12481854796E+04  0.90742866011E+02 0.  0.
         13    1    3    3    0    0  0.14184256871E+03  0.76630772778E+03 -0.69925429735E+02  0.78245537488E+03  0.00000000000E+00 0. -1.
        -13    1    3    3    0    0  0.94303474736E+02  0.44271302306E+03 -0.10962009078E+03  0.46573010472E+03  0.00000000000E+00 0.  1.
         22    1    1    2    0    0 -0.23614604345E+03 -0.12090207508E+04 -0.13832866835E+04  0.18522899823E+04  0.00000000000E+00 0. -1.
<mgrwt>
<rscale>  0 0.26777796E+04</rscale>
<asrwt>0</asrwt>
<pdfrwt beam="1">  1        2 0.35871597E+00 0.26777796E+04</pdfrwt>
<pdfrwt beam="2">  1       -2 0.11828025E+00 0.26777796E+04</pdfrwt>
<totfact> 0.21036537E+00</totfact>
</mgrwt>
</event>
<event>
 6    1  0.1817112E-005  0.3420570E+04  0.7818608E-02  0.8132876E-01
         -2   -1    0    0    0  501 -0.00000000000E+00  0.00000000000E+00  0.12385673175E+04  0.12385673175E+04  0.00000000000E+00 0.  1.
          2   -1    0    0  501    0  0.00000000000E+00 -0.00000000000E+00 -0.23616604159E+04  0.23616604159E+04  0.00000000000E+00 0. -1.
         23    2    1    2    0    0 -0.16313846257E+04  0.26585878521E+03 -0.10464225936E+03  0.16587492241E+04  0.91664035598E+02 0.  0.
         13    1    3    3    0    0 -0.65487844556E+03  0.86589140342E+02 -0.82175899633E+02  0.66566984021E+03  0.00000000000E+00 0.  1.
        -13    1    3    3    0    0 -0.97650618010E+03  0.17926964486E+03 -0.22466359722E+02  0.99307938386E+03  0.00000000000E+00 0. -1.
         22    1    1    2    0    0  0.16313846257E+04 -0.26585878521E+03 -0.10184508391E+04  0.19414785093E+04  0.00000000000E+00 0. -1.
<mgrwt>
<rscale>  0 0.34205704E+04</rscale>
<asrwt>0</asrwt>
<pdfrwt beam="1">  1        2 0.36333237E+00 0.34205704E+04</pdfrwt>
<pdfrwt beam="2">  1       -2 0.19054882E+00 0.34205704E+04</pdfrwt>
<totfact> 0.53149036E-01</totfact>
</mgrwt>
</event>
<event>
 6    1  0.1817112E-005  0.2186305E+04  0.7818608E-02  0.8524150E-01
          2   -1    0    0  501    0  0.00000000000E+00  0.00000000000E+00  0.17466085525E+04  0.17466085525E+04  0.00000000000E+00 0.  1.
         -2   -1    0    0    0  501 -0.00000000000E+00 -0.00000000000E+00 -0.68417309272E+03  0.68417309272E+03  0.00000000000E+00 0. -1.
         23    2    1    2    0    0  0.81395568427E+03 -0.63097050998E+03  0.93307344851E+03  0.13928114287E+04  0.93005242794E+02 0.  0.
         11    1    3    3    0    0  0.36001575268E+03 -0.22916288544E+03  0.35433941432E+03  0.55469215857E+03  0.00000000000E+00 0.  1.
        -11    1    3    3    0    0  0.45393993158E+03 -0.40180762454E+03  0.57873403420E+03  0.83811927013E+03  0.00000000000E+00 0. -1.
         22    1    1    2    0    0 -0.81395568427E+03  0.63097050998E+03  0.12936201126E+03  0.10379702165E+04  0.00000000000E+00 0. -1.
<mgrwt>
<rscale>  0 0.21863052E+04</rscale>
<asrwt>0</asrwt>
<pdfrwt beam="1">  1        2 0.26870900E+00 0.21863052E+04</pdfrwt>
<pdfrwt beam="2">  1       -2 0.10525740E+00 0.21863052E+04</pdfrwt>
<totfact> 0.61781966E+00</totfact>
</mgrwt>
</event>
<event>
 6    1  0.1817112E-005  0.2211836E+04  0.7818608E-02  0.8513518E-01
         -2   -1    0    0    0  501 -0.00000000000E+00  0.00000000000E+00  0.56598528669E+03  0.56598528669E+03  0.00000000000E+00 0.  1.
          2   -1    0    0  501    0  0.00000000000E+00 -0.00000000000E+00 -0.21609297750E+04  0.21609297750E+04  0.00000000000E+00 0. -1.
         23    2    1    2    0    0  0.63395658373E+03  0.51960216094E+03 -0.17107158388E+04  0.18990923987E+04  0.90088302324E+02 0.  0.
         13    1    3    3    0    0  0.27186957653E+03  0.20038923715E+03 -0.79972320113E+03  0.86811641583E+03  0.00000000000E+00 0. -1.
        -13    1    3    3    0    0  0.36208700721E+03  0.31921292378E+03 -0.91099263764E+03  0.10309759829E+04  0.00000000000E+00 0.  1.
         22    1    1    2    0    0 -0.63395658373E+03 -0.51960216094E+03  0.11577135046E+03  0.82782266295E+03  0.00000000000E+00 0.  1.
<mgrwt>
<rscale>  0 0.22118359E+04</rscale>
<asrwt>0</asrwt>
<pdfrwt beam="1">  1        2 0.33245074E+00 0.22118359E+04</pdfrwt>
<pdfrwt beam="2">  1       -2 0.87074659E-01 0.22118359E+04</pdfrwt>
<totfact> 0.56551005E+00</totfact>
</mgrwt>
</event>
<event>
 6    1  0.1817112E-005  0.4193706E+04  0.7818608E-02  0.7966571E-01
         -2   -1    0    0    0  501 -0.00000000000E+00  0.00000000000E+00  0.26802872294E+04  0.26802872294E+04  0.00000000000E+00 0.  1.
          2   -1    0    0  501    0  0.00000000000E+00 -0.00000000000E+00 -0.16404184319E+04  0.16404184319E+04  0.00000000000E+00 0. -1.
         23    2    1    2    0    0 -0.82146363965E+03 -0.71447387514E+03 -0.13249747670E+04  0.17172924183E+04  0.90882820696E+02 0.  0.
         13    1    3    3    0    0 -0.56046355396E+03 -0.52144163402E+03 -0.98070423906E+03  0.12441067388E+04  0.00000000000E+00 0. -1.
        -13    1    3    3    0    0 -0.26100008570E+03 -0.19303224112E+03 -0.34427052798E+03  0.47318567950E+03  0.00000000000E+00 0.  1.
         22    1    1    2    0    0  0.82146363965E+03  0.71447387514E+03  0.23648435645E+04  0.26034132430E+04  0.00000000000E+00 0.  1.
<mgrwt>
<rscale>  0 0.41937060E+04</rscale>
<asrwt>0</asrwt>
<pdfrwt beam="1">  1        2 0.25237207E+00 0.41937060E+04</pdfrwt>
<pdfrwt beam="2">  1       -2 0.41235188E+00 0.41937060E+04</pdfrwt>
<totfact> 0.50625693E-02</totfact>
</mgrwt>
</event>
<event>
 6    1  0.1817112E-005  0.2731161E+04  0.7818608E-02  0.8324965E-01
         -2   -1    0    0    0  501 -0.00000000000E+00  0.00000000000E+00  0.18336598004E+04  0.18336598004E+04  0.00000000000E+00 0. -1.
          2   -1    0    0  501    0  0.00000000000E+00 -0.00000000000E+00 -0.10169882235E+04  0.10169882235E+04  0.00000000000E+00 0.  1.
         23    2    1    2    0    0 -0.81244206747E+03 -0.29732557251E+02  0.15519934620E+04  0.17544525977E+04  0.92054730388E+02 0.  0.
         13    1    3    3    0    0 -0.44917228130E+03 -0.60880496503E+02  0.88364373869E+03  0.99312055163E+03  0.00000000000E+00 0. -1.
        -13    1    3    3    0    0 -0.36326978616E+03  0.31147939252E+02  0.66834972332E+03  0.76133204603E+03  0.00000000000E+00 0.  1.
         22    1    1    2    0    0  0.81244206747E+03  0.29732557251E+02 -0.73532188510E+03  0.10961954263E+04  0.00000000000E+00 0.  1.
<mgrwt>
<rscale>  0 0.27311612E+04</rscale>
<asrwt>0</asrwt>
<pdfrwt beam="1">  1        2 0.15645973E+00 0.27311612E+04</pdfrwt>
<pdfrwt beam="2">  1       -2 0.28210151E+00 0.27311612E+04</pdfrwt>
<totfact> 0.87888671E-01</totfact>
</mgrwt>
</event>
<event>
 6    1  0.1817112E-005  0.1943481E+04  0.7818608E-02  0.8633511E-01
          2   -1    0    0  501    0  0.00000000000E+00  0.00000000000E+00  0.80027037557E+03  0.80027037557E+03  0.00000000000E+00 0. -1.
         -2   -1    0    0    0  501 -0.00000000000E+00 -0.00000000000E+00 -0.11799504646E+04  0.11799504646E+04  0.00000000000E+00 0.  1.
         23    2    1    2    0    0 -0.44120868022E+03 -0.69401722927E+03  0.33322064033E+03  0.89184936685E+03  0.89634167506E+02 0.  0.
         13    1    3    3    0    0 -0.16537952768E+03 -0.19977369927E+03  0.76844560464E+02  0.27049030586E+03  0.00000000000E+00 0. -1.
        -13    1    3    3    0    0 -0.27582915254E+03 -0.49424353000E+03  0.25637607987E+03  0.62135906098E+03  0.00000000000E+00 0.  1.
         22    1    1    2    0    0  0.44120868022E+03  0.69401722927E+03 -0.71290072937E+03  0.10883714733E+04  0.00000000000E+00 0.  1.
<mgrwt>
<rscale>  0 0.19434808E+04</rscale>
<asrwt>0</asrwt>
<pdfrwt beam="1">  1        2 0.12311852E+00 0.19434808E+04</pdfrwt>
<pdfrwt beam="2">  1       -2 0.18153084E+00 0.19434808E+04</pdfrwt>
<totfact> 0.56838597E+00</totfact>
</mgrwt>
</event>
<event>
 6    1  0.1817112E-005  0.3117139E+04  0.7818608E-02  0.8211050E-01
         -1   -1    0    0    0  501 -0.00000000000E+00  0.00000000000E+00  0.93734103773E+03  0.93734103773E+03  0.00000000000E+00 0. -1.
          1   -1    0    0  501    0  0.00000000000E+00 -0.00000000000E+00 -0.25915214646E+04  0.25915214646E+04  0.00000000000E+00 0.  1.
         23    2    1    2    0    0  0.12246480605E+04 -0.56646364452E+03 -0.17075315739E+04  0.21784957826E+04  0.97651759366E+02 0.  0.
         13    1    3    3    0    0  0.81880641205E+03 -0.35400338878E+03 -0.10619925814E+04  0.13869356808E+04  0.00000000000E+00 0. -1.
        -13    1    3    3    0    0  0.40584164849E+03 -0.21246025574E+03 -0.64553899251E+03  0.79156010181E+03  0.00000000000E+00 0.  1.
         22    1    1    2    0    0 -0.12246480605E+04  0.56646364452E+03  0.53351147073E+02  0.13503667197E+04  0.00000000000E+00 0. -1.
<mgrwt>
<rscale>  0 0.31171393E+04</rscale>
<asrwt>0</asrwt>
<pdfrwt beam="1">  1        1 0.39869560E+00 0.31171393E+04</pdfrwt>
<pdfrwt beam="2">  1       -1 0.14420632E+00 0.31171393E+04</pdfrwt>
<totfact> 0.38193624E-01</totfact>
</mgrwt>
</event>
<event>
 6    1  0.1817112E-005  0.1850747E+04  0.7818608E-02  0.8679769E-01
          1   -1    0    0  501    0  0.00000000000E+00  0.00000000000E+00  0.22493859946E+04  0.22493859946E+04  0.00000000000E+00 0. -1.
         -1   -1    0    0    0  501 -0.00000000000E+00 -0.00000000000E+00 -0.38068868046E+03  0.38068868046E+03  0.00000000000E+00 0.  1.
         23    2    1    2    0    0 -0.38850719708E+03 -0.18264377760E+03 -0.22474166078E+03  0.49307132143E+03  0.91180712033E+02 0.  0.
         13    1    3    3    0    0 -0.35195146752E+03 -0.18424454176E+03 -0.18246995282E+03  0.43716263603E+03  0.00000000000E+00 0.  1.
        -13    1    3    3    0    0 -0.36555729559E+02  0.16007641588E+01 -0.42271707953E+02  0.55908685397E+02  0.00000000000E+00 0. -1.
         22    1    1    2    0    0  0.38850719708E+03  0.18264377760E+03  0.20934389750E+04  0.21370033537E+04  0.00000000000E+00 0. -1.
<mgrwt>
<rscale>  0 0.18507466E+04</rscale>
<asrwt>0</asrwt>
<pdfrwt beam="1">  1        1 0.34605938E+00 0.18507466E+04</pdfrwt>
<pdfrwt beam="2">  1       -1 0.58567490E-01 0.18507466E+04</pdfrwt>
<totfact> 0.55971693E+00</totfact>
</mgrwt>
</event>
<event>
 6    1  0.1817112E-005  0.2085404E+04  0.7818608E-02  0.8567700E-01
          1   -1    0    0  501    0  0.00000000000E+00  0.00000000000E+00  0.11713694961E+04  0.11713694961E+04  0.00000000000E+00 0. -1.
         -1   -1    0    0    0  501 -0.00000000000E+00 -0.00000000000E+00 -0.92816798378E+03  0.92816798378E+03  0.00000000000E+00 0.  1.
         23    2    1    2    0    0  0.16208545426E+03  0.95186360142E+03 -0.26918377092E+03  0.10064433903E+04  0.90290559626E+02 0.  0.
         13    1    3    3    0    0  0.11129453537E+03  0.83216367238E+03 -0.22654148046E+03  0.86959984683E+03  0.00000000000E+00 0. -1.
        -13    1    3    3    0    0  0.50790918893E+02  0.11969992903E+03 -0.42642290457E+02  0.13684354346E+03  0.00000000000E+00 0.  1.
         22    1    1    2    0    0 -0.16208545426E+03 -0.95186360142E+03  0.51238528321E+03  0.10930940896E+04  0.00000000000E+00 0. -1.
<mgrwt>
<rscale>  0 0.20854042E+04</rscale>
<asrwt>0</asrwt>
<pdfrwt beam="1">  1        1 0.18021069E+00 0.20854042E+04</pdfrwt>
<pdfrwt beam="2">  1       -1 0.14279507E+00 0.20854042E+04</pdfrwt>
<totfact> 0.41102394E+00</totfact>
</mgrwt>
</event>
<event>
 6    1  0.1817112E-005  0.1411754E+04  0.7818608E-02  0.8945354E-01
          2   -1    0    0  501    0  0.00000000000E+00  0.00000000000E+00  0.11194412480E+04  0.11194412480E+04  0.00000000000E+00 0. -1.
         -2   -1    0    0    0  501 -0.00000000000E+00 -0.00000000000E+00 -0.44509944325E+03  0.44509944325E+03  0.00000000000E+00 0.  1.
         23    2    1    2    0    0  0.13498839688E+03  0.64582823061E+03  0.60741570575E+03  0.90137022032E+03  0.90545368390E+02 0.  0.
         13    1    3    3    0    0  0.71316912325E+02  0.48003602028E+03  0.40507985420E+03  0.63214742824E+03  0.00000000000E+00 0. -1.
        -13    1    3    3    0    0  0.63671484558E+02  0.16579221033E+03  0.20233585155E+03  0.26922279208E+03  0.00000000000E+00 0.  1.
         22    1    1    2    0    0 -0.13498839688E+03 -0.64582823061E+03  0.66926098949E+02  0.66317047089E+03  0.00000000000E+00 0. -1.
<mgrwt>
<rscale>  0 0.14117545E+04</rscale>
<asrwt>0</asrwt>
<pdfrwt beam="1">  1        2 0.17222173E+00 0.14117545E+04</pdfrwt>
<pdfrwt beam="2">  1       -2 0.68476838E-01 0.14117545E+04</pdfrwt>
<totfact> 0.40202248E+01</totfact>
</mgrwt>
</event>
<event>
 6    1  0.1950738E-005  0.2910451E+04  0.7818608E-02  0.8269775E-01
          1   -1    0    0  501    0  0.00000000000E+00  0.00000000000E+00  0.14189157429E+04  0.14189157429E+04  0.00000000000E+00 0. -1.
         -1   -1    0    0    0  501 -0.00000000000E+00 -0.00000000000E+00 -0.14924640366E+04  0.14924640366E+04  0.00000000000E+00 0.  1.
         23    2    1    2    0    0 -0.11973846182E+04 -0.82424250397E+03 -0.52737869531E+02  0.14575783134E+04  0.92992621176E+02 0.  0.
         13    1    3    3    0    0 -0.62351331145E+03 -0.47013153955E+03 -0.60159916474E+02  0.78320605819E+03  0.00000000000E+00 0.  1.
        -13    1    3    3    0    0 -0.57387130671E+03 -0.35411096441E+03  0.74220469424E+01  0.67437225519E+03  0.00000000000E+00 0. -1.
         22    1    1    2    0    0  0.11973846182E+04  0.82424250397E+03 -0.20810424184E+02  0.14538014661E+04  0.00000000000E+00 0.  1.
<mgrwt>
<rscale>  0 0.29104506E+04</rscale>
<asrwt>0</asrwt>
<pdfrwt beam="1">  1        1 0.21829473E+00 0.29104506E+04</pdfrwt>
<pdfrwt beam="2">  1       -1 0.22960985E+00 0.29104506E+04</pdfrwt>
<totfact> 0.60681477E-01</totfact>
</mgrwt>
</event>
<event>
 6    1  0.1817112E-005  0.1826695E+04  0.7818608E-02  0.8692231E-01
         -2   -1    0    0    0  501 -0.00000000000E+00  0.00000000000E+00  0.40443663591E+03  0.40443663591E+03  0.00000000000E+00 0.  1.
          2   -1    0    0  501    0  0.00000000000E+00 -0.00000000000E+00 -0.20626302617E+04  0.20626302617E+04  0.00000000000E+00 0. -1.
         23    2    1    2    0    0 -0.34892690835E+02 -0.56108833484E+03  0.13697267176E+03  0.58593435172E+03  0.92303479595E+02 0.  0.
         11    1    3    3    0    0  0.25169174713E+01 -0.16227915365E+03  0.81303852741E+02  0.18152458526E+03  0.00000000000E+00 0. -1.
        -11    1    3    3    0    0 -0.37409608306E+02 -0.39880918119E+03  0.55668819014E+02  0.40440976646E+03  0.00000000000E+00 0.  1.
         22    1    1    2    0    0  0.34892690835E+02  0.56108833484E+03 -0.17951662975E+04  0.18811325459E+04  0.00000000000E+00 0. -1.
<mgrwt>
<rscale>  0 0.18266945E+04</rscale>
<asrwt>0</asrwt>
<pdfrwt beam="1">  1        2 0.31732772E+00 0.18266945E+04</pdfrwt>
<pdfrwt beam="2">  1       -2 0.62221023E-01 0.18266945E+04</pdfrwt>
<totfact> 0.13924704E+01</totfact>
</mgrwt>
</event>
<event>
 6    1  0.1817112E-005  0.3035809E+04  0.7818608E-02  0.8233579E-01
         -2   -1    0    0    0  501 -0.00000000000E+00  0.00000000000E+00  0.15448936162E+04  0.15448936162E+04  0.00000000000E+00 0.  1.
          2   -1    0    0  501    0  0.00000000000E+00 -0.00000000000E+00 -0.14913864096E+04  0.14913864096E+04  0.00000000000E+00 0. -1.
         23    2    1    2    0    0 -0.45423458357E+03  0.88780297639E+03  0.11694364236E+04  0.15396768055E+04  0.92195090572E+02 0.  0.
         11    1    3    3    0    0 -0.14221072924E+03  0.25923790284E+03  0.28516632470E+03  0.41078950148E+03  0.00000000000E+00 0. -1.
        -11    1    3    3    0    0 -0.31202385432E+03  0.62856507354E+03  0.88427009886E+03  0.11288873040E+04  0.00000000000E+00 0.  1.
         22    1    1    2    0    0  0.45423458357E+03 -0.88780297639E+03 -0.11159292169E+04  0.14966032203E+04  0.00000000000E+00 0. -1.
<mgrwt>
<rscale>  0 0.30358085E+04</rscale>
<asrwt>0</asrwt>
<pdfrwt beam="1">  1        2 0.22944406E+00 0.30358085E+04</pdfrwt>
<pdfrwt beam="2">  1       -2 0.23767594E+00 0.30358085E+04</pdfrwt>
<totfact> 0.83903322E-01</totfact>
</mgrwt>
</event>
<event>
 6    1  0.1817112E-005  0.1507186E+04  0.7818608E-02  0.8879689E-01
         -2   -1    0    0    0  501 -0.00000000000E+00  0.00000000000E+00  0.67641881886E+03  0.67641881886E+03  0.00000000000E+00 0.  1.
          2   -1    0    0  501    0  0.00000000000E+00 -0.00000000000E+00 -0.83957177856E+03  0.83957177856E+03  0.00000000000E+00 0. -1.
         23    2    1    2    0    0 -0.56767769802E+03  0.47780346302E+03 -0.19833787219E+03  0.77316350034E+03  0.88824369479E+02 0.  0.
         13    1    3    3    0    0 -0.40521390643E+03  0.31766392729E+03 -0.17517178536E+03  0.54386931799E+03  0.00000000000E+00 0.  1.
        -13    1    3    3    0    0 -0.16246379159E+03  0.16013953572E+03 -0.23166086830E+02  0.22929418235E+03  0.00000000000E+00 0. -1.
         22    1    1    2    0    0  0.56767769802E+03 -0.47780346302E+03  0.35184912486E+02  0.74282709708E+03  0.00000000000E+00 0. -1.
<mgrwt>
<rscale>  0 0.15071857E+04</rscale>
<asrwt>0</asrwt>
<pdfrwt beam="1">  1        2 0.12916489E+00 0.15071857E+04</pdfrwt>
<pdfrwt beam="2">  1       -2 0.10406443E+00 0.15071857E+04</pdfrwt>
<totfact> 0.23414061E+01</totfact>
</mgrwt>
</event>
<event>
 6    1  0.1817112E-005  0.2223142E+04  0.7818608E-02  0.8508857E-01
          1   -1    0    0  501    0  0.00000000000E+00  0.00000000000E+00  0.14162723057E+04  0.14162723057E+04  0.00000000000E+00 0. -1.
         -1   -1    0    0    0  501 -0.00000000000E+00 -0.00000000000E+00 -0.87242442130E+03  0.87242442130E+03  0.00000000000E+00 0.  1.
         23    2    1    2    0    0 -0.16842156260E+03 -0.93399519450E+02  0.13972635939E+04  0.14138209267E+04  0.97235635859E+02 0.  0.
         13    1    3    3    0    0 -0.13835192543E+03 -0.10535695737E+03  0.98042467498E+03  0.99572781775E+03  0.00000000000E+00 0. -1.
        -13    1    3    3    0    0 -0.30069637171E+02  0.11957437923E+02  0.41683891891E+03  0.41809310891E+03  0.00000000000E+00 0.  1.
         22    1    1    2    0    0  0.16842156260E+03  0.93399519450E+02 -0.85341570944E+03  0.87487580039E+03  0.00000000000E+00 0.  1.
<mgrwt>
<rscale>  0 0.22231424E+04</rscale>
<asrwt>0</asrwt>
<pdfrwt beam="1">  1        1 0.21788805E+00 0.22231424E+04</pdfrwt>
<pdfrwt beam="2">  1       -1 0.13421914E+00 0.22231424E+04</pdfrwt>
<totfact> 0.31836319E+00</totfact>
</mgrwt>
</event>
<event>
 6    1  0.1817112E-005  0.1749462E+04  0.7818608E-02  0.8733646E-01
          2   -1    0    0  501    0  0.00000000000E+00  0.00000000000E+00  0.12686293639E+04  0.12686293639E+04  0.00000000000E+00 0. -1.
         -2   -1    0    0    0  501 -0.00000000000E+00 -0.00000000000E+00 -0.60313498439E+03  0.60313498439E+03  0.00000000000E+00 0.  1.
         23    2    1    2    0    0  0.55067325176E+03  0.63287151260E+03  0.58955475015E+03  0.10294258124E+04  0.91516764630E+02 0.  0.
         11    1    3    3    0    0  0.11375600033E+03  0.16607128409E+03  0.10396865753E+03  0.22656032477E+03  0.00000000000E+00 0.  1.
        -11    1    3    3    0    0  0.43691725142E+03  0.46680022851E+03  0.48558609261E+03  0.80286548765E+03  0.00000000000E+00 0. -1.
         22    1    1    2    0    0 -0.55067325176E+03 -0.63287151260E+03  0.75939629349E+02  0.84233853584E+03  0.00000000000E+00 0.  1.
<mgrwt>
<rscale>  0 0.17494625E+04</rscale>
<asrwt>0</asrwt>
<pdfrwt beam="1">  1        2 0.19517375E+00 0.17494625E+04</pdfrwt>
<pdfrwt beam="2">  1       -2 0.92789998E-01 0.17494625E+04</pdfrwt>
<totfact> 0.16097691E+01</totfact>
</mgrwt>
</event>
<event>
 6    1  0.1817112E-005  0.1406711E+04  0.7818608E-02  0.8948975E-01
          2   -1    0    0  501    0  0.00000000000E+00  0.00000000000E+00  0.79435294838E+03  0.79435294838E+03  0.00000000000E+00 0. -1.
         -2   -1    0    0    0  501 -0.00000000000E+00 -0.00000000000E+00 -0.62278186638E+03  0.62278186638E+03  0.00000000000E+00 0.  1.
         23    2    1    2    0    0  0.24462183329E+03 -0.29914343611E+03  0.67503694216E+03  0.78246599637E+03  0.85155889423E+02 0.  0.
         13    1    3    3    0    0  0.63335657847E+02 -0.12239610151E+03  0.18277258571E+03  0.22890615830E+03  0.00000000000E+00 0. -1.
        -13    1    3    3    0    0  0.18128617544E+03 -0.17674733461E+03  0.49226435645E+03  0.55355983807E+03  0.00000000000E+00 0.  1.
         22    1    1    2    0    0 -0.24462183329E+03  0.29914343611E+03 -0.50346586016E+03  0.63466881839E+03  0.00000000000E+00 0.  1.
<mgrwt>
<rscale>  0 0.14067105E+04</rscale>
<asrwt>0</asrwt>
<pdfrwt beam="1">  1        2 0.12220815E+00 0.14067105E+04</pdfrwt>
<pdfrwt beam="2">  1       -2 0.95812595E-01 0.14067105E+04</pdfrwt>
<totfact> 0.30913925E+01</totfact>
</mgrwt>
</event>
<event>
 6    1  0.1817112E-005  0.1696573E+04  0.7818608E-02  0.8763321E-01
         -2   -1    0    0    0  501 -0.00000000000E+00  0.00000000000E+00  0.87494688818E+03  0.87494688818E+03  0.00000000000E+00 0.  1.
          2   -1    0    0  501    0  0.00000000000E+00 -0.00000000000E+00 -0.82243822107E+03  0.82243822107E+03  0.00000000000E+00 0. -1.
         23    2    1    2    0    0 -0.44101703873E+03 -0.33324144735E+03 -0.61432886472E+03  0.83123374573E+03  0.89463374250E+02 0.  0.
         13    1    3    3    0    0 -0.10048660524E+03 -0.90392965544E+02 -0.99040613757E+02  0.16756338868E+03  0.00000000000E+00 0. -1.
        -13    1    3    3    0    0 -0.34053043349E+03 -0.24284848180E+03 -0.51528825096E+03  0.66367035705E+03  0.00000000000E+00 0.  1.
         22    1    1    2    0    0  0.44101703873E+03  0.33324144735E+03  0.66683753182E+03  0.86615136352E+03  0.00000000000E+00 0.  1.
<mgrwt>
<rscale>  0 0.16965727E+04</rscale>
<asrwt>0</asrwt>
<pdfrwt beam="1">  1        2 0.12652896E+00 0.16965727E+04</pdfrwt>
<pdfrwt beam="2">  1       -2 0.13460721E+00 0.16965727E+04</pdfrwt>
<totfact> 0.12554059E+01</totfact>
</mgrwt>
</event>
<event>
 6    1  0.1817112E-005  0.2770594E+04  0.7818608E-02  0.8312456E-01
          2   -1    0    0  501    0  0.00000000000E+00  0.00000000000E+00  0.12046004598E+04  0.12046004598E+04  0.00000000000E+00 0. -1.
         -2   -1    0    0    0  501 -0.00000000000E+00 -0.00000000000E+00 -0.15930986488E+04  0.15930986488E+04  0.00000000000E+00 0.  1.
         23    2    1    2    0    0 -0.12144431015E+04  0.17439894683E+03 -0.84070251687E+03  0.14901151558E+04  0.91517300530E+02 0.  0.
         13    1    3    3    0    0 -0.59976166057E+03  0.52214627725E+02 -0.44957685761E+03  0.75137192370E+03  0.00000000000E+00 0. -1.
        -13    1    3    3    0    0 -0.61468144094E+03  0.12218431911E+03 -0.39112565926E+03  0.73874323212E+03  0.00000000000E+00 0.  1.
         22    1    1    2    0    0  0.12144431015E+04 -0.17439894683E+03  0.45220432783E+03  0.13075839528E+04  0.00000000000E+00 0.  1.
<mgrwt>
<rscale>  0 0.27705937E+04</rscale>
<asrwt>0</asrwt>
<pdfrwt beam="1">  1        2 0.18532315E+00 0.27705937E+04</pdfrwt>
<pdfrwt beam="2">  1       -2 0.24509210E+00 0.27705937E+04</pdfrwt>
<totfact> 0.11310404E+00</totfact>
</mgrwt>
</event>
<event>
 6    1  0.1817112E-005  0.5371830E+03  0.7818608E-02  0.1004505E+00
         -2   -1    0    0    0  501 -0.00000000000E+00  0.00000000000E+00  0.11218170771E+03  0.11218170771E+03  0.00000000000E+00 0.  1.
          2   -1    0    0  501    0  0.00000000000E+00 -0.00000000000E+00 -0.64307632690E+03  0.64307632690E+03  0.00000000000E+00 0. -1.
         23    2    1    2    0    0 -0.26120451607E+03 -0.87175245360E+01 -0.24182466413E+03  0.36555913371E+03  0.82767853698E+02 0.  0.
         11    1    3    3    0    0 -0.19401252356E+03 -0.67804706029E+01 -0.12536255949E+03  0.23109003744E+03  0.00000000000E+00 0.  1.
        -11    1    3    3    0    0 -0.67191992511E+02 -0.19370539332E+01 -0.11646210464E+03  0.13446909627E+03  0.00000000000E+00 0. -1.
         22    1    1    2    0    0  0.26120451607E+03  0.87175245360E+01 -0.28906995506E+03  0.38969890091E+03  0.00000000000E+00 0.  1.
<mgrwt>
<rscale>  0 0.53718302E+03</rscale>
<asrwt>0</asrwt>
<pdfrwt beam="1">  1        2 0.98934820E-01 0.53718302E+03</pdfrwt>
<pdfrwt beam="2">  1       -2 0.17258724E-01 0.53718302E+03</pdfrwt>
<totfact> 0.12591516E+03</totfact>
</mgrwt>
</event>
<event>
 6    1  0.1817112E-005  0.7953123E+03  0.7818608E-02  0.9566827E-01
          2   -1    0    0  501    0  0.00000000000E+00  0.00000000000E+00  0.10696798734E+03  0.10696798734E+03  0.00000000000E+00 0. -1.
         -2   -1    0    0    0  501 -0.00000000000E+00 -0.00000000000E+00 -0.14782965226E+04  0.14782965226E+04  0.00000000000E+00 0.  1.
         23    2    1    2    0    0 -0.38473738139E+03 -0.30316237332E+01 -0.85569062017E+03  0.94190263443E+03  0.83319217003E+02 0.  0.
         13    1    3    3    0    0 -0.13019083583E+03  0.29678324408E+02 -0.35473083995E+03  0.37903090307E+03  0.00000000000E+00 0.  1.
        -13    1    3    3    0    0 -0.25454654556E+03 -0.32709948141E+02 -0.50095978023E+03  0.56287173136E+03  0.00000000000E+00 0. -1.
         22    1    1    2    0    0  0.38473738139E+03  0.30316237332E+01 -0.51563791506E+03  0.64336187548E+03  0.00000000000E+00 0.  1.
<mgrwt>
<rscale>  0 0.79531228E+03</rscale>
<asrwt>0</asrwt>
<pdfrwt beam="1">  1        2 0.16456615E-01 0.79531228E+03</pdfrwt>
<pdfrwt beam="2">  1       -2 0.22743021E+00 0.79531228E+03</pdfrwt>
<totfact> 0.32411050E+01</totfact>
</mgrwt>
</event>
<event>
 6    1  0.1817112E-005  0.2852968E+04  0.7818608E-02  0.8287010E-01
          2   -1    0    0  501    0  0.00000000000E+00  0.00000000000E+00  0.19266327213E+04  0.19266327213E+04  0.00000000000E+00 0. -1.
         -2   -1    0    0    0  501 -0.00000000000E+00 -0.00000000000E+00 -0.10561728743E+04  0.10561728743E+04  0.00000000000E+00 0.  1.
         23    2    1    2    0    0 -0.18245606688E+03  0.93472636026E+03 -0.67254116104E+03  0.11695610739E+04  0.92508958483E+02 0.  0.
         11    1    3    3    0    0 -0.37617609015E+02  0.11995857452E+03 -0.12494997802E+03  0.17725022176E+03  0.00000000000E+00 0. -1.
        -11    1    3    3    0    0 -0.14483845786E+03  0.81476778574E+03 -0.54759118302E+03  0.99231085214E+03  0.00000000000E+00 0.  1.
         22    1    1    2    0    0  0.18245606688E+03 -0.93472636026E+03  0.15430010080E+04  0.18132445217E+04  0.00000000000E+00 0. -1.
<mgrwt>
<rscale>  0 0.28529684E+04</rscale>
<asrwt>0</asrwt>
<pdfrwt beam="1">  1        2 0.29640503E+00 0.28529684E+04</pdfrwt>
<pdfrwt beam="2">  1       -2 0.16248813E+00 0.28529684E+04</pdfrwt>
<totfact> 0.15356995E+00</totfact>
</mgrwt>
</event>
<event>
 6    1  0.1817112E-005  0.1813393E+04  0.7818608E-02  0.8699209E-01
         -4   -1    0    0    0  501 -0.00000000000E+00  0.00000000000E+00  0.61647669080E+03  0.61647669080E+03  0.00000000000E+00 0.  1.
          4   -1    0    0  501    0  0.00000000000E+00 -0.00000000000E+00 -0.13335438196E+04  0.13335438196E+04  0.00000000000E+00 0. -1.
         23    2    1    2    0    0  0.38295778969E+03 -0.43637487492E+03  0.38637155473E+03  0.70316180611E+03  0.89854588773E+02 0.  0.
         11    1    3    3    0    0  0.19913341282E+03 -0.15984049187E+03  0.16184757253E+03  0.30232058428E+03  0.00000000000E+00 0.  1.
        -11    1    3    3    0    0  0.18382437687E+03 -0.27653438304E+03  0.22452398220E+03  0.40084122183E+03  0.00000000000E+00 0. -1.
         22    1    1    2    0    0 -0.38295778969E+03  0.43637487492E+03 -0.11034386835E+04  0.12468587043E+04  0.00000000000E+00 0. -1.
<mgrwt>
<rscale>  0 0.18133932E+04</rscale>
<asrwt>0</asrwt>
<pdfrwt beam="1">  1        4 0.20516058E+00 0.18133932E+04</pdfrwt>
<pdfrwt beam="2">  1       -4 0.94842569E-01 0.18133932E+04</pdfrwt>
<totfact> 0.21492155E-01</totfact>
</mgrwt>
</event>
<event>
 6    1  0.1817112E-005  0.7389847E+03  0.7818608E-02  0.9652792E-01
          2   -1    0    0  501    0  0.00000000000E+00  0.00000000000E+00  0.19256926218E+04  0.19256926218E+04  0.00000000000E+00 0.  1.
         -2   -1    0    0    0  501 -0.00000000000E+00 -0.00000000000E+00 -0.70896352399E+02  0.70896352399E+02  0.00000000000E+00 0. -1.
         23    2    1    2    0    0 -0.34460818199E+03 -0.15982681179E+02  0.12544985640E+04  0.13042252112E+04  0.90700106430E+02 0.  0.
         13    1    3    3    0    0 -0.28822358850E+03 -0.47493542344E+02  0.10273252380E+04  0.10680475730E+04  0.00000000000E+00 0.  1.
        -13    1    3    3    0    0 -0.56384593488E+02  0.31510861164E+02  0.22717332596E+03  0.23617763819E+03  0.00000000000E+00 0. -1.
         22    1    1    2    0    0  0.34460818199E+03  0.15982681179E+02  0.60029770546E+03  0.69236376304E+03  0.00000000000E+00 0. -1.
<mgrwt>
<rscale>  0 0.73898466E+03</rscale>
<asrwt>0</asrwt>
<pdfrwt beam="1">  1        2 0.29626036E+00 0.73898466E+03</pdfrwt>
<pdfrwt beam="2">  1       -2 0.10907133E-01 0.73898466E+03</pdfrwt>
<totfact> 0.44749244E+02</totfact>
</mgrwt>
</event>
<event>
 6    1  0.2700445E-005  0.5083209E+04  0.7818608E-02  0.7815798E-01
          2   -1    0    0  501    0  0.00000000000E+00  0.00000000000E+00  0.26182945321E+04  0.26182945321E+04  0.00000000000E+00 0. -1.
         -2   -1    0    0    0  501 -0.00000000000E+00 -0.00000000000E+00 -0.24671608425E+04  0.24671608425E+04  0.00000000000E+00 0.  1.
         23    2    1    2    0    0 -0.66197829057E+03  0.17986291433E+04 -0.15931802982E+04  0.24939474467E+04  0.90930479852E+02 0.  0.
         13    1    3    3    0    0 -0.27145451333E+03  0.76043931494E+03 -0.72888977465E+03  0.10877664309E+04  0.00000000000E+00 0. -1.
        -13    1    3    3    0    0 -0.39052377724E+03  0.10381898283E+04 -0.86429052352E+03  0.14061810158E+04  0.00000000000E+00 0.  1.
         22    1    1    2    0    0  0.66197829057E+03 -0.17986291433E+04  0.17443139878E+04  0.25915079279E+04  0.00000000000E+00 0. -1.
<mgrwt>
<rscale>  0 0.50832091E+04</rscale>
<asrwt>0</asrwt>
<pdfrwt beam="1">  1        2 0.40281454E+00 0.50832091E+04</pdfrwt>
<pdfrwt beam="2">  1       -2 0.37956321E+00 0.50832091E+04</pdfrwt>
<totfact> 0.21644751E-02</totfact>
</mgrwt>
</event>
<event>
 6    1  0.1817112E-005  0.2620052E+04  0.7818608E-02  0.8361422E-01
         -2   -1    0    0    0  501 -0.00000000000E+00  0.00000000000E+00  0.41816997539E+03  0.41816997539E+03  0.00000000000E+00 0.  1.
          2   -1    0    0  501    0  0.00000000000E+00 -0.00000000000E+00 -0.41039979824E+04  0.41039979824E+04  0.00000000000E+00 0. -1.
         23    2    1    2    0    0  0.12569174923E+04  0.36271627775E+03 -0.18879138317E+04  0.22986796933E+04  0.91131860001E+02 0.  0.
         13    1    3    3    0    0  0.64427820611E+03  0.13850229323E+03 -0.94772264570E+03  0.11543203651E+04  0.00000000000E+00 0.  1.
        -13    1    3    3    0    0  0.61263928618E+03  0.22421398452E+03 -0.94019118602E+03  0.11443593282E+04  0.00000000000E+00 0. -1.
         22    1    1    2    0    0 -0.12569174923E+04 -0.36271627775E+03 -0.17979141753E+04  0.22234882645E+04  0.00000000000E+00 0.  1.
<mgrwt>
<rscale>  0 0.26200525E+04</rscale>
<asrwt>0</asrwt>
<pdfrwt beam="1">  1        2 0.63138428E+00 0.26200525E+04</pdfrwt>
<pdfrwt beam="2">  1       -2 0.64333845E-01 0.26200525E+04</pdfrwt>
<totfact> 0.55495730E-01</totfact>
</mgrwt>
</event>
<event>
 6    1  0.1817112E-005  0.2454074E+04  0.7818608E-02  0.8419532E-01
          2   -1    0    0  501    0  0.00000000000E+00  0.00000000000E+00  0.39127021901E+04  0.39127021901E+04  0.00000000000E+00 0.  1.
         -2   -1    0    0    0  501 -0.00000000000E+00 -0.00000000000E+00 -0.38480320263E+03  0.38480320263E+03  0.00000000000E+00 0. -1.
         23    2    1    2    0    0 -0.45958561266E+03 -0.96050951017E+03  0.70408050327E+03  0.12796007743E+04  0.88607741776E+02 0.  0.
         13    1    3    3    0    0 -0.53970851238E+02 -0.17606843774E+03  0.14515182753E+03  0.23448240998E+03  0.00000000000E+00 0.  1.
        -13    1    3    3    0    0 -0.40561476142E+03 -0.78444107242E+03  0.55892867574E+03  0.10451183643E+04  0.00000000000E+00 0. -1.
         22    1    1    2    0    0  0.45958561266E+03  0.96050951017E+03  0.28238184842E+04  0.30179046185E+04  0.00000000000E+00 0.  1.
<mgrwt>
<rscale>  0 0.24540744E+04</rscale>
<asrwt>0</asrwt>
<pdfrwt beam="1">  1        2 0.60195416E+00 0.24540744E+04</pdfrwt>
<pdfrwt beam="2">  1       -2 0.59200495E-01 0.24540744E+04</pdfrwt>
<totfact> 0.96159842E-01</totfact>
</mgrwt>
</event>
<event>
 6    1  0.1817112E-005  0.7000669E+03  0.7818608E-02  0.9717118E-01
          2   -1    0    0  501    0  0.00000000000E+00  0.00000000000E+00  0.47767042757E+03  0.47767042757E+03  0.00000000000E+00 0. -1.
         -2   -1    0    0    0  501 -0.00000000000E+00 -0.00000000000E+00 -0.25650201028E+03  0.25650201028E+03  0.00000000000E+00 0.  1.
         23    2    1    2    0    0 -0.16403915016E+03  0.10410895396E+03 -0.18340616906E+03  0.28536500365E+03  0.10023894145E+03 0.  0.
         11    1    3    3    0    0 -0.17004499270E+03  0.92527803864E+02 -0.13700462617E+03  0.23716441897E+03  0.00000000000E+00 0. -1.
        -11    1    3    3    0    0  0.60058425407E+01  0.11581150091E+02 -0.46401542884E+02  0.48200584686E+02  0.00000000000E+00 0.  1.
         22    1    1    2    0    0  0.16403915016E+03 -0.10410895396E+03  0.40457458634E+03  0.44880743420E+03  0.00000000000E+00 0. -1.
<mgrwt>
<rscale>  0 0.70006693E+03</rscale>
<asrwt>0</asrwt>
<pdfrwt beam="1">  1        2 0.73487758E-01 0.70006693E+03</pdfrwt>
<pdfrwt beam="2">  1       -2 0.39461848E-01 0.70006693E+03</pdfrwt>
<totfact> 0.39745851E+02</totfact>
</mgrwt>
</event>
<event>
 6    1  0.1817112E-005  0.4348157E+04  0.7818608E-02  0.7937773E-01
          2   -1    0    0  501    0  0.00000000000E+00  0.00000000000E+00  0.17313468690E+04  0.17313468690E+04  0.00000000000E+00 0. -1.
         -2   -1    0    0    0  501 -0.00000000000E+00 -0.00000000000E+00 -0.27300238909E+04  0.27300238909E+04  0.00000000000E+00 0.  1.
         23    2    1    2    0    0 -0.22497446027E+03  0.19516375681E+04  0.45356921427E+03  0.20183149203E+04  0.91473386068E+02 0.  0.
         13    1    3    3    0    0 -0.14207228885E+03  0.12316265375E+04  0.33140854430E+03  0.12833238431E+04  0.00000000000E+00 0. -1.
        -13    1    3    3    0    0 -0.82902171412E+02  0.72001103058E+03  0.12216066997E+03  0.73499107714E+03  0.00000000000E+00 0.  1.
         22    1    1    2    0    0  0.22497446027E+03 -0.19516375681E+04 -0.14522462362E+04  0.24430558396E+04  0.00000000000E+00 0.  1.
<mgrwt>
<rscale>  0 0.43481575E+04</rscale>
<asrwt>0</asrwt>
<pdfrwt beam="1">  1        2 0.26636106E+00 0.43481575E+04</pdfrwt>
<pdfrwt beam="2">  1       -2 0.42000367E+00 0.43481575E+04</pdfrwt>
<totfact> 0.39625465E-02</totfact>
</mgrwt>
</event>
<event>
 6    1  0.1817112E-005  0.3060871E+04  0.7818608E-02  0.8226559E-01
          2   -1    0    0  501    0  0.00000000000E+00  0.00000000000E+00  0.25427651629E+04  0.25427651629E+04  0.00000000000E+00 0. -1.
         -2   -1    0    0    0  501 -0.00000000000E+00 -0.00000000000E+00 -0.92113606662E+03  0.92113606662E+03  0.00000000000E+00 0.  1.
         23    2    1    2    0    0 -0.75808822236E+03 -0.58391861428E+03  0.21612277387E+04  0.23653451791E+04  0.91070174407E+02 0.  0.
         13    1    3    3    0    0 -0.47854725239E+03 -0.41128337914E+03  0.14862334074E+04  0.16146365634E+04  0.00000000000E+00 0.  1.
        -13    1    3    3    0    0 -0.27954096997E+03 -0.17263523513E+03  0.67499433137E+03  0.75070861569E+03  0.00000000000E+00 0. -1.
         22    1    1    2    0    0  0.75808822236E+03  0.58391861428E+03 -0.53959864245E+03  0.10985560504E+04  0.00000000000E+00 0.  1.
<mgrwt>
<rscale>  0 0.30608709E+04</rscale>
<asrwt>0</asrwt>
<pdfrwt beam="1">  1        2 0.39119464E+00 0.30608709E+04</pdfrwt>
<pdfrwt beam="2">  1       -2 0.14171324E+00 0.30608709E+04</pdfrwt>
<totfact> 0.97403641E-01</totfact>
</mgrwt>
</event>
<event>
 6    1  0.1817112E-005  0.1549332E+04  0.7818608E-02  0.8852294E-01
          2   -1    0    0  501    0  0.00000000000E+00  0.00000000000E+00  0.90114467176E+03  0.90114467176E+03  0.00000000000E+00 0. -1.
         -2   -1    0    0    0  501 -0.00000000000E+00 -0.00000000000E+00 -0.66593928389E+03  0.66593928389E+03  0.00000000000E+00 0.  1.
         23    2    1    2    0    0  0.32820537972E+03 -0.27608125049E+03 -0.53116601371E+03  0.68886715252E+03  0.91983648265E+02 0.  0.
         13    1    3    3    0    0  0.16668456596E+03 -0.17553209718E+03 -0.23869397339E+03  0.33995598922E+03  0.00000000000E+00 0.  1.
        -13    1    3    3    0    0  0.16152081376E+03 -0.10054915331E+03 -0.29247204031E+03  0.34891116330E+03  0.00000000000E+00 0. -1.
         22    1    1    2    0    0 -0.32820537972E+03  0.27608125049E+03  0.76637140158E+03  0.87821680314E+03  0.00000000000E+00 0. -1.
<mgrwt>
<rscale>  0 0.15493323E+04</rscale>
<asrwt>0</asrwt>
<pdfrwt beam="1">  1        2 0.13863764E+00 0.15493323E+04</pdfrwt>
<pdfrwt beam="2">  1       -2 0.10245220E+00 0.15493323E+04</pdfrwt>
<totfact> 0.21971165E+01</totfact>
</mgrwt>
</event>
<event>
 6    1  0.1817112E-005  0.2293357E+04  0.7818608E-02  0.8480545E-01
         -1   -1    0    0    0  501 -0.00000000000E+00  0.00000000000E+00  0.13531242970E+04  0.13531242970E+04  0.00000000000E+00 0.  1.
          1   -1    0    0  501    0  0.00000000000E+00 -0.00000000000E+00 -0.97173025983E+03  0.97173025983E+03  0.00000000000E+00 0. -1.
         23    2    1    2    0    0 -0.33158896254E+03  0.97277299471E+03  0.70234015452E+03  0.12481721758E+04  0.91725396870E+02 0.  0.
         13    1    3    3    0    0 -0.73354117492E+02  0.33608736809E+03  0.21193050043E+03  0.40404217918E+03  0.00000000000E+00 0.  1.
        -13    1    3    3    0    0 -0.25823484505E+03  0.63668562662E+03  0.49040965409E+03  0.84412999661E+03  0.00000000000E+00 0. -1.
         22    1    1    2    0    0  0.33158896254E+03 -0.97277299471E+03 -0.32094611739E+03  0.10766823810E+04  0.00000000000E+00 0. -1.
<mgrwt>
<rscale>  0 0.22933572E+04</rscale>
<asrwt>0</asrwt>
<pdfrwt beam="1">  1        1 0.14949696E+00 0.22933572E+04</pdfrwt>
<pdfrwt beam="2">  1       -1 0.20817297E+00 0.22933572E+04</pdfrwt>
<totfact> 0.19054767E+00</totfact>
</mgrwt>
</event>
<event>
 6    1  0.1817112E-005  0.1257967E+04  0.7818608E-02  0.9063579E-01
          2   -1    0    0  501    0  0.00000000000E+00  0.00000000000E+00  0.27310613822E+03  0.27310613822E+03  0.00000000000E+00 0. -1.
         -2   -1    0    0    0  501 -0.00000000000E+00 -0.00000000000E+00 -0.14485945717E+04  0.14485945717E+04  0.00000000000E+00 0.  1.
         23    2    1    2    0    0  0.17579403779E+03  0.58660202128E+03 -0.41496192977E+03  0.74527557814E+03  0.90756868207E+02 0.  0.
         11    1    3    3    0    0  0.71551564468E+02  0.19901946272E+03 -0.19463281674E+03  0.28742008676E+03  0.00000000000E+00 0.  1.
        -11    1    3    3    0    0  0.10424247332E+03  0.38758255856E+03 -0.22032911303E+03  0.45785549139E+03  0.00000000000E+00 0. -1.
         22    1    1    2    0    0 -0.17579403779E+03 -0.58660202128E+03 -0.76052650367E+03  0.97642513173E+03  0.00000000000E+00 0.  1.
<mgrwt>
<rscale>  0 0.12579667E+04</rscale>
<asrwt>0</asrwt>
<pdfrwt beam="1">  1        2 0.42016330E-01 0.12579667E+04</pdfrwt>
<pdfrwt beam="2">  1       -2 0.22286070E+00 0.12579667E+04</pdfrwt>
<totfact> 0.11365059E+01</totfact>
</mgrwt>
</event>
<event>
 6    1  0.1817112E-005  0.1524926E+04  0.7818608E-02  0.8868045E-01
         -2   -1    0    0    0  501 -0.00000000000E+00  0.00000000000E+00  0.39294781543E+03  0.39294781543E+03  0.00000000000E+00 0.  1.
          2   -1    0    0  501    0  0.00000000000E+00 -0.00000000000E+00 -0.14794574345E+04  0.14794574345E+04  0.00000000000E+00 0. -1.
         23    2    1    2    0    0  0.38576695111E+02 -0.73509400695E+03 -0.77644935942E+03  0.10736632859E+04  0.89598455947E+02 0.  0.
         13    1    3    3    0    0 -0.16949057187E+02 -0.43306339891E+03 -0.42609707411E+03  0.60777454255E+03  0.00000000000E+00 0. -1.
        -13    1    3    3    0    0  0.55525752299E+02 -0.30203060804E+03 -0.35035228532E+03  0.46588874336E+03  0.00000000000E+00 0.  1.
         22    1    1    2    0    0 -0.38576695111E+02  0.73509400695E+03 -0.31006025963E+03  0.79874196400E+03  0.00000000000E+00 0.  1.
<mgrwt>
<rscale>  0 0.15249257E+04</rscale>
<asrwt>0</asrwt>
<pdfrwt beam="1">  1        2 0.22760884E+00 0.15249257E+04</pdfrwt>
<pdfrwt beam="2">  1       -2 0.60453510E-01 0.15249257E+04</pdfrwt>
<totfact> 0.32046163E+01</totfact>
</mgrwt>
</event>
<event>
 6    1  0.1817112E-005  0.2270348E+04  0.7818608E-02  0.8489705E-01
          2   -1    0    0  501    0  0.00000000000E+00  0.00000000000E+00  0.96384027854E+03  0.96384027854E+03  0.00000000000E+00 0. -1.
         -2   -1    0    0    0  501 -0.00000000000E+00 -0.00000000000E+00 -0.13369639194E+04  0.13369639194E+04  0.00000000000E+00 0.  1.
         23    2    1    2    0    0 -0.38677154280E+03  0.61090958658E+03 -0.10713667774E+04  0.12956443962E+04  0.89804679380E+02 0.  0.
         11    1    3    3    0    0 -0.31093845302E+03  0.42622994574E+03 -0.74087833257E+03  0.90953581122E+03  0.00000000000E+00 0.  1.
        -11    1    3    3    0    0 -0.75833089781E+02  0.18467964084E+03 -0.33048844482E+03  0.38610858499E+03  0.00000000000E+00 0. -1.
         22    1    1    2    0    0  0.38677154280E+03 -0.61090958658E+03  0.69824313653E+03  0.10051598017E+04  0.00000000000E+00 0. -1.
<mgrwt>
<rscale>  0 0.22703477E+04</rscale>
<asrwt>0</asrwt>
<pdfrwt beam="1">  1        2 0.14828312E+00 0.22703477E+04</pdfrwt>
<pdfrwt beam="2">  1       -2 0.20568676E+00 0.22703477E+04</pdfrwt>
<totfact> 0.29494697E+00</totfact>
</mgrwt>
</event>
<event>
 6    1  0.1817112E-005  0.2902719E+04  0.7818608E-02  0.8272069E-01
         -2   -1    0    0    0  501 -0.00000000000E+00  0.00000000000E+00  0.21237541224E+04  0.21237541224E+04  0.00000000000E+00 0.  1.
          2   -1    0    0  501    0  0.00000000000E+00 -0.00000000000E+00 -0.99184969458E+03  0.99184969458E+03  0.00000000000E+00 0. -1.
         23    2    1    2    0    0  0.62672022908E+03 -0.11114133951E+04 -0.17285809858E+03  0.12906590971E+04  0.88898832450E+02 0.  0.
         11    1    3    3    0    0  0.37821031822E+03 -0.59359812555E+03 -0.11820188896E+03  0.71370404652E+03  0.00000000000E+00 0. -1.
        -11    1    3    3    0    0  0.24850991086E+03 -0.51781526953E+03 -0.54656209622E+02  0.57695505059E+03  0.00000000000E+00 0.  1.
         22    1    1    2    0    0 -0.62672022908E+03  0.11114133951E+04  0.13047625264E+04  0.18249447199E+04  0.00000000000E+00 0.  1.
<mgrwt>
<rscale>  0 0.29027193E+04</rscale>
<asrwt>0</asrwt>
<pdfrwt beam="1">  1        2 0.15259226E+00 0.29027193E+04</pdfrwt>
<pdfrwt beam="2">  1       -2 0.32673140E+00 0.29027193E+04</pdfrwt>
<totfact> 0.47848645E-01</totfact>
</mgrwt>
</event>
<event>
 6    1  0.1817112E-005  0.1396758E+04  0.7818608E-02  0.8956168E-01
          2   -1    0    0  501    0  0.00000000000E+00  0.00000000000E+00  0.53949043766E+03  0.53949043766E+03  0.00000000000E+00 0.  1.
         -2   -1    0    0    0  501 -0.00000000000E+00 -0.00000000000E+00 -0.90406335531E+03  0.90406335531E+03  0.00000000000E+00 0. -1.
         23    2    1    2    0    0  0.31075867180E+03 -0.16632930041E+03 -0.80260505760E+03  0.88131848288E+03  0.91164694342E+02 0.  0.
         13    1    3    3    0    0 -0.61617759571E+01 -0.66254132402E+01 -0.24017663214E+02  0.25665379985E+02  0.00000000000E+00 0.  1.
        -13    1    3    3    0    0  0.31692044776E+03 -0.15970388717E+03 -0.77858739439E+03  0.85565310289E+03  0.00000000000E+00 0. -1.
         22    1    1    2    0    0 -0.31075867180E+03  0.16632930041E+03  0.43803213996E+03  0.56223531009E+03  0.00000000000E+00 0.  1.
<mgrwt>
<rscale>  0 0.13967584E+04</rscale>
<asrwt>0</asrwt>
<pdfrwt beam="1">  1        2 0.82998530E-01 0.13967584E+04</pdfrwt>
<pdfrwt beam="2">  1       -2 0.13908667E+00 0.13967584E+04</pdfrwt>
<totfact> 0.20018680E+01</totfact>
</mgrwt>
</event>
<event>
 6    1  0.1817112E-005  0.6412471E+03  0.7818608E-02  0.9823343E-01
          2   -1    0    0  501    0  0.00000000000E+00  0.00000000000E+00  0.17048521886E+04  0.17048521886E+04  0.00000000000E+00 0. -1.
         -2   -1    0    0    0  501 -0.00000000000E+00 -0.00000000000E+00 -0.60298162514E+02  0.60298162514E+02  0.00000000000E+00 0.  1.
         23    2    1    2    0    0  0.27045205836E+03  0.15455198870E+03  0.73956148861E+03  0.80804945467E+03  0.94668329903E+02 0.  0.
         11    1    3    3    0    0  0.14255069610E+03  0.11397602062E+03  0.51579987797E+03  0.54713869206E+03  0.00000000000E+00 0. -1.
        -11    1    3    3    0    0  0.12790136226E+03  0.40575968074E+02  0.22376161064E+03  0.26091076262E+03  0.00000000000E+00 0.  1.
         22    1    1    2    0    0 -0.27045205836E+03 -0.15455198870E+03  0.90499253752E+03  0.95710089648E+03  0.00000000000E+00 0. -1.
<mgrwt>
<rscale>  0 0.64124708E+03</rscale>
<asrwt>0</asrwt>
<pdfrwt beam="1">  1        2 0.26228491E+00 0.64124708E+03</pdfrwt>
<pdfrwt beam="2">  1       -2 0.92766417E-02 0.64124708E+03</pdfrwt>
<totfact> 0.77273092E+02</totfact>
</mgrwt>
</event>
<event>
 6    1  0.1817112E-005  0.7621349E+03  0.7818608E-02  0.9616503E-01
         -2   -1    0    0    0  501 -0.00000000000E+00  0.00000000000E+00  0.46053832343E+03  0.46053832343E+03  0.00000000000E+00 0.  1.
          2   -1    0    0  501    0  0.00000000000E+00 -0.00000000000E+00 -0.31531013493E+03  0.31531013493E+03  0.00000000000E+00 0. -1.
         23    2    1    2    0    0 -0.13085033918E+03 -0.21408875234E+03  0.35833482372E+03  0.44665209885E+03  0.90213338137E+02 0.  0.
         11    1    3    3    0    0 -0.94813879901E+02 -0.95143014408E+02  0.13135034165E+03  0.18786904286E+03  0.00000000000E+00 0.  1.
        -11    1    3    3    0    0 -0.36036459275E+02 -0.11894573793E+03  0.22698448208E+03  0.25878305600E+03  0.00000000000E+00 0. -1.
         22    1    1    2    0    0  0.13085033918E+03  0.21408875234E+03 -0.21310663522E+03  0.32919635951E+03  0.00000000000E+00 0.  1.
<mgrwt>
<rscale>  0 0.76213490E+03</rscale>
<asrwt>0</asrwt>
<pdfrwt beam="1">  1        2 0.48509252E-01 0.76213490E+03</pdfrwt>
<pdfrwt beam="2">  1       -2 0.70852050E-01 0.76213490E+03</pdfrwt>
<totfact> 0.18965759E+02</totfact>
</mgrwt>
</event>
<event>
 6    1  0.1817112E-005  0.8816576E+03  0.7818608E-02  0.9448805E-01
          2   -1    0    0  501    0  0.00000000000E+00  0.00000000000E+00  0.97931418659E+03  0.97931418659E+03  0.00000000000E+00 0. -1.
         -2   -1    0    0    0  501 -0.00000000000E+00 -0.00000000000E+00 -0.19843482775E+03  0.19843482775E+03  0.00000000000E+00 0.  1.
         23    2    1    2    0    0  0.33792269783E+03  0.16219706923E+03  0.96982107302E+02  0.39786755563E+03  0.91615630235E+02 0.  0.
         13    1    3    3    0    0  0.13844015014E+03  0.42101685762E+02 -0.23541309800E+01  0.14471962219E+03  0.00000000000E+00 0. -1.
        -13    1    3    3    0    0  0.19948254770E+03  0.12009538347E+03  0.99336238282E+02  0.25314793344E+03  0.00000000000E+00 0.  1.
         22    1    1    2    0    0 -0.33792269783E+03 -0.16219706923E+03  0.68389725154E+03  0.77988145871E+03  0.00000000000E+00 0. -1.
<mgrwt>
<rscale>  0 0.88165762E+03</rscale>
<asrwt>0</asrwt>
<pdfrwt beam="1">  1        2 0.15066372E+00 0.88165762E+03</pdfrwt>
<pdfrwt beam="2">  1       -2 0.30528436E-01 0.88165762E+03</pdfrwt>
<totfact> 0.25828503E+02</totfact>
</mgrwt>
</event>
<event>
 6    1  0.1817112E-005  0.3256540E+04  0.7818608E-02  0.8174043E-01
          2   -1    0    0  501    0  0.00000000000E+00  0.00000000000E+00  0.30301837377E+04  0.30301837377E+04  0.00000000000E+00 0. -1.
         -2   -1    0    0    0  501 -0.00000000000E+00 -0.00000000000E+00 -0.87495127998E+03  0.87495127998E+03  0.00000000000E+00 0.  1.
         23    2    1    2    0    0  0.13315689789E+04 -0.91855989939E+03  0.86882169079E+03  0.18383305045E+04  0.88202488709E+02 0.  0.
         13    1    3    3    0    0  0.10896577186E+04 -0.73606315492E+03  0.74165955822E+03  0.15097025575E+04  0.00000000000E+00 0. -1.
        -13    1    3    3    0    0  0.24191126035E+03 -0.18249674446E+03  0.12716213257E+03  0.32862794705E+03  0.00000000000E+00 0.  1.
         22    1    1    2    0    0 -0.13315689789E+04  0.91855989939E+03  0.12864107669E+04  0.20668045132E+04  0.00000000000E+00 0.  1.
<mgrwt>
<rscale>  0 0.32565400E+04</rscale>
<asrwt>0</asrwt>
<pdfrwt beam="1">  1        2 0.46618211E+00 0.32565400E+04</pdfrwt>
<pdfrwt beam="2">  1       -2 0.13460789E+00 0.32565400E+04</pdfrwt>
<totfact> 0.55480032E-01</totfact>
</mgrwt>
</event>
<event>
 6    1  0.1817112E-005  0.6152401E+04  0.7818608E-02  0.7671788E-01
          2   -1    0    0  501    0  0.00000000000E+00  0.00000000000E+00  0.38474647974E+04  0.38474647974E+04  0.00000000000E+00 0. -1.
         -2   -1    0    0    0  501 -0.00000000000E+00 -0.00000000000E+00 -0.24595437997E+04  0.24595437997E+04  0.00000000000E+00 0.  1.
         23    2    1    2    0    0  0.12079163423E+04  0.27355132715E+04  0.14310045414E+04  0.33163646965E+04  0.91684537289E+02 0.  0.
         13    1    3    3    0    0  0.79356085801E+03  0.17311462107E+04  0.87211224407E+03  0.20945610051E+04  0.00000000000E+00 0. -1.
        -13    1    3    3    0    0  0.41435548426E+03  0.10043670608E+04  0.55889229735E+03  0.12218036914E+04  0.00000000000E+00 0.  1.
         22    1    1    2    0    0 -0.12079163423E+04 -0.27355132715E+04 -0.43083543655E+02  0.29906439006E+04  0.00000000000E+00 0.  1.
<mgrwt>
<rscale>  0 0.61524006E+04</rscale>
<asrwt>0</asrwt>
<pdfrwt beam="1">  1        2 0.59191766E+00 0.61524006E+04</pdfrwt>
<pdfrwt beam="2">  1       -2 0.37839135E+00 0.61524006E+04</pdfrwt>
<totfact> 0.30698909E-03</totfact>
</mgrwt>
</event>
<event>
 6    1  0.1817112E-005  0.1117637E+04  0.7818608E-02  0.9188170E-01
          2   -1    0    0  501    0  0.00000000000E+00  0.00000000000E+00  0.30592221643E+04  0.30592221643E+04  0.00000000000E+00 0. -1.
         -2   -1    0    0    0  501 -0.00000000000E+00 -0.00000000000E+00 -0.10207766735E+03  0.10207766735E+03  0.00000000000E+00 0.  1.
         23    2    1    2    0    0  0.40769158226E+03 -0.19956235865E+03  0.58323601571E+03  0.74438464106E+03  0.88919528727E+02 0.  0.
         13    1    3    3    0    0  0.32774360196E+03 -0.14151798946E+03  0.39945271816E+03  0.53572911440E+03  0.00000000000E+00 0. -1.
        -13    1    3    3    0    0  0.79947980299E+02 -0.58044369191E+02  0.18378329755E+03  0.20865552666E+03  0.00000000000E+00 0.  1.
         22    1    1    2    0    0 -0.40769158226E+03  0.19956235865E+03  0.23739084812E+04  0.24169151906E+04  0.00000000000E+00 0. -1.
<mgrwt>
<rscale>  0 0.11176373E+04</rscale>
<asrwt>0</asrwt>
<pdfrwt beam="1">  1        2 0.47064949E+00 0.11176373E+04</pdfrwt>
<pdfrwt beam="2">  1       -2 0.15704259E-01 0.11176373E+04</pdfrwt>
<totfact> 0.52470916E+01</totfact>
</mgrwt>
</event>
<event>
 6    1  0.1817112E-005  0.1495233E+04  0.7818608E-02  0.8887629E-01
         -1   -1    0    0    0  501 -0.00000000000E+00  0.00000000000E+00  0.93928848647E+03  0.93928848647E+03  0.00000000000E+00 0.  1.
          1   -1    0    0  501    0  0.00000000000E+00 -0.00000000000E+00 -0.59505763723E+03  0.59505763723E+03  0.00000000000E+00 0. -1.
         23    2    1    2    0    0  0.70936338070E+03  0.21873227252E+03  0.10898461581E+03  0.75564142791E+03  0.89867169586E+02 0.  0.
         11    1    3    3    0    0  0.34497678015E+03  0.11037424794E+03  0.98423943433E+02  0.37533814899E+03  0.00000000000E+00 0. -1.
        -11    1    3    3    0    0  0.36438660055E+03  0.10835802459E+03  0.10560672381E+02  0.38030327891E+03  0.00000000000E+00 0.  1.
         22    1    1    2    0    0 -0.70936338070E+03 -0.21873227252E+03  0.23524623342E+03  0.77870469580E+03  0.00000000000E+00 0. -1.
<mgrwt>
<rscale>  0 0.14952335E+04</rscale>
<asrwt>0</asrwt>
<pdfrwt beam="1">  1        1 0.91547329E-01 0.14952335E+04</pdfrwt>
<pdfrwt beam="2">  1       -1 0.14450592E+00 0.14952335E+04</pdfrwt>
<totfact> 0.12934131E+01</totfact>
</mgrwt>
</event>
<event>
 6    1  0.1817112E-005  0.2463205E+04  0.7818608E-02  0.8416212E-01
          2   -1    0    0  501    0  0.00000000000E+00  0.00000000000E+00  0.24141494878E+04  0.24141494878E+04  0.00000000000E+00 0. -1.
         -2   -1    0    0    0  501 -0.00000000000E+00 -0.00000000000E+00 -0.62831448598E+03  0.62831448598E+03  0.00000000000E+00 0.  1.
         23    2    1    2    0    0 -0.32474332845E+03  0.11768172835E+04  0.10773296451E+04  0.16309622952E+04  0.95087833594E+02 0.  0.
         13    1    3    3    0    0 -0.41279836369E+02  0.23125912848E+03  0.16772198459E+03  0.28864419882E+03  0.00000000000E+00 0.  1.
        -13    1    3    3    0    0 -0.28346349208E+03  0.94555815500E+03  0.90960766055E+03  0.13423180964E+04  0.00000000000E+00 0. -1.
         22    1    1    2    0    0  0.32474332845E+03 -0.11768172835E+04  0.70850535664E+03  0.14115016785E+04  0.00000000000E+00 0.  1.
<mgrwt>
<rscale>  0 0.24632053E+04</rscale>
<asrwt>0</asrwt>
<pdfrwt beam="1">  1        2 0.37140761E+00 0.24632053E+04</pdfrwt>
<pdfrwt beam="2">  1       -2 0.96663768E-01 0.24632053E+04</pdfrwt>
<totfact> 0.31229502E+00</totfact>
</mgrwt>
</event>
<event>
 6    1  0.1817112E-005  0.1984818E+04  0.7818608E-02  0.8613752E-01
          1   -1    0    0  501    0  0.00000000000E+00  0.00000000000E+00  0.23282415646E+04  0.23282415646E+04  0.00000000000E+00 0. -1.
         -1   -1    0    0    0  501 -0.00000000000E+00 -0.00000000000E+00 -0.42301253413E+03  0.42301253413E+03  0.00000000000E+00 0.  1.
         23    2    1    2    0    0  0.42296263195E+03  0.85723518085E+03  0.13136221447E+04  0.16270885190E+04  0.89801817187E+02 0.  0.
         11    1    3    3    0    0  0.31977280301E+03  0.55273314667E+03  0.88000326877E+03  0.10872784050E+04  0.00000000000E+00 0.  1.
        -11    1    3    3    0    0  0.10318982894E+03  0.30450203418E+03  0.43361887589E+03  0.53981011397E+03  0.00000000000E+00 0. -1.
         22    1    1    2    0    0 -0.42296263195E+03 -0.85723518085E+03  0.59160688581E+03  0.11241655797E+04  0.00000000000E+00 0.  1.
<mgrwt>
<rscale>  0 0.19848177E+04</rscale>
<asrwt>0</asrwt>
<pdfrwt beam="1">  1        1 0.35819100E+00 0.19848177E+04</pdfrwt>
<pdfrwt beam="2">  1       -1 0.65078853E-01 0.19848177E+04</pdfrwt>
<totfact> 0.39587017E+00</totfact>
</mgrwt>
</event>
<event>
 6    1  0.1817112E-005  0.2149748E+04  0.7818608E-02  0.8539640E-01
         -2   -1    0    0    0  501 -0.00000000000E+00  0.00000000000E+00  0.91357127255E+03  0.91357127255E+03  0.00000000000E+00 0.  1.
          2   -1    0    0  501    0  0.00000000000E+00 -0.00000000000E+00 -0.12646568538E+04  0.12646568538E+04  0.00000000000E+00 0. -1.
         23    2    1    2    0    0  0.50345095508E+03 -0.33641132486E+03  0.72174080018E+03  0.94632233110E+03  0.89334920501E+02 0.  0.
         11    1    3    3    0    0  0.61224423434E+02 -0.72588172759E+02  0.14297697092E+03  0.17163882738E+03  0.00000000000E+00 0.  1.
        -11    1    3    3    0    0  0.44222653165E+03 -0.26382315211E+03  0.57876382926E+03  0.77468350372E+03  0.00000000000E+00 0. -1.
         22    1    1    2    0    0 -0.50345095508E+03  0.33641132486E+03 -0.10728263814E+04  0.12319057953E+04  0.00000000000E+00 0. -1.
<mgrwt>
<rscale>  0 0.21497481E+04</rscale>
<asrwt>0</asrwt>
<pdfrwt beam="1">  1        2 0.19456259E+00 0.21497481E+04</pdfrwt>
<pdfrwt beam="2">  1       -2 0.14054943E+00 0.21497481E+04</pdfrwt>
<totfact> 0.56585614E+00</totfact>
</mgrwt>
</event>
<event>
 6    1  0.1817112E-005  0.5354441E+04  0.7818608E-02  0.7776042E-01
          2   -1    0    0  501    0  0.00000000000E+00  0.00000000000E+00  0.38555122972E+04  0.38555122972E+04  0.00000000000E+00 0. -1.
         -2   -1    0    0    0  501 -0.00000000000E+00 -0.00000000000E+00 -0.18590293955E+04  0.18590293955E+04  0.00000000000E+00 0.  1.
         23    2    1    2    0    0 -0.18373519994E+04  0.16222338886E+04 -0.14903221165E+03  0.24571285687E+04  0.88119487190E+02 0.  0.
         11    1    3    3    0    0 -0.14853625075E+04  0.13183681623E+04 -0.15493527774E+03  0.19920846695E+04  0.00000000000E+00 0.  1.
        -11    1    3    3    0    0 -0.35198949186E+03  0.30386572631E+03  0.59030660822E+01  0.46504389922E+03  0.00000000000E+00 0. -1.
         22    1    1    2    0    0  0.18373519994E+04 -0.16222338886E+04  0.21455151134E+04  0.32574131240E+04  0.00000000000E+00 0. -1.
<mgrwt>
<rscale>  0 0.53544414E+04</rscale>
<asrwt>0</asrwt>
<pdfrwt beam="1">  1        2 0.59315574E+00 0.53544414E+04</pdfrwt>
<pdfrwt beam="2">  1       -2 0.28600452E+00 0.53544414E+04</pdfrwt>
<totfact> 0.12150816E-02</totfact>
</mgrwt>
</event>
<event>
 6    1  0.1817112E-005  0.3523561E+04  0.7818608E-02  0.8108229E-01
         -1   -1    0    0    0  501 -0.00000000000E+00  0.00000000000E+00  0.15317635603E+04  0.15317635603E+04  0.00000000000E+00 0.  1.
          1   -1    0    0  501    0  0.00000000000E+00 -0.00000000000E+00 -0.20263378060E+04  0.20263378060E+04  0.00000000000E+00 0. -1.
         23    2    1    2    0    0 -0.38240554101E+03 -0.15948620435E+04  0.39872106912E+03  0.16905373232E+04  0.95493531344E+02 0.  0.
         13    1    3    3    0    0 -0.14939371077E+03 -0.73185888639E+03  0.22294078337E+03  0.77951170825E+03  0.00000000000E+00 0.  1.
        -13    1    3    3    0    0 -0.23301183024E+03 -0.86300315711E+03  0.17578028575E+03  0.91102561494E+03  0.00000000000E+00 0. -1.
         22    1    1    2    0    0  0.38240554101E+03  0.15948620435E+04 -0.89329531482E+03  0.18675640431E+04  0.00000000000E+00 0. -1.
<mgrwt>
<rscale>  0 0.35235609E+04</rscale>
<asrwt>0</asrwt>
<pdfrwt beam="1">  1        1 0.31174428E+00 0.35235609E+04</pdfrwt>
<pdfrwt beam="2">  1       -1 0.23565593E+00 0.35235609E+04</pdfrwt>
<totfact> 0.20165885E-01</totfact>
</mgrwt>
</event>
<event>
 6    1  0.1817112E-005  0.3221490E+04  0.7818608E-02  0.8183165E-01
          2   -1    0    0  501    0  0.00000000000E+00  0.00000000000E+00  0.13012532821E+04  0.13012532821E+04  0.00000000000E+00 0.  1.
         -2   -1    0    0    0  501 -0.00000000000E+00 -0.00000000000E+00 -0.19938465782E+04  0.19938465782E+04  0.00000000000E+00 0. -1.
         23    2    1    2    0    0  0.88745997885E+03  0.12854945192E+04  0.50500096939E+02  0.15652821926E+04  0.86467970618E+02 0.  0.
         11    1    3    3    0    0  0.63137932854E+03  0.85265669926E+03  0.54112435856E+02  0.10623518527E+04  0.00000000000E+00 0. -1.
        -11    1    3    3    0    0  0.25608065031E+03  0.43283781989E+03 -0.36123389170E+01  0.50293033989E+03  0.00000000000E+00 0.  1.
         22    1    1    2    0    0 -0.88745997885E+03 -0.12854945192E+04 -0.74309339302E+03  0.17298176677E+04  0.00000000000E+00 0. -1.
<mgrwt>
<rscale>  0 0.32214900E+04</rscale>
<asrwt>0</asrwt>
<pdfrwt beam="1">  1        2 0.20019281E+00 0.32214900E+04</pdfrwt>
<pdfrwt beam="2">  1       -2 0.30674563E+00 0.32214900E+04</pdfrwt>
<totfact> 0.40079844E-01</totfact>
</mgrwt>
</event>
<event>
 6    1  0.1817112E-005  0.4514467E+04  0.7818608E-02  0.7908109E-01
          2   -1    0    0  501    0  0.00000000000E+00  0.00000000000E+00  0.29867022812E+04  0.29867022812E+04  0.00000000000E+00 0. -1.
         -2   -1    0    0    0  501 -0.00000000000E+00 -0.00000000000E+00 -0.17059293198E+04  0.17059293198E+04  0.00000000000E+00 0.  1.
         23    2    1    2    0    0  0.14271868747E+04 -0.57815482093E+03 -0.10736130126E+04  0.18794023735E+04  0.91558770960E+02 0.  0.
         13    1    3    3    0    0  0.11424858581E+04 -0.45758216314E+03 -0.81260573313E+03  0.14747825092E+04  0.00000000000E+00 0. -1.
        -13    1    3    3    0    0  0.28470101657E+03 -0.12057265778E+03 -0.26100727948E+03  0.40461986430E+03  0.00000000000E+00 0.  1.
         22    1    1    2    0    0 -0.14271868747E+04  0.57815482093E+03  0.23543859740E+04  0.28132292275E+04  0.00000000000E+00 0. -1.
<mgrwt>
<rscale>  0 0.45144670E+04</rscale>
<asrwt>0</asrwt>
<pdfrwt beam="1">  1        2 0.45949266E+00 0.45144670E+04</pdfrwt>
<pdfrwt beam="2">  1       -2 0.26245066E+00 0.45144670E+04</pdfrwt>
<totfact> 0.72365014E-02</totfact>
</mgrwt>
</event>
<event>
 6    1  0.1817112E-005  0.3963348E+04  0.7818608E-02  0.8011981E-01
         -2   -1    0    0    0  501 -0.00000000000E+00  0.00000000000E+00  0.26469471853E+04  0.26469471853E+04  0.00000000000E+00 0.  1.
          2   -1    0    0  501    0  0.00000000000E+00 -0.00000000000E+00 -0.14836080835E+04  0.14836080835E+04  0.00000000000E+00 0. -1.
         23    2    1    2    0    0  0.18267805574E+04 -0.33245838608E+03 -0.13604237312E+03  0.18642702026E+04  0.96644077581E+02 0.  0.
         13    1    3    3    0    0  0.56341077938E+03 -0.74064431855E+02 -0.69420925205E+01  0.56830048305E+03  0.00000000000E+00 0. -1.
        -13    1    3    3    0    0  0.12633697780E+04 -0.25839395423E+03 -0.12910028060E+03  0.12959697196E+04  0.00000000000E+00 0.  1.
         22    1    1    2    0    0 -0.18267805574E+04  0.33245838608E+03  0.12993814749E+04  0.22662850661E+04  0.00000000000E+00 0.  1.
<mgrwt>
<rscale>  0 0.39633482E+04</rscale>
<asrwt>0</asrwt>
<pdfrwt beam="1">  1        2 0.22824740E+00 0.39633482E+04</pdfrwt>
<pdfrwt beam="2">  1       -2 0.40722264E+00 0.39633482E+04</pdfrwt>
<totfact> 0.68255034E-02</totfact>
</mgrwt>
</event>
<event>
 6    1  0.1817112E-005  0.1818819E+04  0.7818608E-02  0.8696355E-01
         -2   -1    0    0    0  501 -0.00000000000E+00  0.00000000000E+00  0.65316060847E+03  0.65316060847E+03  0.00000000000E+00 0.  1.
          2   -1    0    0  501    0  0.00000000000E+00 -0.00000000000E+00 -0.12661904893E+04  0.12661904893E+04  0.00000000000E+00 0. -1.
         23    2    1    2    0    0 -0.84076402558E+03 -0.31408759122E+03 -0.44835310465E+03  0.10068525486E+04  0.84831518489E+02 0.  0.
         11    1    3    3    0    0 -0.64169221812E+03 -0.20398746772E+03 -0.35209370889E+03  0.75983535692E+03  0.00000000000E+00 0.  1.
        -11    1    3    3    0    0 -0.19907180746E+03 -0.11010012350E+03 -0.96259395752E+02  0.24701719169E+03  0.00000000000E+00 0. -1.
         22    1    1    2    0    0  0.84076402558E+03  0.31408759122E+03 -0.16467677624E+03  0.91249854921E+03  0.00000000000E+00 0.  1.
<mgrwt>
<rscale>  0 0.18188191E+04</rscale>
<asrwt>0</asrwt>
<pdfrwt beam="1">  1        2 0.19479853E+00 0.18188191E+04</pdfrwt>
<pdfrwt beam="2">  1       -2 0.10048625E+00 0.18188191E+04</pdfrwt>
<totfact> 0.13320726E+01</totfact>
</mgrwt>
</event>
<event>
 6    1  0.1817112E-005  0.2245766E+04  0.7818608E-02  0.8499617E-01
          2   -1    0    0  501    0  0.00000000000E+00  0.00000000000E+00  0.16316149910E+04  0.16316149910E+04  0.00000000000E+00 0. -1.
         -2   -1    0    0    0  501 -0.00000000000E+00 -0.00000000000E+00 -0.77277188937E+03  0.77277188937E+03  0.00000000000E+00 0.  1.
         23    2    1    2    0    0  0.10179959622E+04 -0.43292894900E+03  0.23558751659E+03  0.11346661322E+04  0.90678000527E+02 0.  0.
         13    1    3    3    0    0  0.85498851064E+03 -0.33997420285E+03  0.22212994868E+03  0.94653553870E+03  0.00000000000E+00 0. -1.
        -13    1    3    3    0    0  0.16300745154E+03 -0.92954746155E+02  0.13457567911E+02  0.18813059354E+03  0.00000000000E+00 0.  1.
         22    1    1    2    0    0 -0.10179959622E+04  0.43292894900E+03  0.62325558500E+03  0.12697207481E+04  0.00000000000E+00 0. -1.
<mgrwt>
<rscale>  0 0.22457660E+04</rscale>
<asrwt>0</asrwt>
<pdfrwt beam="1">  1        2 0.25101769E+00 0.22457660E+04</pdfrwt>
<pdfrwt beam="2">  1       -2 0.11888798E+00 0.22457660E+04</pdfrwt>
<totfact> 0.52991902E+00</totfact>
</mgrwt>
</event>
<event>
 6    1  0.1817112E-005  0.4164937E+04  0.7818608E-02  0.7972076E-01
         -2   -1    0    0    0  501 -0.00000000000E+00  0.00000000000E+00  0.18515672168E+04  0.18515672168E+04  0.00000000000E+00 0.  1.
          2   -1    0    0  501    0  0.00000000000E+00 -0.00000000000E+00 -0.23421641280E+04  0.23421641280E+04  0.00000000000E+00 0. -1.
         23    2    1    2    0    0  0.68955390172E+03 -0.14280254088E+04  0.11123514671E+04  0.19389176817E+04  0.85643672597E+02 0.  0.
         11    1    3    3    0    0  0.28481965053E+03 -0.67075685456E+03  0.54019076305E+03  0.90710696820E+03  0.00000000000E+00 0.  1.
        -11    1    3    3    0    0  0.40473425119E+03 -0.75726855423E+03  0.57216070407E+03  0.10318107136E+04  0.00000000000E+00 0. -1.
         22    1    1    2    0    0 -0.68955390172E+03  0.14280254088E+04 -0.16029483783E+04  0.22548136630E+04  0.00000000000E+00 0. -1.
<mgrwt>
<rscale>  0 0.41649366E+04</rscale>
<asrwt>0</asrwt>
<pdfrwt beam="1">  1        2 0.36033294E+00 0.41649366E+04</pdfrwt>
<pdfrwt beam="2">  1       -2 0.28485649E+00 0.41649366E+04</pdfrwt>
<totfact> 0.13136982E-01</totfact>
</mgrwt>
</event>
<event>
 6    1  0.1817112E-005  0.1781683E+04  0.7818608E-02  0.8716101E-01
         -2   -1    0    0    0  501 -0.00000000000E+00  0.00000000000E+00  0.82921389200E+03  0.82921389200E+03  0.00000000000E+00 0.  1.
          2   -1    0    0  501    0  0.00000000000E+00 -0.00000000000E+00 -0.95704928166E+03  0.95704928166E+03  0.00000000000E+00 0. -1.
         23    2    1    2    0    0  0.34805668268E+03  0.72398301907E+03  0.31713595270E+03  0.86795257165E+03  0.86438347276E+02 0.  0.
         11    1    3    3    0    0  0.21478180458E+03  0.48089909070E+03  0.16608392466E+03  0.55224906432E+03  0.00000000000E+00 0. -1.
        -11    1    3    3    0    0  0.13327487810E+03  0.24308392837E+03  0.15105202804E+03  0.31570350733E+03  0.00000000000E+00 0.  1.
         22    1    1    2    0    0 -0.34805668268E+03 -0.72398301907E+03 -0.44497134236E+03  0.91831060202E+03  0.00000000000E+00 0. -1.
<mgrwt>
<rscale>  0 0.17816830E+04</rscale>
<asrwt>0</asrwt>
<pdfrwt beam="1">  1        2 0.14723835E+00 0.17816830E+04</pdfrwt>
<pdfrwt beam="2">  1       -2 0.12757137E+00 0.17816830E+04</pdfrwt>
<totfact> 0.11568141E+01</totfact>
</mgrwt>
</event>
<event>
 6    1  0.1817112E-005  0.4147303E+04  0.7818608E-02  0.7975473E-01
          2   -1    0    0  501    0  0.00000000000E+00  0.00000000000E+00  0.26801018591E+04  0.26801018591E+04  0.00000000000E+00 0. -1.
         -2   -1    0    0    0  501 -0.00000000000E+00 -0.00000000000E+00 -0.16044277595E+04  0.16044277595E+04  0.00000000000E+00 0.  1.
         23    2    1    2    0    0  0.67552480217E+03 -0.47617546255E+02  0.25617735108E+04  0.26514060321E+04  0.93108737115E+02 0.  0.
         11    1    3    3    0    0  0.78798429068E+02  0.24278654941E+02  0.32213283084E+03  0.33251797879E+03  0.00000000000E+00 0. -1.
        -11    1    3    3    0    0  0.59672637310E+03 -0.71896201196E+02  0.22396406800E+04  0.23188880533E+04  0.00000000000E+00 0.  1.
         22    1    1    2    0    0 -0.67552480217E+03  0.47617546255E+02 -0.14860994112E+04  0.16331235866E+04  0.00000000000E+00 0.  1.
<mgrwt>
<rscale>  0 0.41473027E+04</rscale>
<asrwt>0</asrwt>
<pdfrwt beam="1">  1        2 0.41232336E+00 0.41473027E+04</pdfrwt>
<pdfrwt beam="2">  1       -2 0.24683504E+00 0.41473027E+04</pdfrwt>
<totfact> 0.14297207E-01</totfact>
</mgrwt>
</event>
<event>
 6    1  0.1817112E-005  0.2858173E+04  0.7818608E-02  0.8285432E-01
          1   -1    0    0  501    0  0.00000000000E+00  0.00000000000E+00  0.79854426395E+03  0.79854426395E+03  0.00000000000E+00 0. -1.
         -1   -1    0    0    0  501 -0.00000000000E+00 -0.00000000000E+00 -0.25575146187E+04  0.25575146187E+04  0.00000000000E+00 0.  1.
         23    2    1    2    0    0 -0.54685037575E+03  0.24046750457E+03 -0.24029233686E+04  0.24776822901E+04  0.89436351370E+02 0.  0.
         13    1    3    3    0    0 -0.13163919667E+03  0.99052665784E+02 -0.70920577052E+03  0.72808868529E+03  0.00000000000E+00 0.  1.
        -13    1    3    3    0    0 -0.41521117908E+03  0.14141483879E+03 -0.16937175981E+04  0.17495936048E+04  0.00000000000E+00 0. -1.
         22    1    1    2    0    0  0.54685037575E+03 -0.24046750457E+03  0.64395301390E+03  0.87837659254E+03  0.00000000000E+00 0. -1.
<mgrwt>
<rscale>  0 0.28581733E+04</rscale>
<asrwt>0</asrwt>
<pdfrwt beam="1">  1        1 0.12285297E+00 0.28581733E+04</pdfrwt>
<pdfrwt beam="2">  1       -1 0.39346378E+00 0.28581733E+04</pdfrwt>
<totfact> 0.15136242E-01</totfact>
</mgrwt>
</event>
<event>
 6    1  0.1817112E-005  0.1956669E+04  0.7818608E-02  0.8627151E-01
         -2   -1    0    0    0  501 -0.00000000000E+00  0.00000000000E+00  0.75719220415E+03  0.75719220415E+03  0.00000000000E+00 0.  1.
          2   -1    0    0  501    0  0.00000000000E+00 -0.00000000000E+00 -0.12640630022E+04  0.12640630022E+04  0.00000000000E+00 0. -1.
         23    2    1    2    0    0 -0.22457514028E+03 -0.53558512675E+03 -0.10642977115E+04  0.12162644080E+04  0.96353878029E+02 0.  0.
         13    1    3    3    0    0 -0.19375470231E+03 -0.36076664024E+03 -0.78348718593E+03  0.88405069080E+03  0.00000000000E+00 0. -1.
        -13    1    3    3    0    0 -0.30820437973E+02 -0.17481848651E+03 -0.28081052556E+03  0.33221371719E+03  0.00000000000E+00 0.  1.
         22    1    1    2    0    0  0.22457514028E+03  0.53558512675E+03  0.55742691344E+03  0.80499079837E+03  0.00000000000E+00 0.  1.
<mgrwt>
<rscale>  0 0.19566693E+04</rscale>
<asrwt>0</asrwt>
<pdfrwt beam="1">  1        2 0.19447123E+00 0.19566693E+04</pdfrwt>
<pdfrwt beam="2">  1       -2 0.11649111E+00 0.19566693E+04</pdfrwt>
<totfact> 0.92452792E+00</totfact>
</mgrwt>
</event>
<event>
 6    1  0.1817112E-005  0.2009399E+04  0.7818608E-02  0.8602239E-01
          2   -1    0    0  501    0  0.00000000000E+00  0.00000000000E+00  0.95213177782E+03  0.95213177782E+03  0.00000000000E+00 0.  1.
         -2   -1    0    0    0  501 -0.00000000000E+00 -0.00000000000E+00 -0.10601698633E+04  0.10601698633E+04  0.00000000000E+00 0. -1.
         23    2    1    2    0    0 -0.16617230945E+03 -0.89891690765E+03 -0.46652546618E+03  0.10303759588E+04  0.91453609487E+02 0.  0.
         13    1    3    3    0    0 -0.10502336775E+03 -0.37248041478E+03 -0.16580467699E+03  0.42102584016E+03  0.00000000000E+00 0.  1.
        -13    1    3    3    0    0 -0.61148941694E+02 -0.52643649287E+03 -0.30072078918E+03  0.60935011869E+03  0.00000000000E+00 0. -1.
         22    1    1    2    0    0  0.16617230945E+03  0.89891690765E+03  0.35848738073E+03  0.98192568224E+03  0.00000000000E+00 0.  1.
<mgrwt>
<rscale>  0 0.20093993E+04</rscale>
<asrwt>0</asrwt>
<pdfrwt beam="1">  1        2 0.14648181E+00 0.20093993E+04</pdfrwt>
<pdfrwt beam="2">  1       -2 0.16310305E+00 0.20093993E+04</pdfrwt>
<totfact> 0.60031027E+00</totfact>
</mgrwt>
</event>
<event>
 6    1  0.1817112E-005  0.2659376E+04  0.7818608E-02  0.8348308E-01
         -2   -1    0    0    0  501 -0.00000000000E+00  0.00000000000E+00  0.60900145199E+03  0.60900145199E+03  0.00000000000E+00 0.  1.
          2   -1    0    0  501    0  0.00000000000E+00 -0.00000000000E+00 -0.29032285119E+04  0.29032285119E+04  0.00000000000E+00 0. -1.
         23    2    1    2    0    0 -0.22298944180E+03  0.24837650093E+03 -0.28462265193E+04  0.28671574249E+04  0.90394259989E+02 0.  0.
         13    1    3    3    0    0 -0.83921412297E+02  0.45013189608E+02 -0.10094250631E+04  0.10139072683E+04  0.00000000000E+00 0. -1.
        -13    1    3    3    0    0 -0.13906802951E+03  0.20336331132E+03 -0.18368014563E+04  0.18532501566E+04  0.00000000000E+00 0.  1.
         22    1    1    2    0    0  0.22298944180E+03 -0.24837650093E+03  0.55199945943E+03  0.64507253901E+03  0.00000000000E+00 0.  1.
<mgrwt>
<rscale>  0 0.26593762E+04</rscale>
<asrwt>0</asrwt>
<pdfrwt beam="1">  1        2 0.44665053E+00 0.26593762E+04</pdfrwt>
<pdfrwt beam="2">  1       -2 0.93692533E-01 0.26593762E+04</pdfrwt>
<totfact> 0.16942092E+00</totfact>
</mgrwt>
</event>
<event>
 6    1  0.1817112E-005  0.2591234E+04  0.7818608E-02  0.8371185E-01
         -2   -1    0    0    0  501 -0.00000000000E+00  0.00000000000E+00  0.46860299343E+03  0.46860299343E+03  0.00000000000E+00 0.  1.
          2   -1    0    0  501    0  0.00000000000E+00 -0.00000000000E+00 -0.35821870063E+04  0.35821870063E+04  0.00000000000E+00 0. -1.
         23    2    1    2    0    0  0.83447915119E+03  0.58770326013E+03 -0.31508548773E+03  0.10719740318E+04  0.89993802511E+02 0.  0.
         11    1    3    3    0    0  0.28124095906E+03  0.24492620561E+03 -0.93735940406E+02  0.38454095981E+03  0.00000000000E+00 0. -1.
        -11    1    3    3    0    0  0.55323819212E+03  0.34277705453E+03 -0.22134954732E+03  0.68743307197E+03  0.00000000000E+00 0.  1.
         22    1    1    2    0    0 -0.83447915119E+03 -0.58770326013E+03 -0.27984985251E+04  0.29788159680E+04  0.00000000000E+00 0. -1.
<mgrwt>
<rscale>  0 0.25912341E+04</rscale>
<asrwt>0</asrwt>
<pdfrwt beam="1">  1        2 0.55110570E+00 0.25912341E+04</pdfrwt>
<pdfrwt beam="2">  1       -2 0.72092768E-01 0.25912341E+04</pdfrwt>
<totfact> 0.10978562E+00</totfact>
</mgrwt>
</event>
<event>
 6    1  0.1817112E-005  0.2642209E+04  0.7818608E-02  0.8354004E-01
          2   -1    0    0  501    0  0.00000000000E+00  0.00000000000E+00  0.24298961442E+04  0.24298961442E+04  0.00000000000E+00 0.  1.
         -2   -1    0    0    0  501 -0.00000000000E+00 -0.00000000000E+00 -0.71826806247E+03  0.71826806247E+03  0.00000000000E+00 0. -1.
         23    2    1    2    0    0  0.89872292799E+03  0.59889079875E+01  0.20080134470E+04  0.22018117073E+04  0.90100071049E+02 0.  0.
         11    1    3    3    0    0  0.52624679829E+03 -0.40886091612E+02  0.11751402258E+04  0.12882398516E+04  0.00000000000E+00 0. -1.
        -11    1    3    3    0    0  0.37247612970E+03  0.46874999599E+02  0.83287322129E+03  0.91357185570E+03  0.00000000000E+00 0.  1.
         22    1    1    2    0    0 -0.89872292799E+03 -0.59889079875E+01 -0.29638536527E+03  0.94635249937E+03  0.00000000000E+00 0. -1.
<mgrwt>
<rscale>  0 0.26422088E+04</rscale>
<asrwt>0</asrwt>
<pdfrwt beam="1">  1        2 0.37383017E+00 0.26422088E+04</pdfrwt>
<pdfrwt beam="2">  1       -2 0.11050278E+00 0.26422088E+04</pdfrwt>
<totfact> 0.21883482E+00</totfact>
</mgrwt>
</event>
<event>
 6    1  0.1817112E-005  0.3155302E+04  0.7818608E-02  0.8200723E-01
         -2   -1    0    0    0  501 -0.00000000000E+00  0.00000000000E+00  0.10756932364E+04  0.10756932364E+04  0.00000000000E+00 0.  1.
          2   -1    0    0  501    0  0.00000000000E+00 -0.00000000000E+00 -0.23138408313E+04  0.23138408313E+04  0.00000000000E+00 0. -1.
         23    2    1    2    0    0  0.54929772868E+03 -0.40066877016E+02  0.96697997968E+03  0.11166678223E+04  0.92538612722E+02 0.  0.
         11    1    3    3    0    0  0.19716595477E+03 -0.97594802293E+01  0.26191005589E+03  0.32797338086E+03  0.00000000000E+00 0.  1.
        -11    1    3    3    0    0  0.35213177391E+03 -0.30307396787E+02  0.70506992379E+03  0.78869444142E+03  0.00000000000E+00 0. -1.
         22    1    1    2    0    0 -0.54929772868E+03  0.40066877016E+02 -0.22051275746E+04  0.22728662454E+04  0.00000000000E+00 0. -1.
<mgrwt>
<rscale>  0 0.31553022E+04</rscale>
<asrwt>0</asrwt>
<pdfrwt beam="1">  1        2 0.35597551E+00 0.31553022E+04</pdfrwt>
<pdfrwt beam="2">  1       -2 0.16549127E+00 0.31553022E+04</pdfrwt>
<totfact> 0.86400622E-01</totfact>
</mgrwt>
</event>
<event>
 6    1  0.1817112E-005  0.3054766E+04  0.7818608E-02  0.8228263E-01
          2   -1    0    0  501    0  0.00000000000E+00  0.00000000000E+00  0.32458365538E+04  0.32458365538E+04  0.00000000000E+00 0. -1.
         -2   -1    0    0    0  501 -0.00000000000E+00 -0.00000000000E+00 -0.71873594803E+03  0.71873594803E+03  0.00000000000E+00 0.  1.
         23    2    1    2    0    0 -0.49073322452E+03 -0.17971670954E+03 -0.59657520979E+03  0.79748112422E+03  0.83408448100E+02 0.  0.
         13    1    3    3    0    0 -0.48058573332E+03 -0.16920782630E+03 -0.55495570198E+03  0.75337226304E+03  0.00000000000E+00 0. -1.
        -13    1    3    3    0    0 -0.10147491202E+02 -0.10508883246E+02 -0.41619507810E+02  0.44108861186E+02  0.00000000000E+00 0.  1.
         22    1    1    2    0    0  0.49073322452E+03  0.17971670954E+03  0.31236758156E+04  0.31670913776E+04  0.00000000000E+00 0. -1.
<mgrwt>
<rscale>  0 0.30547664E+04</rscale>
<asrwt>0</asrwt>
<pdfrwt beam="1">  1        2 0.49935946E+00 0.30547664E+04</pdfrwt>
<pdfrwt beam="2">  1       -2 0.11057476E+00 0.30547664E+04</pdfrwt>
<totfact> 0.66839821E-01</totfact>
</mgrwt>
</event>
<event>
 6    1  0.1817112E-005  0.6133714E+03  0.7818608E-02  0.9878047E-01
          3   -1    0    0  501    0  0.00000000000E+00  0.00000000000E+00  0.13707803168E+03  0.13707803168E+03  0.00000000000E+00 0. -1.
         -3   -1    0    0    0  501 -0.00000000000E+00 -0.00000000000E+00 -0.68615013417E+03  0.68615013417E+03  0.00000000000E+00 0.  1.
         23    2    1    2    0    0 -0.23578603448E+03 -0.18452196095E+03 -0.25435669795E+03  0.40310844743E+03  0.90308817218E+02 0.  0.
         13    1    3    3    0    0 -0.19680644015E+02  0.54667293617E+01 -0.22584677738E+01  0.20550268987E+02  0.00000000000E+00 0.  1.
        -13    1    3    3    0    0 -0.21610539047E+03 -0.18998869031E+03 -0.25209823018E+03  0.38255817844E+03  0.00000000000E+00 0. -1.
         22    1    1    2    0    0  0.23578603448E+03  0.18452196095E+03 -0.29471540454E+03  0.42011971842E+03  0.00000000000E+00 0.  1.
<mgrwt>
<rscale>  0 0.61337137E+03</rscale>
<asrwt>0</asrwt>
<pdfrwt beam="1">  1        3 0.21088928E-01 0.61337137E+03</pdfrwt>
<pdfrwt beam="2">  1       -3 0.10556156E+00 0.61337137E+03</pdfrwt>
<totfact> 0.42200324E+01</totfact>
</mgrwt>
</event>
<event>
 6    1  0.1817112E-005  0.2618232E+04  0.7818608E-02  0.8362034E-01
          2   -1    0    0  501    0  0.00000000000E+00  0.00000000000E+00  0.20889341936E+04  0.20889341936E+04  0.00000000000E+00 0. -1.
         -2   -1    0    0    0  501 -0.00000000000E+00 -0.00000000000E+00 -0.82041105533E+03  0.82041105533E+03  0.00000000000E+00 0.  1.
         23    2    1    2    0    0  0.71487862160E+03  0.70790778990E+03 -0.29304290623E+03  0.10517464241E+04  0.90063939126E+02 0.  0.
         11    1    3    3    0    0  0.42313689825E+03  0.44060757011E+03 -0.13469491743E+03  0.62555782009E+03  0.00000000000E+00 0. -1.
        -11    1    3    3    0    0  0.29174172334E+03  0.26730021980E+03 -0.15834798880E+03  0.42618860402E+03  0.00000000000E+00 0.  1.
         22    1    1    2    0    0 -0.71487862160E+03 -0.70790778990E+03  0.15615660445E+04  0.18575988248E+04  0.00000000000E+00 0. -1.
<mgrwt>
<rscale>  0 0.26182320E+04</rscale>
<asrwt>0</asrwt>
<pdfrwt beam="1">  1        2 0.32137449E+00 0.26182320E+04</pdfrwt>
<pdfrwt beam="2">  1       -2 0.12621709E+00 0.26182320E+04</pdfrwt>
<totfact> 0.24632657E+00</totfact>
</mgrwt>
</event>
<event>
 6    1  0.1817112E-005  0.2975481E+04  0.7818608E-02  0.8250767E-01
         -2   -1    0    0    0  501 -0.00000000000E+00  0.00000000000E+00  0.12504138686E+04  0.12504138686E+04  0.00000000000E+00 0.  1.
          2   -1    0    0  501    0  0.00000000000E+00 -0.00000000000E+00 -0.17701117071E+04  0.17701117071E+04  0.00000000000E+00 0. -1.
         23    2    1    2    0    0  0.55047158380E+03  0.13426505478E+04  0.66552086787E+02  0.14554637772E+04  0.90643082036E+02 0.  0.
         11    1    3    3    0    0  0.40107927199E+03  0.10627932867E+04  0.71331989352E+02  0.11381926046E+04  0.00000000000E+00 0.  1.
        -11    1    3    3    0    0  0.14939231181E+03  0.27985726117E+03 -0.47799025652E+01  0.31727117255E+03  0.00000000000E+00 0. -1.
         22    1    1    2    0    0 -0.55047158380E+03 -0.13426505478E+04 -0.58624992537E+03  0.15650617985E+04  0.00000000000E+00 0. -1.
<mgrwt>
<rscale>  0 0.29754813E+04</rscale>
<asrwt>0</asrwt>
<pdfrwt beam="1">  1        2 0.27232488E+00 0.29754813E+04</pdfrwt>
<pdfrwt beam="2">  1       -2 0.19237137E+00 0.29754813E+04</pdfrwt>
<totfact> 0.11492217E+00</totfact>
</mgrwt>
</event>
<event>
 6    1  0.1817112E-005  0.6494001E+03  0.7818608E-02  0.9807905E-01
          2   -1    0    0  501    0  0.00000000000E+00  0.00000000000E+00  0.21613533580E+03  0.21613533580E+03  0.00000000000E+00 0. -1.
         -2   -1    0    0    0  501 -0.00000000000E+00 -0.00000000000E+00 -0.48779683408E+03  0.48779683408E+03  0.00000000000E+00 0.  1.
         23    2    1    2    0    0  0.81577771823E+02  0.12444988531E+03  0.16622524205E+03  0.24145243609E+03  0.92334939172E+02 0.  0.
         13    1    3    3    0    0  0.10541933162E+02 -0.66676536215E+01  0.52365543497E+02  0.53830661387E+02  0.00000000000E+00 0. -1.
        -13    1    3    3    0    0  0.71035838661E+02  0.13111753893E+03  0.11385969855E+03  0.18762177470E+03  0.00000000000E+00 0.  1.
         22    1    1    2    0    0 -0.81577771823E+02 -0.12444988531E+03 -0.43788674033E+03  0.46247973379E+03  0.00000000000E+00 0.  1.
<mgrwt>
<rscale>  0 0.64940013E+03</rscale>
<asrwt>0</asrwt>
<pdfrwt beam="1">  1        2 0.33251590E-01 0.64940013E+03</pdfrwt>
<pdfrwt beam="2">  1       -2 0.75045667E-01 0.64940013E+03</pdfrwt>
<totfact> 0.25532778E+02</totfact>
</mgrwt>
</event>
<event>
 6    1  0.1817112E-005  0.3432833E+04  0.7818608E-02  0.8129895E-01
         -2   -1    0    0    0  501 -0.00000000000E+00  0.00000000000E+00  0.19910481322E+04  0.19910481322E+04  0.00000000000E+00 0.  1.
          2   -1    0    0  501    0  0.00000000000E+00 -0.00000000000E+00 -0.14796659357E+04  0.14796659357E+04  0.00000000000E+00 0. -1.
         23    2    1    2    0    0  0.37627996861E+03  0.39609629093E+03 -0.13879735710E+04  0.14943458790E+04  0.90111518726E+02 0.  0.
         13    1    3    3    0    0  0.19402412966E+03  0.25723663848E+03 -0.74190021311E+03  0.80884607762E+03  0.00000000000E+00 0.  1.
        -13    1    3    3    0    0  0.18225583895E+03  0.13885965245E+03 -0.64607335789E+03  0.68549980138E+03  0.00000000000E+00 0. -1.
         22    1    1    2    0    0 -0.37627996861E+03 -0.39609629093E+03  0.18993557675E+04  0.19763681889E+04  0.00000000000E+00 0.  1.
<mgrwt>
<rscale>  0 0.34328333E+04</rscale>
<asrwt>0</asrwt>
<pdfrwt beam="1">  1        2 0.22764091E+00 0.34328333E+04</pdfrwt>
<pdfrwt beam="2">  1       -2 0.30631510E+00 0.34328333E+04</pdfrwt>
<totfact> 0.31305198E-01</totfact>
</mgrwt>
</event>
<event>
 6    1  0.1817112E-005  0.1926560E+04  0.7818608E-02  0.8641748E-01
          2   -1    0    0  501    0  0.00000000000E+00  0.00000000000E+00  0.15822468098E+04  0.15822468098E+04  0.00000000000E+00 0. -1.
         -2   -1    0    0    0  501 -0.00000000000E+00 -0.00000000000E+00 -0.58644954109E+03  0.58644954109E+03  0.00000000000E+00 0.  1.
         23    2    1    2    0    0  0.62547897955E+03  0.65159906613E+03  0.86893773581E+03  0.12566115753E+04  0.90634240677E+02 0.  0.
         11    1    3    3    0    0  0.46647096645E+03  0.43185145968E+03  0.58411372890E+03  0.86329583230E+03  0.00000000000E+00 0. -1.
        -11    1    3    3    0    0  0.15900801310E+03  0.21974760645E+03  0.28482400691E+03  0.39331574299E+03  0.00000000000E+00 0.  1.
         22    1    1    2    0    0 -0.62547897955E+03 -0.65159906613E+03  0.12685953291E+03  0.91208477563E+03  0.00000000000E+00 0.  1.
<mgrwt>
<rscale>  0 0.19265595E+04</rscale>
<asrwt>0</asrwt>
<pdfrwt beam="1">  1        2 0.24342258E+00 0.19265595E+04</pdfrwt>
<pdfrwt beam="2">  1       -2 0.90223007E-01 0.19265595E+04</pdfrwt>
<totfact> 0.11205628E+01</totfact>
</mgrwt>
</event>
<event>
 6    1  0.1817112E-005  0.2441137E+04  0.7818608E-02  0.8424261E-01
         -2   -1    0    0    0  501 -0.00000000000E+00  0.00000000000E+00  0.70744449228E+03  0.70744449228E+03  0.00000000000E+00 0.  1.
          2   -1    0    0  501    0  0.00000000000E+00 -0.00000000000E+00 -0.21058722958E+04  0.21058722958E+04  0.00000000000E+00 0. -1.
         23    2    1    2    0    0 -0.30491145973E+03  0.11792602450E+04 -0.64854588102E+03  0.13829501842E+04  0.91179650083E+02 0.  0.
         11    1    3    3    0    0 -0.42923974549E+02  0.12418459745E+03 -0.10101254410E+03  0.16573417240E+03  0.00000000000E+00 0. -1.
        -11    1    3    3    0    0 -0.26198748518E+03  0.10550756476E+04 -0.54753333692E+03  0.12172160118E+04  0.00000000000E+00 0.  1.
         22    1    1    2    0    0  0.30491145973E+03 -0.11792602450E+04 -0.74988192250E+03  0.14303666038E+04  0.00000000000E+00 0.  1.
<mgrwt>
<rscale>  0 0.24411372E+04</rscale>
<asrwt>0</asrwt>
<pdfrwt beam="1">  1        2 0.32398035E+00 0.24411372E+04</pdfrwt>
<pdfrwt beam="2">  1       -2 0.10883762E+00 0.24411372E+04</pdfrwt>
<totfact> 0.35229585E+00</totfact>
</mgrwt>
</event>
<event>
 6    1  0.1817112E-005  0.1172586E+04  0.7818608E-02  0.9137196E-01
         -2   -1    0    0    0  501 -0.00000000000E+00  0.00000000000E+00  0.19885742429E+03  0.19885742429E+03  0.00000000000E+00 0.  1.
          2   -1    0    0  501    0  0.00000000000E+00 -0.00000000000E+00 -0.17285728282E+04  0.17285728282E+04  0.00000000000E+00 0. -1.
         23    2    1    2    0    0  0.54586331234E+03 -0.83821640222E+02 -0.10758012137E+04  0.12125659890E+04  0.89303993312E+02 0.  0.
         13    1    3    3    0    0  0.26270655754E+03 -0.19805806238E+02 -0.59842529094E+03  0.65385000892E+03  0.00000000000E+00 0.  1.
        -13    1    3    3    0    0  0.28315675480E+03 -0.64015833984E+02 -0.47737592272E+03  0.55871598007E+03  0.00000000000E+00 0. -1.
         22    1    1    2    0    0 -0.54586331234E+03  0.83821640222E+02 -0.45391419026E+03  0.71486426351E+03  0.00000000000E+00 0.  1.
<mgrwt>
<rscale>  0 0.11725861E+04</rscale>
<asrwt>0</asrwt>
<pdfrwt beam="1">  1        2 0.26593427E+00 0.11725861E+04</pdfrwt>
<pdfrwt beam="2">  1       -2 0.30593451E-01 0.11725861E+04</pdfrwt>
<totfact> 0.92381287E+01</totfact>
</mgrwt>
</event>
<event>
 6    1  0.1817112E-005  0.1585206E+04  0.7818608E-02  0.8829689E-01
         -2   -1    0    0    0  501 -0.00000000000E+00  0.00000000000E+00  0.50677714219E+03  0.50677714219E+03  0.00000000000E+00 0.  1.
          2   -1    0    0  501    0  0.00000000000E+00 -0.00000000000E+00 -0.12396362857E+04  0.12396362857E+04  0.00000000000E+00 0. -1.
         23    2    1    2    0    0  0.47463288195E+03  0.11754630764E+03  0.31592525387E+03  0.58924350984E+03  0.91135288344E+02 0.  0.
         11    1    3    3    0    0  0.22665400155E+03  0.93850727509E+01  0.14514389118E+03  0.26930812307E+03  0.00000000000E+00 0.  1.
        -11    1    3    3    0    0  0.24797888041E+03  0.10816123488E+03  0.17078136269E+03  0.31993538676E+03  0.00000000000E+00 0. -1.
         22    1    1    2    0    0 -0.47463288195E+03 -0.11754630764E+03 -0.10487843974E+04  0.11571699180E+04  0.00000000000E+00 0. -1.
<mgrwt>
<rscale>  0 0.15852058E+04</rscale>
<asrwt>0</asrwt>
<pdfrwt beam="1">  1        2 0.19071327E+00 0.15852058E+04</pdfrwt>
<pdfrwt beam="2">  1       -2 0.77965714E-01 0.15852058E+04</pdfrwt>
<totfact> 0.25225226E+01</totfact>
</mgrwt>
</event>
<event>
 6    1  0.1817112E-005  0.1383187E+04  0.7818608E-02  0.8966079E-01
          1   -1    0    0  501    0  0.00000000000E+00  0.00000000000E+00  0.27060576490E+04  0.27060576490E+04  0.00000000000E+00 0. -1.
         -1   -1    0    0    0  501 -0.00000000000E+00 -0.00000000000E+00 -0.17675228794E+03  0.17675228794E+03  0.00000000000E+00 0.  1.
         23    2    1    2    0    0 -0.67300914132E+02 -0.28777562685E+03  0.25661732400E+04  0.25849786677E+04  0.97598105143E+02 0.  0.
         13    1    3    3    0    0 -0.78859254740E+02 -0.12451142400E+03  0.12601761367E+04  0.12687654520E+04  0.00000000000E+00 0. -1.
        -13    1    3    3    0    0  0.11558340609E+02 -0.16326420285E+03  0.13059971033E+04  0.13162132156E+04  0.00000000000E+00 0.  1.
         22    1    1    2    0    0  0.67300914132E+02  0.28777562685E+03 -0.36867878945E+02  0.29783126926E+03  0.00000000000E+00 0.  1.
<mgrwt>
<rscale>  0 0.13831875E+04</rscale>
<asrwt>0</asrwt>
<pdfrwt beam="1">  1        1 0.41631653E+00 0.13831875E+04</pdfrwt>
<pdfrwt beam="2">  1       -1 0.27192662E-01 0.13831875E+04</pdfrwt>
<totfact> 0.11555292E+01</totfact>
</mgrwt>
</event>
<event>
 6    1  0.1817112E-005  0.1783779E+04  0.7818608E-02  0.8714974E-01
         -2   -1    0    0    0  501 -0.00000000000E+00  0.00000000000E+00  0.94473097871E+03  0.94473097871E+03  0.00000000000E+00 0.  1.
          2   -1    0    0  501    0  0.00000000000E+00 -0.00000000000E+00 -0.84200339009E+03  0.84200339009E+03  0.00000000000E+00 0. -1.
         23    2    1    2    0    0  0.11562293209E+03  0.76105233044E+03  0.49780957599E+03  0.92148348678E+03  0.93531440527E+02 0.  0.
         11    1    3    3    0    0  0.72328757705E+02  0.54805553971E+03  0.30742284993E+03  0.63253864108E+03  0.00000000000E+00 0.  1.
        -11    1    3    3    0    0  0.43294174382E+02  0.21299679072E+03  0.19038672606E+03  0.28894484570E+03  0.00000000000E+00 0. -1.
         22    1    1    2    0    0 -0.11562293209E+03 -0.76105233044E+03 -0.39508198737E+03  0.86525088202E+03  0.00000000000E+00 0. -1.
<mgrwt>
<rscale>  0 0.17837788E+04</rscale>
<asrwt>0</asrwt>
<pdfrwt beam="1">  1        2 0.12953898E+00 0.17837788E+04</pdfrwt>
<pdfrwt beam="2">  1       -2 0.14534323E+00 0.17837788E+04</pdfrwt>
<totfact> 0.98941866E+00</totfact>
</mgrwt>
</event>
<event>
 6    1  0.1817112E-005  0.3936291E+04  0.7818608E-02  0.8017523E-01
          2   -1    0    0  501    0  0.00000000000E+00  0.00000000000E+00  0.17997651296E+04  0.17997651296E+04  0.00000000000E+00 0. -1.
         -2   -1    0    0    0  501 -0.00000000000E+00 -0.00000000000E+00 -0.21522786645E+04  0.21522786645E+04  0.00000000000E+00 0.  1.
         23    2    1    2    0    0  0.12368696862E+04  0.13026804532E+04  0.62844919982E+03  0.19053120406E+04  0.91883575457E+02 0.  0.
         11    1    3    3    0    0  0.60132865393E+03  0.66542913849E+03  0.35634079463E+03  0.96507556715E+03  0.00000000000E+00 0.  1.
        -11    1    3    3    0    0  0.63554103227E+03  0.63725131471E+03  0.27210840519E+03  0.94023647343E+03  0.00000000000E+00 0. -1.
         22    1    1    2    0    0 -0.12368696862E+04 -0.13026804532E+04 -0.98096273477E+03  0.20467317535E+04  0.00000000000E+00 0.  1.
<mgrwt>
<rscale>  0 0.39362907E+04</rscale>
<asrwt>0</asrwt>
<pdfrwt beam="1">  1        2 0.27688694E+00 0.39362907E+04</pdfrwt>
<pdfrwt beam="2">  1       -2 0.33111979E+00 0.39362907E+04</pdfrwt>
<totfact> 0.13979418E-01</totfact>
</mgrwt>
</event>
<event>
 6    1  0.1817112E-005  0.2152131E+04  0.7818608E-02  0.8538620E-01
         -2   -1    0    0    0  501 -0.00000000000E+00  0.00000000000E+00  0.12069453792E+04  0.12069453792E+04  0.00000000000E+00 0.  1.
          2   -1    0    0  501    0  0.00000000000E+00 -0.00000000000E+00 -0.95937846703E+03  0.95937846703E+03  0.00000000000E+00 0. -1.
         23    2    1    2    0    0 -0.51318006398E+03  0.36254570131E+03  0.10009951759E+04  0.11852798552E+04  0.90021272219E+02 0.  0.
         13    1    3    3    0    0 -0.29796640718E+03  0.24188785397E+03  0.67449697117E+03  0.77604115730E+03  0.00000000000E+00 0.  1.
        -13    1    3    3    0    0 -0.21521365680E+03  0.12065784734E+03  0.32649820473E+03  0.40923869794E+03  0.00000000000E+00 0. -1.
         22    1    1    2    0    0  0.51318006398E+03 -0.36254570131E+03 -0.75342826375E+03  0.98104399097E+03  0.00000000000E+00 0. -1.
<mgrwt>
<rscale>  0 0.21521314E+04</rscale>
<asrwt>0</asrwt>
<pdfrwt beam="1">  1        2 0.14759669E+00 0.21521314E+04</pdfrwt>
<pdfrwt beam="2">  1       -2 0.18568390E+00 0.21521314E+04</pdfrwt>
<totfact> 0.40704817E+00</totfact>
</mgrwt>
</event>
<event>
 6    1  0.1817112E-005  0.1149209E+04  0.7818608E-02  0.9158514E-01
          2   -1    0    0  501    0  0.00000000000E+00  0.00000000000E+00  0.46888210202E+03  0.46888210202E+03  0.00000000000E+00 0. -1.
         -2   -1    0    0    0  501 -0.00000000000E+00 -0.00000000000E+00 -0.70416457949E+03  0.70416457949E+03  0.00000000000E+00 0.  1.
         23    2    1    2    0    0  0.37367495787E+03  0.71306367122E+02 -0.55304328808E+03  0.67737591891E+03  0.90904812346E+02 0.  0.
         11    1    3    3    0    0  0.34202095009E+02  0.36247310429E+02 -0.68605406029E+02  0.84795946559E+02  0.00000000000E+00 0.  1.
        -11    1    3    3    0    0  0.33947286286E+03  0.35059056693E+02 -0.48443788205E+03  0.59257997236E+03  0.00000000000E+00 0. -1.
         22    1    1    2    0    0 -0.37367495787E+03 -0.71306367122E+02  0.31776081062E+03  0.49567076260E+03  0.00000000000E+00 0. -1.
<mgrwt>
<rscale>  0 0.11492087E+04</rscale>
<asrwt>0</asrwt>
<pdfrwt beam="1">  1        2 0.72135708E-01 0.11492087E+04</pdfrwt>
<pdfrwt beam="2">  1       -2 0.10833301E+00 0.11492087E+04</pdfrwt>
<totfact> 0.44772140E+01</totfact>
</mgrwt>
</event>
<event>
 6    1  0.1817112E-005  0.8893264E+03  0.7818608E-02  0.9439023E-01
          2   -1    0    0  501    0  0.00000000000E+00  0.00000000000E+00  0.16478436231E+04  0.16478436231E+04  0.00000000000E+00 0. -1.
         -2   -1    0    0    0  501 -0.00000000000E+00 -0.00000000000E+00 -0.11999036201E+03  0.11999036201E+03  0.00000000000E+00 0.  1.
         23    2    1    2    0    0 -0.37512617077E+03  0.10515638502E+03  0.11756743628E+04  0.12426602180E+04  0.10107769577E+03 0.  0.
         13    1    3    3    0    0 -0.24284106576E+03  0.26981558354E+02  0.80898585063E+03  0.84507863198E+03  0.00000000000E+00 0. -1.
        -13    1    3    3    0    0 -0.13228510501E+03  0.78174826668E+02  0.36668851221E+03  0.39758158599E+03  0.00000000000E+00 0.  1.
         22    1    1    2    0    0  0.37512617077E+03 -0.10515638502E+03  0.35217889824E+03  0.52517376712E+03  0.00000000000E+00 0.  1.
<mgrwt>
<rscale>  0 0.88932638E+03</rscale>
<asrwt>0</asrwt>
<pdfrwt beam="1">  1        2 0.25351439E+00 0.88932638E+03</pdfrwt>
<pdfrwt beam="2">  1       -2 0.18460057E-01 0.88932638E+03</pdfrwt>
<totfact> 0.25908027E+02</totfact>
</mgrwt>
</event>
<event>
 6    1  0.1817112E-005  0.5012748E+04  0.7818608E-02  0.7826544E-01
          2   -1    0    0  501    0  0.00000000000E+00  0.00000000000E+00  0.24059947527E+04  0.24059947527E+04  0.00000000000E+00 0. -1.
         -2   -1    0    0    0  501 -0.00000000000E+00 -0.00000000000E+00 -0.26109407375E+04  0.26109407375E+04  0.00000000000E+00 0.  1.
         23    2    1    2    0    0 -0.15179122618E+04 -0.19917044114E+04 -0.20550830643E+02  0.25059704029E+04  0.92310488636E+02 0.  0.
         13    1    3    3    0    0 -0.41668109338E+03 -0.51023085393E+03  0.28682505814E+02  0.65937951441E+03  0.00000000000E+00 0.  1.
        -13    1    3    3    0    0 -0.11012311684E+04 -0.14814735575E+04 -0.49233336456E+02  0.18465908884E+04  0.00000000000E+00 0. -1.
         22    1    1    2    0    0  0.15179122618E+04  0.19917044114E+04 -0.18439515413E+03  0.25109650873E+04  0.00000000000E+00 0. -1.
<mgrwt>
<rscale>  0 0.50127476E+04</rscale>
<asrwt>0</asrwt>
<pdfrwt beam="1">  1        2 0.37015304E+00 0.50127476E+04</pdfrwt>
<pdfrwt beam="2">  1       -2 0.40168319E+00 0.50127476E+04</pdfrwt>
<totfact> 0.20773841E-02</totfact>
</mgrwt>
</event>
<event>
 6    1  0.1817112E-005  0.4305493E+04  0.7818608E-02  0.7945603E-01
          2   -1    0    0  501    0  0.00000000000E+00  0.00000000000E+00  0.18083644420E+04  0.18083644420E+04  0.00000000000E+00 0. -1.
         -2   -1    0    0    0  501 -0.00000000000E+00 -0.00000000000E+00 -0.25627124472E+04  0.25627124472E+04  0.00000000000E+00 0.  1.
         23    2    1    2    0    0  0.70491422498E+03 -0.71145555164E+03  0.15561303975E+04  0.18528665095E+04  0.92192307391E+02 0.  0.
         13    1    3    3    0    0  0.30758437585E+03 -0.31277754198E+03  0.76661435835E+03  0.88325280270E+03  0.00000000000E+00 0. -1.
        -13    1    3    3    0    0  0.39732984913E+03 -0.39867800966E+03  0.78951603915E+03  0.96961370683E+03  0.00000000000E+00 0.  1.
         22    1    1    2    0    0 -0.70491422498E+03  0.71145555164E+03 -0.23104784027E+04  0.25182103796E+04  0.00000000000E+00 0.  1.
<mgrwt>
<rscale>  0 0.43054933E+04</rscale>
<asrwt>0</asrwt>
<pdfrwt beam="1">  1        2 0.27820991E+00 0.43054933E+04</pdfrwt>
<pdfrwt beam="2">  1       -2 0.39426345E+00 0.43054933E+04</pdfrwt>
<totfact> 0.53158174E-02</totfact>
</mgrwt>
</event>
<event>
 6    1  0.1817112E-005  0.2675954E+04  0.7818608E-02  0.8342849E-01
         -2   -1    0    0    0  501 -0.00000000000E+00  0.00000000000E+00  0.12777108913E+04  0.12777108913E+04  0.00000000000E+00 0.  1.
          2   -1    0    0  501    0  0.00000000000E+00 -0.00000000000E+00 -0.14010858005E+04  0.14010858005E+04  0.00000000000E+00 0. -1.
         23    2    1    2    0    0 -0.50985962750E+03 -0.10153879591E+04 -0.76588321557E+03  0.13735049731E+04  0.94706197388E+02 0.  0.
         11    1    3    3    0    0 -0.28390588621E+03 -0.66671844160E+03 -0.48312702241E+03  0.87093498745E+03  0.00000000000E+00 0.  1.
        -11    1    3    3    0    0 -0.22595374129E+03 -0.34866951754E+03 -0.28275619316E+03  0.50256998561E+03  0.00000000000E+00 0. -1.
         22    1    1    2    0    0  0.50985962750E+03  0.10153879591E+04  0.64250830641E+03  0.13052917188E+04  0.00000000000E+00 0.  1.
<mgrwt>
<rscale>  0 0.26759541E+04</rscale>
<asrwt>0</asrwt>
<pdfrwt beam="1">  1        2 0.21555166E+00 0.26759541E+04</pdfrwt>
<pdfrwt beam="2">  1       -2 0.19657091E+00 0.26759541E+04</pdfrwt>
<totfact> 0.17798627E+00</totfact>
</mgrwt>
</event>
<event>
 6    1  0.1817112E-005  0.1475754E+04  0.7818608E-02  0.8900738E-01
         -4   -1    0    0    0  501 -0.00000000000E+00  0.00000000000E+00  0.85697613787E+03  0.85697613787E+03  0.00000000000E+00 0.  1.
          4   -1    0    0  501    0  0.00000000000E+00 -0.00000000000E+00 -0.63532991756E+03  0.63532991756E+03  0.00000000000E+00 0. -1.
         23    2    1    2    0    0  0.36032837266E+03  0.55358259116E+03  0.43721738187E+03  0.79749590360E+03  0.92468675126E+02 0.  0.
         11    1    3    3    0    0  0.11320060059E+03  0.11905762818E+03  0.14059146198E+03  0.21622917005E+03  0.00000000000E+00 0. -1.
        -11    1    3    3    0    0  0.24712777208E+03  0.43452496298E+03  0.29662591989E+03  0.58126673355E+03  0.00000000000E+00 0.  1.
         22    1    1    2    0    0 -0.36032837266E+03 -0.55358259116E+03 -0.21557116156E+03  0.69481015182E+03  0.00000000000E+00 0. -1.
<mgrwt>
<rscale>  0 0.14757542E+04</rscale>
<asrwt>0</asrwt>
<pdfrwt beam="1">  1        4 0.97743064E-01 0.14757542E+04</pdfrwt>
<pdfrwt beam="2">  1       -4 0.13184248E+00 0.14757542E+04</pdfrwt>
<totfact> 0.70397010E-01</totfact>
</mgrwt>
</event>
<event>
 6    1  0.1817112E-005  0.2918792E+04  0.7818608E-02  0.8267308E-01
          2   -1    0    0  501    0  0.00000000000E+00  0.00000000000E+00  0.32287000865E+04  0.32287000865E+04  0.00000000000E+00 0. -1.
         -2   -1    0    0    0  501 -0.00000000000E+00 -0.00000000000E+00 -0.65965748372E+03  0.65965748372E+03  0.00000000000E+00 0.  1.
         23    2    1    2    0    0 -0.92078042104E+03 -0.50712621647E+03  0.26316690446E+04  0.28352974322E+04  0.90642072142E+02 0.  0.
         13    1    3    3    0    0 -0.57604312940E+03 -0.27963541048E+03  0.16781951172E+04  0.17962072545E+04  0.00000000000E+00 0. -1.
        -13    1    3    3    0    0 -0.34473729164E+03 -0.22749080599E+03  0.95347392746E+03  0.10390901777E+04  0.00000000000E+00 0.  1.
         22    1    1    2    0    0  0.92078042104E+03  0.50712621647E+03 -0.62626441801E+02  0.10530601381E+04  0.00000000000E+00 0.  1.
<mgrwt>
<rscale>  0 0.29187917E+04</rscale>
<asrwt>0</asrwt>
<pdfrwt beam="1">  1        2 0.49672308E+00 0.29187917E+04</pdfrwt>
<pdfrwt beam="2">  1       -2 0.10148577E+00 0.29187917E+04</pdfrwt>
<totfact> 0.85291908E-01</totfact>
</mgrwt>
</event>
<event>
 6    1  0.1817112E-005  0.3718646E+04  0.7818608E-02  0.8063842E-01
         -2   -1    0    0    0  501 -0.00000000000E+00  0.00000000000E+00  0.13764937548E+04  0.13764937548E+04  0.00000000000E+00 0.  1.
          2   -1    0    0  501    0  0.00000000000E+00 -0.00000000000E+00 -0.25115130503E+04  0.25115130503E+04  0.00000000000E+00 0. -1.
         23    2    1    2    0    0 -0.16392000178E+04 -0.74946226999E+03 -0.10405127954E+04  0.20831240192E+04  0.89824325956E+02 0.  0.
         13    1    3    3    0    0 -0.10598705759E+04 -0.46553147852E+03 -0.62232672835E+03  0.13142814584E+04  0.00000000000E+00 0.  1.
        -13    1    3    3    0    0 -0.57932944192E+03 -0.28393079146E+03 -0.41818606708E+03  0.76884256081E+03  0.00000000000E+00 0. -1.
         22    1    1    2    0    0  0.16392000178E+04  0.74946226999E+03 -0.94506500040E+02  0.18048827859E+04  0.00000000000E+00 0.  1.
<mgrwt>
<rscale>  0 0.37186460E+04</rscale>
<asrwt>0</asrwt>
<pdfrwt beam="1">  1        2 0.38638662E+00 0.37186460E+04</pdfrwt>
<pdfrwt beam="2">  1       -2 0.21176827E+00 0.37186460E+04</pdfrwt>
<totfact> 0.30862388E-01</totfact>
</mgrwt>
</event>
<event>
 6    1  0.1817112E-005  0.2049104E+04  0.7818608E-02  0.8584001E-01
         -2   -1    0    0    0  501 -0.00000000000E+00  0.00000000000E+00  0.56713126329E+03  0.56713126329E+03  0.00000000000E+00 0. -1.
          2   -1    0    0  501    0  0.00000000000E+00 -0.00000000000E+00 -0.18509068729E+04  0.18509068729E+04  0.00000000000E+00 0.  1.
         23    2    1    2    0    0  0.33463858772E+03  0.94743911914E+03 -0.86681486167E+03  0.13301594048E+04  0.91280715346E+02 0.  0.
         11    1    3    3    0    0  0.15496631470E+03  0.34648963521E+03 -0.36920332423E+03  0.52950988718E+03  0.00000000000E+00 0. -1.
        -11    1    3    3    0    0  0.17967227302E+03  0.60094948393E+03 -0.49761153745E+03  0.80064951766E+03  0.00000000000E+00 0.  1.
         22    1    1    2    0    0 -0.33463858772E+03 -0.94743911914E+03 -0.41696074798E+03  0.10878787314E+04  0.00000000000E+00 0.  1.
<mgrwt>
<rscale>  0 0.20491043E+04</rscale>
<asrwt>0</asrwt>
<pdfrwt beam="1">  1        2 0.28475491E+00 0.20491043E+04</pdfrwt>
<pdfrwt beam="2">  1       -2 0.87250963E-01 0.20491043E+04</pdfrwt>
<totfact> 0.84914872E+00</totfact>
</mgrwt>
</event>
<event>
 6    1  0.1817112E-005  0.9284683E+03  0.7818608E-02  0.9390678E-01
          1   -1    0    0  501    0  0.00000000000E+00  0.00000000000E+00  0.47295734308E+03  0.47295734308E+03  0.00000000000E+00 0. -1.
         -1   -1    0    0    0  501 -0.00000000000E+00 -0.00000000000E+00 -0.45567183561E+03  0.45567183561E+03  0.00000000000E+00 0.  1.
         23    2    1    2    0    0  0.42687775744E+03  0.73636887207E+02 -0.14541437299E+03  0.46590003323E+03  0.90942235169E+02 0.  0.
         13    1    3    3    0    0  0.28167235390E+03  0.80364713693E+02 -0.65984251367E+02  0.30025276616E+03  0.00000000000E+00 0. -1.
        -13    1    3    3    0    0  0.14520540354E+03 -0.67278264858E+01 -0.79430121628E+02  0.16564726707E+03  0.00000000000E+00 0.  1.
         22    1    1    2    0    0 -0.42687775744E+03 -0.73636887207E+02  0.16269988046E+03  0.46272914546E+03  0.00000000000E+00 0. -1.
<mgrwt>
<rscale>  0 0.92846829E+03</rscale>
<asrwt>0</asrwt>
<pdfrwt beam="1">  1        1 0.72762668E-01 0.92846829E+03</pdfrwt>
<pdfrwt beam="2">  1       -1 0.70103359E-01 0.92846829E+03</pdfrwt>
<totfact> 0.99107541E+01</totfact>
</mgrwt>
</event>
<event>
 6    1  0.1817112E-005  0.3112298E+04  0.7818608E-02  0.8212371E-01
         -2   -1    0    0    0  501 -0.00000000000E+00  0.00000000000E+00  0.27042245585E+04  0.27042245585E+04  0.00000000000E+00 0.  1.
          2   -1    0    0  501    0  0.00000000000E+00 -0.00000000000E+00 -0.89548781579E+03  0.89548781579E+03  0.00000000000E+00 0. -1.
         23    2    1    2    0    0 -0.10824895395E+04 -0.10556833482E+04  0.13241502747E+04  0.20119230370E+04  0.90605860930E+02 0.  0.
         13    1    3    3    0    0 -0.82571155907E+03 -0.76962999231E+03  0.10270539708E+04  0.15260962495E+04  0.00000000000E+00 0. -1.
        -13    1    3    3    0    0 -0.25677798039E+03 -0.28605335587E+03  0.29709630388E+03  0.48582678744E+03  0.00000000000E+00 0.  1.
         22    1    1    2    0    0  0.10824895395E+04  0.10556833482E+04  0.48458646799E+03  0.15877893373E+04  0.00000000000E+00 0.  1.
<mgrwt>
<rscale>  0 0.31122983E+04</rscale>
<asrwt>0</asrwt>
<pdfrwt beam="1">  1        2 0.13776736E+00 0.31122983E+04</pdfrwt>
<pdfrwt beam="2">  1       -2 0.41603454E+00 0.31122983E+04</pdfrwt>
<totfact> 0.14570708E-01</totfact>
</mgrwt>
</event>
<event>
 6    1  0.1817112E-005  0.4231472E+03  0.7818608E-02  0.1036047E+00
         -2   -1    0    0    0  501 -0.00000000000E+00  0.00000000000E+00  0.23283069352E+03  0.23283069352E+03  0.00000000000E+00 0.  1.
          2   -1    0    0  501    0  0.00000000000E+00 -0.00000000000E+00 -0.19225724032E+03  0.19225724032E+03  0.00000000000E+00 0. -1.
         23    2    1    2    0    0 -0.50276707170E+02  0.12185051759E+03 -0.13241199341E+03  0.20760400189E+03  0.90505191474E+02 0.  0.
         13    1    3    3    0    0 -0.57158378190E+02  0.47964010139E+02 -0.28408925974E+02  0.79841677969E+02  0.00000000000E+00 0. -1.
        -13    1    3    3    0    0  0.68816710198E+01  0.73886507448E+02 -0.10400306743E+03  0.12776232392E+03  0.00000000000E+00 0.  1.
         22    1    1    2    0    0  0.50276707170E+02 -0.12185051759E+03  0.17298544660E+03  0.21748393195E+03  0.00000000000E+00 0.  1.
<mgrwt>
<rscale>  0 0.42314719E+03</rscale>
<asrwt>0</asrwt>
<pdfrwt beam="1">  1        2 0.29578037E-01 0.42314719E+03</pdfrwt>
<pdfrwt beam="2">  1       -2 0.35820107E-01 0.42314719E+03</pdfrwt>
<totfact> 0.13197650E+03</totfact>
</mgrwt>
</event>
<event>
 6    1  0.1817112E-005  0.1744645E+04  0.7818608E-02  0.8736303E-01
         -2   -1    0    0    0  501 -0.00000000000E+00  0.00000000000E+00  0.63757500883E+03  0.63757500883E+03  0.00000000000E+00 0.  1.
          2   -1    0    0  501    0  0.00000000000E+00 -0.00000000000E+00 -0.11935016426E+04  0.11935016426E+04  0.00000000000E+00 0. -1.
         23    2    1    2    0    0  0.76288517376E+03 -0.37357091436E+03 -0.47548412457E+03  0.97783576304E+03  0.92350475743E+02 0.  0.
         11    1    3    3    0    0  0.19668372831E+03 -0.78765664756E+02 -0.77589533524E+02  0.22562946315E+03  0.00000000000E+00 0.  1.
        -11    1    3    3    0    0  0.56620144544E+03 -0.29480524961E+03 -0.39789459104E+03  0.75220629989E+03  0.00000000000E+00 0. -1.
         22    1    1    2    0    0 -0.76288517376E+03  0.37357091436E+03 -0.80442509237E+02  0.85324088843E+03  0.00000000000E+00 0.  1.
<mgrwt>
<rscale>  0 0.17446453E+04</rscale>
<asrwt>0</asrwt>
<pdfrwt beam="1">  1        2 0.18361563E+00 0.17446453E+04</pdfrwt>
<pdfrwt beam="2">  1       -2 0.98088465E-01 0.17446453E+04</pdfrwt>
<totfact> 0.15670061E+01</totfact>
</mgrwt>
</event>
<event>
 6    1  0.1817112E-005  0.2915486E+04  0.7818608E-02  0.8268285E-01
         -1   -1    0    0    0  501 -0.00000000000E+00  0.00000000000E+00  0.12431549493E+04  0.12431549493E+04  0.00000000000E+00 0.  1.
          1   -1    0    0  501    0  0.00000000000E+00 -0.00000000000E+00 -0.17093726038E+04  0.17093726038E+04  0.00000000000E+00 0. -1.
         23    2    1    2    0    0 -0.87751345455E+03  0.72433251865E+03 -0.11539365802E+04  0.16229995236E+04  0.88715060885E+02 0.  0.
         13    1    3    3    0    0 -0.53374914555E+03  0.40193624667E+03 -0.63089809307E+03  0.91895228418E+03  0.00000000000E+00 0.  1.
        -13    1    3    3    0    0 -0.34376430900E+03  0.32239627197E+03 -0.52303848715E+03  0.70404723945E+03  0.00000000000E+00 0. -1.
         22    1    1    2    0    0  0.87751345455E+03 -0.72433251865E+03  0.68771892571E+03  0.13295280295E+04  0.00000000000E+00 0.  1.
<mgrwt>
<rscale>  0 0.29154862E+04</rscale>
<asrwt>0</asrwt>
<pdfrwt beam="1">  1        1 0.26298040E+00 0.29154862E+04</pdfrwt>
<pdfrwt beam="2">  1       -1 0.19125461E+00 0.29154862E+04</pdfrwt>
<totfact> 0.69711305E-01</totfact>
</mgrwt>
</event>
<event>
 6    1  0.1817112E-005  0.2486431E+04  0.7818608E-02  0.8407836E-01
          2   -1    0    0  501    0  0.00000000000E+00  0.00000000000E+00  0.32295352240E+04  0.32295352240E+04  0.00000000000E+00 0. -1.
         -2   -1    0    0    0  501 -0.00000000000E+00 -0.00000000000E+00 -0.47857804870E+03  0.47857804870E+03  0.00000000000E+00 0.  1.
         23    2    1    2    0    0  0.78058352989E+03  0.10477609239E+03  0.28086779042E+04  0.29184169012E+04  0.90537079999E+02 0.  0.
         13    1    3    3    0    0  0.49355749460E+03  0.10245915623E+03  0.16973711277E+04  0.17706398912E+04  0.00000000000E+00 0. -1.
        -13    1    3    3    0    0  0.28702603529E+03  0.23169361658E+01  0.11113067765E+04  0.11477770100E+04  0.00000000000E+00 0.  1.
         22    1    1    2    0    0 -0.78058352989E+03 -0.10477609239E+03 -0.57720728884E+02  0.78969637153E+03  0.00000000000E+00 0.  1.
<mgrwt>
<rscale>  0 0.24864309E+04</rscale>
<asrwt>0</asrwt>
<pdfrwt beam="1">  1        2 0.49685156E+00 0.24864309E+04</pdfrwt>
<pdfrwt beam="2">  1       -2 0.73627394E-01 0.24864309E+04</pdfrwt>
<totfact> 0.18433010E+00</totfact>
</mgrwt>
</event>
<event>
 6    1  0.1817112E-005  0.2585999E+04  0.7818608E-02  0.8372973E-01
         -2   -1    0    0    0  501 -0.00000000000E+00  0.00000000000E+00  0.62412868237E+03  0.62412868237E+03  0.00000000000E+00 0.  1.
          2   -1    0    0  501    0  0.00000000000E+00 -0.00000000000E+00 -0.26786913077E+04  0.26786913077E+04  0.00000000000E+00 0. -1.
         23    2    1    2    0    0 -0.20685639385E+03  0.75919781821E+03  0.27882788782E+03  0.84032487704E+03  0.96072957096E+02 0.  0.
         11    1    3    3    0    0 -0.18047445052E+03  0.60324552774E+03  0.18438137180E+03  0.65610417183E+03  0.00000000000E+00 0.  1.
        -11    1    3    3    0    0 -0.26381943329E+02  0.15595229048E+03  0.94446516023E+02  0.18422070521E+03  0.00000000000E+00 0. -1.
         22    1    1    2    0    0  0.20685639385E+03 -0.75919781821E+03 -0.23333905132E+04  0.24624951130E+04  0.00000000000E+00 0. -1.
<mgrwt>
<rscale>  0 0.25859993E+04</rscale>
<asrwt>0</asrwt>
<pdfrwt beam="1">  1        2 0.41210634E+00 0.25859993E+04</pdfrwt>
<pdfrwt beam="2">  1       -2 0.96019801E-01 0.25859993E+04</pdfrwt>
<totfact> 0.22005303E+00</totfact>
</mgrwt>
</event>
<event>
 6    1  0.1817112E-005  0.1671642E+04  0.7818608E-02  0.8777705E-01
          2   -1    0    0  501    0  0.00000000000E+00  0.00000000000E+00  0.17063202843E+04  0.17063202843E+04  0.00000000000E+00 0. -1.
         -2   -1    0    0    0  501 -0.00000000000E+00 -0.00000000000E+00 -0.40941698703E+03  0.40941698703E+03  0.00000000000E+00 0.  1.
         23    2    1    2    0    0 -0.29645973608E+03  0.45227019352E+03 -0.15178827624E+03  0.56940484322E+03  0.93517333235E+02 0.  0.
         13    1    3    3    0    0 -0.25349435091E+03  0.33207125621E+03 -0.88968821818E+02  0.42713716345E+03  0.00000000000E+00 0. -1.
        -13    1    3    3    0    0 -0.42965385169E+02  0.12019893730E+03 -0.62819454425E+02  0.14226767977E+03  0.00000000000E+00 0.  1.
         22    1    1    2    0    0  0.29645973608E+03 -0.45227019352E+03  0.14486915735E+04  0.15463324281E+04  0.00000000000E+00 0. -1.
<mgrwt>
<rscale>  0 0.16716417E+04</rscale>
<asrwt>0</asrwt>
<pdfrwt beam="1">  1        2 0.26251081E+00 0.16716417E+04</pdfrwt>
<pdfrwt beam="2">  1       -2 0.62987230E-01 0.16716417E+04</pdfrwt>
<totfact> 0.21664514E+01</totfact>
</mgrwt>
</event>
<event>
 6    1  0.1817112E-005  0.2680727E+04  0.7818608E-02  0.8341285E-01
          2   -1    0    0  501    0  0.00000000000E+00  0.00000000000E+00  0.28462502196E+04  0.28462502196E+04  0.00000000000E+00 0.  1.
         -2   -1    0    0    0  501 -0.00000000000E+00 -0.00000000000E+00 -0.63120754493E+03  0.63120754493E+03  0.00000000000E+00 0. -1.
         23    2    1    2    0    0 -0.11768692190E+04  0.32401833182E+03  0.18220890037E+04  0.21951077244E+04  0.92089881863E+02 0.  0.
         11    1    3    3    0    0 -0.67702527397E+03  0.23127022264E+03  0.10405396730E+04  0.12627636155E+04  0.00000000000E+00 0. -1.
        -11    1    3    3    0    0 -0.49984394501E+03  0.92748109187E+02  0.78154933071E+03  0.93234410893E+03  0.00000000000E+00 0.  1.
         22    1    1    2    0    0  0.11768692190E+04 -0.32401833182E+03  0.39295367099E+03  0.12823500402E+04  0.00000000000E+00 0. -1.
<mgrwt>
<rscale>  0 0.26807272E+04</rscale>
<asrwt>0</asrwt>
<pdfrwt beam="1">  1        2 0.43788464E+00 0.26807272E+04</pdfrwt>
<pdfrwt beam="2">  1       -2 0.97108854E-01 0.26807272E+04</pdfrwt>
<totfact> 0.16854181E+00</totfact>
</mgrwt>
</event>
<event>
 6    1  0.1817112E-005  0.2611356E+04  0.7818608E-02  0.8364354E-01
          2   -1    0    0  501    0  0.00000000000E+00  0.00000000000E+00  0.19527391450E+04  0.19527391450E+04  0.00000000000E+00 0. -1.
         -2   -1    0    0    0  501 -0.00000000000E+00 -0.00000000000E+00 -0.87302742080E+03  0.87302742080E+03  0.00000000000E+00 0.  1.
         23    2    1    2    0    0  0.44871372239E+03  0.12210262237E+04  0.43617430045E+03  0.13744259926E+04  0.80930496507E+02 0.  0.
         13    1    3    3    0    0  0.94496747554E+02  0.19627866069E+03  0.50356703691E+02  0.22358610321E+03  0.00000000000E+00 0.  1.
        -13    1    3    3    0    0  0.35421697484E+03  0.10247475630E+04  0.38581759676E+03  0.11508398894E+04  0.00000000000E+00 0. -1.
         22    1    1    2    0    0 -0.44871372239E+03 -0.12210262237E+04  0.64353742377E+03  0.14513405732E+04  0.00000000000E+00 0.  1.
<mgrwt>
<rscale>  0 0.26113558E+04</rscale>
<asrwt>0</asrwt>
<pdfrwt beam="1">  1        2 0.30042141E+00 0.26113558E+04</pdfrwt>
<pdfrwt beam="2">  1       -2 0.13431191E+00 0.26113558E+04</pdfrwt>
<totfact> 0.25074069E+00</totfact>
</mgrwt>
</event>
<event>
 6    1  0.1817112E-005  0.2975016E+04  0.7818608E-02  0.8250901E-01
          2   -1    0    0  501    0  0.00000000000E+00  0.00000000000E+00  0.18341779126E+04  0.18341779126E+04  0.00000000000E+00 0. -1.
         -2   -1    0    0    0  501 -0.00000000000E+00 -0.00000000000E+00 -0.12063609123E+04  0.12063609123E+04  0.00000000000E+00 0.  1.
         23    2    1    2    0    0 -0.33292267940E+03 -0.11576086156E+04 -0.57534832507E+03  0.13380400680E+04  0.91816725366E+02 0.  0.
         11    1    3    3    0    0 -0.13281892334E+03 -0.45705953628E+03 -0.27739849550E+03  0.55090308713E+03  0.00000000000E+00 0. -1.
        -11    1    3    3    0    0 -0.20010375605E+03 -0.70054907930E+03 -0.29794982957E+03  0.78713698086E+03  0.00000000000E+00 0.  1.
         22    1    1    2    0    0  0.33292267940E+03  0.11576086156E+04  0.12031653253E+04  0.17024987569E+04  0.00000000000E+00 0. -1.
<mgrwt>
<rscale>  0 0.29750163E+04</rscale>
<asrwt>0</asrwt>
<pdfrwt beam="1">  1        2 0.28218122E+00 0.29750163E+04</pdfrwt>
<pdfrwt beam="2">  1       -2 0.18559399E+00 0.29750163E+04</pdfrwt>
<totfact> 0.11762752E+00</totfact>
</mgrwt>
</event>
<event>
 6    1  0.1817112E-005  0.2193976E+04  0.7818608E-02  0.8520940E-01
          2   -1    0    0  501    0  0.00000000000E+00  0.00000000000E+00  0.14761390332E+04  0.14761390332E+04  0.00000000000E+00 0. -1.
         -2   -1    0    0    0  501 -0.00000000000E+00 -0.00000000000E+00 -0.81522292551E+03  0.81522292551E+03  0.00000000000E+00 0.  1.
         23    2    1    2    0    0  0.10224508190E+04  0.10853708182E+03  0.72658332514E+03  0.12610716313E+04  0.72058001473E+02 0.  0.
         13    1    3    3    0    0  0.14995708232E+03  0.28735561350E+02  0.13600090247E+03  0.20447274757E+03  0.00000000000E+00 0. -1.
        -13    1    3    3    0    0  0.87249373663E+03  0.79801520473E+02  0.59058242267E+03  0.10565988837E+04  0.00000000000E+00 0.  1.
         22    1    1    2    0    0 -0.10224508190E+04 -0.10853708182E+03 -0.65667217454E+02  0.10302903274E+04  0.00000000000E+00 0. -1.
<mgrwt>
<rscale>  0 0.21939757E+04</rscale>
<asrwt>0</asrwt>
<pdfrwt beam="1">  1        2 0.22709831E+00 0.21939757E+04</pdfrwt>
<pdfrwt beam="2">  1       -2 0.12541891E+00 0.21939757E+04</pdfrwt>
<totfact> 0.56947737E+00</totfact>
</mgrwt>
</event>
<event>
 6    1  0.1817112E-005  0.6322655E+03  0.7818608E-02  0.9840638E-01
         -2   -1    0    0    0  501 -0.00000000000E+00  0.00000000000E+00  0.25916668887E+03  0.25916668887E+03  0.00000000000E+00 0.  1.
          2   -1    0    0  501    0  0.00000000000E+00 -0.00000000000E+00 -0.38562023220E+03  0.38562023220E+03  0.00000000000E+00 0. -1.
         23    2    1    2    0    0  0.11954735227E+03 -0.19638325449E+03 -0.27558290451E+03  0.37074765664E+03  0.93005029779E+02 0.  0.
         11    1    3    3    0    0  0.10877599563E+03 -0.12605648611E+03 -0.13961226506E+03  0.21728791837E+03  0.00000000000E+00 0.  1.
        -11    1    3    3    0    0  0.10771356634E+02 -0.70326768386E+02 -0.13597063945E+03  0.15345973827E+03  0.00000000000E+00 0. -1.
         22    1    1    2    0    0 -0.11954735227E+03  0.19638325449E+03  0.14912936119E+03  0.27403926443E+03  0.00000000000E+00 0.  1.
<mgrwt>
<rscale>  0 0.63226551E+03</rscale>
<asrwt>0</asrwt>
<pdfrwt beam="1">  1        2 0.59326189E-01 0.63226551E+03</pdfrwt>
<pdfrwt beam="2">  1       -2 0.39871798E-01 0.63226551E+03</pdfrwt>
<totfact> 0.49716463E+02</totfact>
</mgrwt>
</event>
<event>
 6    1  0.1817112E-005  0.1788249E+04  0.7818608E-02  0.8712574E-01
          2   -1    0    0  501    0  0.00000000000E+00  0.00000000000E+00  0.94471576351E+03  0.94471576351E+03  0.00000000000E+00 0. -1.
         -2   -1    0    0    0  501 -0.00000000000E+00 -0.00000000000E+00 -0.84624216168E+03  0.84624216168E+03  0.00000000000E+00 0.  1.
         23    2    1    2    0    0 -0.57116412452E+03 -0.29781686454E+03 -0.56618499088E+03  0.86538005875E+03  0.11573184626E+03 0.  0.
         13    1    3    3    0    0 -0.35811492411E+03 -0.12884847826E+03 -0.29704051739E+03  0.48278493989E+03  0.00000000000E+00 0.  1.
        -13    1    3    3    0    0 -0.21304920041E+03 -0.16896838629E+03 -0.26914447350E+03  0.38259511886E+03  0.00000000000E+00 0. -1.
         22    1    1    2    0    0  0.57116412452E+03  0.29781686454E+03  0.66465859272E+03  0.92557786643E+03  0.00000000000E+00 0. -1.
<mgrwt>
<rscale>  0 0.17882487E+04</rscale>
<asrwt>0</asrwt>
<pdfrwt beam="1">  1        2 0.14534089E+00 0.17882487E+04</pdfrwt>
<pdfrwt beam="2">  1       -2 0.13019110E+00 0.17882487E+04</pdfrwt>
<totfact> 0.11189801E+01</totfact>
</mgrwt>
</event>
<event>
 6    1  0.1817112E-005  0.1225129E+04  0.7818608E-02  0.9091141E-01
         -2   -1    0    0    0  501 -0.00000000000E+00  0.00000000000E+00  0.21076526357E+03  0.21076526357E+03  0.00000000000E+00 0. -1.
          2   -1    0    0  501    0  0.00000000000E+00 -0.00000000000E+00 -0.17803472370E+04  0.17803472370E+04  0.00000000000E+00 0.  1.
         23    2    1    2    0    0 -0.12498902682E+03 -0.43359864657E+03 -0.12512795482E+03  0.47781231389E+03  0.94960829266E+02 0.  0.
         11    1    3    3    0    0 -0.13393820928E+03 -0.39397647963E+03 -0.13212561764E+03  0.43659373477E+03  0.00000000000E+00 0. -1.
        -11    1    3    3    0    0  0.89491824542E+01 -0.39622166947E+02  0.69976628183E+01  0.41218579125E+02  0.00000000000E+00 0.  1.
         22    1    1    2    0    0  0.12498902682E+03  0.43359864657E+03 -0.14444540186E+04  0.15133001866E+04  0.00000000000E+00 0.  1.
<mgrwt>
<rscale>  0 0.12251291E+04</rscale>
<asrwt>0</asrwt>
<pdfrwt beam="1">  1        2 0.27389957E+00 0.12251291E+04</pdfrwt>
<pdfrwt beam="2">  1       -2 0.32425425E-01 0.12251291E+04</pdfrwt>
<totfact> 0.77239873E+01</totfact>
</mgrwt>
</event>
<event>
 6    1  0.1817112E-005  0.1209071E+04  0.7818608E-02  0.9104954E-01
          2   -1    0    0  501    0  0.00000000000E+00  0.00000000000E+00  0.16928658350E+04  0.16928658350E+04  0.00000000000E+00 0. -1.
         -2   -1    0    0    0  501 -0.00000000000E+00 -0.00000000000E+00 -0.21588415910E+03  0.21588415910E+03  0.00000000000E+00 0.  1.
         23    2    1    2    0    0 -0.42670780098E+03 -0.25485676451E+03  0.12762874347E+04  0.13727372178E+04  0.92012691319E+02 0.  0.
         11    1    3    3    0    0 -0.24542108923E+03 -0.10597444403E+03  0.59806451533E+03  0.65509026731E+03  0.00000000000E+00 0. -1.
        -11    1    3    3    0    0 -0.18128671175E+03 -0.14888232048E+03  0.67822291940E+03  0.71764695054E+03  0.00000000000E+00 0.  1.
         22    1    1    2    0    0  0.42670780098E+03  0.25485676451E+03  0.20069424112E+03  0.53601277620E+03  0.00000000000E+00 0.  1.
<mgrwt>
<rscale>  0 0.12090706E+04</rscale>
<asrwt>0</asrwt>
<pdfrwt beam="1">  1        2 0.26044089E+00 0.12090706E+04</pdfrwt>
<pdfrwt beam="2">  1       -2 0.33212949E-01 0.12090706E+04</pdfrwt>
<totfact> 0.82615871E+01</totfact>
</mgrwt>
</event>
<event>
 6    1  0.1817112E-005  0.1623301E+04  0.7818608E-02  0.8806360E-01
          2   -1    0    0  501    0  0.00000000000E+00  0.00000000000E+00  0.10186265579E+04  0.10186265579E+04  0.00000000000E+00 0. -1.
         -2   -1    0    0    0  501 -0.00000000000E+00 -0.00000000000E+00 -0.64672978289E+03  0.64672978289E+03  0.00000000000E+00 0.  1.
         23    2    1    2    0    0  0.39278094156E+03  0.69685137295E+03  0.61327996585E+02  0.80725863644E+03  0.89591734614E+02 0.  0.
         13    1    3    3    0    0  0.32412825860E+03  0.56359275800E+03  0.84342929875E+02  0.65559869945E+03  0.00000000000E+00 0.  1.
        -13    1    3    3    0    0  0.68652682961E+02  0.13325861494E+03 -0.23014933291E+02  0.15165993699E+03  0.00000000000E+00 0. -1.
         22    1    1    2    0    0 -0.39278094156E+03 -0.69685137295E+03  0.31056877840E+03  0.85809770431E+03  0.00000000000E+00 0. -1.
<mgrwt>
<rscale>  0 0.16233005E+04</rscale>
<asrwt>0</asrwt>
<pdfrwt beam="1">  1        2 0.15671178E+00 0.16233005E+04</pdfrwt>
<pdfrwt beam="2">  1       -2 0.99496890E-01 0.16233005E+04</pdfrwt>
<totfact> 0.19612505E+01</totfact>
</mgrwt>
</event>
<event>
 6    1  0.1817112E-005  0.2679940E+04  0.7818608E-02  0.8341543E-01
         -2   -1    0    0    0  501 -0.00000000000E+00  0.00000000000E+00  0.55194110958E+03  0.55194110958E+03  0.00000000000E+00 0.  1.
          2   -1    0    0  501    0  0.00000000000E+00 -0.00000000000E+00 -0.32530993228E+04  0.32530993228E+04  0.00000000000E+00 0. -1.
         23    2    1    2    0    0  0.92597932827E+03  0.63431946208E+03 -0.31734361258E+03  0.11702024968E+04  0.94170158698E+02 0.  0.
         13    1    3    3    0    0  0.27238627083E+03  0.15336985409E+03 -0.55198518738E+02  0.31743262144E+03  0.00000000000E+00 0. -1.
        -13    1    3    3    0    0  0.65359305744E+03  0.48094960798E+03 -0.26214509384E+03  0.85276987539E+03  0.00000000000E+00 0.  1.
         22    1    1    2    0    0 -0.92597932827E+03 -0.63431946208E+03 -0.23838146006E+04  0.26348379355E+04  0.00000000000E+00 0. -1.
<mgrwt>
<rscale>  0 0.26799397E+04</rscale>
<asrwt>0</asrwt>
<pdfrwt beam="1">  1        2 0.50047681E+00 0.26799397E+04</pdfrwt>
<pdfrwt beam="2">  1       -2 0.84914019E-01 0.26799397E+04</pdfrwt>
<totfact> 0.12698960E+00</totfact>
</mgrwt>
</event>
<event>
 6    1  0.1817112E-005  0.5895691E+04  0.7818608E-02  0.7703471E-01
         -2   -1    0    0    0  501 -0.00000000000E+00  0.00000000000E+00  0.39935492693E+04  0.39935492693E+04  0.00000000000E+00 0.  1.
          2   -1    0    0  501    0  0.00000000000E+00 -0.00000000000E+00 -0.21759576308E+04  0.21759576308E+04  0.00000000000E+00 0. -1.
         23    2    1    2    0    0  0.19025125209E+04 -0.20533048587E+04 -0.55818667273E+02  0.28012312420E+04  0.90365991619E+02 0.  0.
         11    1    3    3    0    0  0.97150347010E+03 -0.10514181852E+04 -0.73682113534E+02  0.14334323306E+04  0.00000000000E+00 0.  1.
        -11    1    3    3    0    0  0.93100905078E+03 -0.10018866735E+04  0.17863446261E+02  0.13677989114E+04  0.00000000000E+00 0. -1.
         22    1    1    2    0    0 -0.19025125209E+04  0.20533048587E+04  0.18734103058E+04  0.33682756581E+04  0.00000000000E+00 0.  1.
<mgrwt>
<rscale>  0 0.58956913E+04</rscale>
<asrwt>0</asrwt>
<pdfrwt beam="1">  1        2 0.33476271E+00 0.58956913E+04</pdfrwt>
<pdfrwt beam="2">  1       -2 0.61439220E+00 0.58956913E+04</pdfrwt>
<totfact> 0.16503048E-03</totfact>
</mgrwt>
</event>
<event>
 6    1  0.1817112E-005  0.1266572E+04  0.7818608E-02  0.9056502E-01
         -2   -1    0    0    0  501 -0.00000000000E+00  0.00000000000E+00  0.10686804334E+04  0.10686804334E+04  0.00000000000E+00 0.  1.
          2   -1    0    0  501    0  0.00000000000E+00 -0.00000000000E+00 -0.37527679050E+03  0.37527679050E+03  0.00000000000E+00 0. -1.
         23    2    1    2    0    0 -0.52911706279E+03 -0.31473563154E+03  0.19648257153E+03  0.65278471738E+03  0.92190576739E+02 0.  0.
         13    1    3    3    0    0 -0.36416332078E+03 -0.24525086389E+03  0.17447668407E+03  0.47244578919E+03  0.00000000000E+00 0.  1.
        -13    1    3    3    0    0 -0.16495374201E+03 -0.69484767645E+02  0.22005887455E+02  0.18033892819E+03  0.00000000000E+00 0. -1.
         22    1    1    2    0    0  0.52911706279E+03  0.31473563154E+03  0.49692107136E+03  0.79117250651E+03  0.00000000000E+00 0. -1.
<mgrwt>
<rscale>  0 0.12665717E+04</rscale>
<asrwt>0</asrwt>
<pdfrwt beam="1">  1        2 0.57734891E-01 0.12665717E+04</pdfrwt>
<pdfrwt beam="2">  1       -2 0.16441237E+00 0.12665717E+04</pdfrwt>
<totfact> 0.19603305E+01</totfact>
</mgrwt>
</event>
<event>
 6    1  0.1817112E-005  0.4308276E+04  0.7818608E-02  0.7945090E-01
          2   -1    0    0  501    0  0.00000000000E+00  0.00000000000E+00  0.16049875348E+04  0.16049875348E+04  0.00000000000E+00 0.  1.
         -2   -1    0    0    0  501 -0.00000000000E+00 -0.00000000000E+00 -0.28911819473E+04  0.28911819473E+04  0.00000000000E+00 0. -1.
         23    2    1    2    0    0  0.10796548771E+04  0.12665476088E+03 -0.25830482693E+04  0.28039738646E+04  0.91842201594E+02 0.  0.
         11    1    3    3    0    0  0.21485987427E+03 -0.11306972093E+02 -0.49954014911E+03  0.54390529852E+03  0.00000000000E+00 0.  1.
        -11    1    3    3    0    0  0.86479500287E+03  0.13796173297E+03 -0.20835081202E+04  0.22600685661E+04  0.00000000000E+00 0. -1.
         22    1    1    2    0    0 -0.10796548771E+04 -0.12665476088E+03  0.12968538567E+04  0.16921956175E+04  0.00000000000E+00 0.  1.
<mgrwt>
<rscale>  0 0.43082762E+04</rscale>
<asrwt>0</asrwt>
<pdfrwt beam="1">  1        2 0.24692116E+00 0.43082762E+04</pdfrwt>
<pdfrwt beam="2">  1       -2 0.44479722E+00 0.43082762E+04</pdfrwt>
<totfact> 0.32055866E-02</totfact>
</mgrwt>
</event>
<event>
 6    1  0.1817112E-005  0.1098776E+04  0.7818608E-02  0.9206386E-01
         -2   -1    0    0    0  501 -0.00000000000E+00  0.00000000000E+00  0.41087388655E+03  0.41087388655E+03  0.00000000000E+00 0. -1.
          2   -1    0    0  501    0  0.00000000000E+00 -0.00000000000E+00 -0.73459792214E+03  0.73459792214E+03  0.00000000000E+00 0.  1.
         23    2    1    2    0    0 -0.44997679828E+03  0.30552671019E+03 -0.12678655281E+03  0.56701691697E+03  0.98018694804E+02 0.  0.
         11    1    3    3    0    0 -0.45209973873E+03  0.29333257822E+03 -0.12967941293E+03  0.55430580489E+03  0.00000000000E+00 0.  1.
        -11    1    3    3    0    0  0.21229404486E+01  0.12194131967E+02  0.28928601162E+01  0.12711112077E+02  0.00000000000E+00 0. -1.
         22    1    1    2    0    0  0.44997679828E+03 -0.30552671019E+03 -0.19693748278E+03  0.57845489172E+03  0.00000000000E+00 0. -1.
<mgrwt>
<rscale>  0 0.10987759E+04</rscale>
<asrwt>0</asrwt>
<pdfrwt beam="1">  1        2 0.11301506E+00 0.10987759E+04</pdfrwt>
<pdfrwt beam="2">  1       -2 0.63211368E-01 0.10987759E+04</pdfrwt>
<totfact> 0.88699581E+01</totfact>
</mgrwt>
</event>
<event>
 6    1  0.1817112E-005  0.2714123E+04  0.7818608E-02  0.8330437E-01
         -2   -1    0    0    0  501 -0.00000000000E+00  0.00000000000E+00  0.59575057344E+03  0.59575057344E+03  0.00000000000E+00 0.  1.
          2   -1    0    0  501    0  0.00000000000E+00 -0.00000000000E+00 -0.30912541088E+04  0.30912541088E+04  0.00000000000E+00 0. -1.
         23    2    1    2    0    0 -0.81672319310E+02 -0.45209412397E+03 -0.29817198532E+04  0.30180758575E+04  0.84078143541E+02 0.  0.
         11    1    3    3    0    0 -0.83160810071E+02 -0.29447493864E+03 -0.17880464694E+04  0.18140400730E+04  0.00000000000E+00 0. -1.
        -11    1    3    3    0    0  0.14884907611E+01 -0.15761918533E+03 -0.11936733838E+04  0.12040357845E+04  0.00000000000E+00 0.  1.
         22    1    1    2    0    0  0.81672319310E+02  0.45209412397E+03  0.48621631789E+03  0.66892882465E+03  0.00000000000E+00 0.  1.
<mgrwt>
<rscale>  0 0.27141234E+04</rscale>
<asrwt>0</asrwt>
<pdfrwt beam="1">  1        2 0.47557756E+00 0.27141234E+04</pdfrwt>
<pdfrwt beam="2">  1       -2 0.91653934E-01 0.27141234E+04</pdfrwt>
<totfact> 0.13530233E+00</totfact>
</mgrwt>
</event>
<event>
 6    1  0.1817112E-005  0.2584686E+04  0.7818608E-02  0.8373422E-01
          2   -1    0    0  501    0  0.00000000000E+00  0.00000000000E+00  0.13514385549E+04  0.13514385549E+04  0.00000000000E+00 0. -1.
         -2   -1    0    0    0  501 -0.00000000000E+00 -0.00000000000E+00 -0.12358315775E+04  0.12358315775E+04  0.00000000000E+00 0.  1.
         23    2    1    2    0    0  0.17714325492E+03  0.11695617715E+04 -0.45916821195E+03  0.12721195751E+04  0.90544444481E+02 0.  0.
         13    1    3    3    0    0  0.89685257856E+01  0.15795356754E+03 -0.91176963854E+02  0.18260066455E+03  0.00000000000E+00 0.  1.
        -13    1    3    3    0    0  0.16817472914E+03  0.10116082040E+04 -0.36799124810E+03  0.10895189106E+04  0.00000000000E+00 0. -1.
         22    1    1    2    0    0 -0.17714325492E+03 -0.11695617715E+04  0.57477518932E+03  0.13151505573E+04  0.00000000000E+00 0. -1.
<mgrwt>
<rscale>  0 0.25846860E+04</rscale>
<asrwt>0</asrwt>
<pdfrwt beam="1">  1        2 0.20791362E+00 0.25846860E+04</pdfrwt>
<pdfrwt beam="2">  1       -2 0.19012794E+00 0.25846860E+04</pdfrwt>
<totfact> 0.21145416E+00</totfact>
</mgrwt>
</event>
<event>
 6    1  0.1817112E-005  0.2446150E+04  0.7818608E-02  0.8422425E-01
         -1   -1    0    0    0  501 -0.00000000000E+00  0.00000000000E+00  0.17638137143E+04  0.17638137143E+04  0.00000000000E+00 0.  1.
          1   -1    0    0  501    0  0.00000000000E+00 -0.00000000000E+00 -0.84811229956E+03  0.84811229956E+03  0.00000000000E+00 0. -1.
         23    2    1    2    0    0  0.25254010319E+03  0.20580093809E+03 -0.79834696035E+03  0.86719326585E+03  0.92389184457E+02 0.  0.
         13    1    3    3    0    0  0.80516614586E+02  0.11731904285E+03 -0.28352768243E+03  0.31722961675E+03  0.00000000000E+00 0.  1.
        -13    1    3    3    0    0  0.17202348860E+03  0.88481895237E+02 -0.51481927792E+03  0.54996364910E+03  0.00000000000E+00 0. -1.
         22    1    1    2    0    0 -0.25254010319E+03 -0.20580093809E+03  0.17140483751E+04  0.17447327480E+04  0.00000000000E+00 0.  1.
<mgrwt>
<rscale>  0 0.24461497E+04</rscale>
<asrwt>0</asrwt>
<pdfrwt beam="1">  1        1 0.13047882E+00 0.24461497E+04</pdfrwt>
<pdfrwt beam="2">  1       -1 0.27135596E+00 0.24461497E+04</pdfrwt>
<totfact> 0.90844231E-01</totfact>
</mgrwt>
</event>
<event>
 6    1  0.1817112E-005  0.1261047E+04  0.7818608E-02  0.9061039E-01
         -2   -1    0    0    0  501 -0.00000000000E+00  0.00000000000E+00  0.24582564771E+03  0.24582564771E+03  0.00000000000E+00 0.  1.
          2   -1    0    0  501    0  0.00000000000E+00 -0.00000000000E+00 -0.16172431335E+04  0.16172431335E+04  0.00000000000E+00 0. -1.
         23    2    1    2    0    0 -0.24927724268E+03 -0.29264894489E+03  0.43487912947E+02  0.39686966922E+03  0.88497384742E+02 0.  0.
         11    1    3    3    0    0 -0.21226039018E+03 -0.19031552462E+03  0.21902809292E+02  0.28592692284E+03  0.00000000000E+00 0.  1.
        -11    1    3    3    0    0 -0.37016852506E+02 -0.10233342027E+03  0.21585103655E+02  0.11094274638E+03  0.00000000000E+00 0. -1.
         22    1    1    2    0    0  0.24927724268E+03  0.29264894489E+03 -0.14149053987E+04  0.14661991120E+04  0.00000000000E+00 0. -1.
<mgrwt>
<rscale>  0 0.12610469E+04</rscale>
<asrwt>0</asrwt>
<pdfrwt beam="1">  1        2 0.24880664E+00 0.12610469E+04</pdfrwt>
<pdfrwt beam="2">  1       -2 0.37819330E-01 0.12610469E+04</pdfrwt>
<totfact> 0.70696849E+01</totfact>
</mgrwt>
</event>
<event>
 6    1  0.1817112E-005  0.4981959E+04  0.7818608E-02  0.7831296E-01
          2   -1    0    0  501    0  0.00000000000E+00  0.00000000000E+00  0.40400585600E+04  0.40400585600E+04  0.00000000000E+00 0. -1.
         -2   -1    0    0    0  501 -0.00000000000E+00 -0.00000000000E+00 -0.15358636400E+04  0.15358636400E+04  0.00000000000E+00 0.  1.
         23    2    1    2    0    0 -0.16317299323E+04 -0.83339241821E+03 -0.63491845883E+03  0.19412119916E+04  0.89983622411E+02 0.  0.
         11    1    3    3    0    0 -0.56146369715E+03 -0.24492238164E+03 -0.23361965766E+03  0.65559637025E+03  0.00000000000E+00 0. -1.
        -11    1    3    3    0    0 -0.10702662351E+04 -0.58847003658E+03 -0.40129880117E+03  0.12856156213E+04  0.00000000000E+00 0.  1.
         22    1    1    2    0    0  0.16317299323E+04  0.83339241821E+03  0.31391133788E+04  0.36347102084E+04  0.00000000000E+00 0. -1.
<mgrwt>
<rscale>  0 0.49819591E+04</rscale>
<asrwt>0</asrwt>
<pdfrwt beam="1">  1        2 0.62154747E+00 0.49819591E+04</pdfrwt>
<pdfrwt beam="2">  1       -2 0.23628672E+00 0.49819591E+04</pdfrwt>
<totfact> 0.17982563E-02</totfact>
</mgrwt>
</event>
<event>
 6    1  0.1817112E-005  0.1142384E+04  0.7818608E-02  0.9164839E-01
          2   -1    0    0  501    0  0.00000000000E+00  0.00000000000E+00  0.16381387866E+04  0.16381387866E+04  0.00000000000E+00 0. -1.
         -2   -1    0    0    0  501 -0.00000000000E+00 -0.00000000000E+00 -0.19916516340E+03  0.19916516340E+03  0.00000000000E+00 0.  1.
         23    2    1    2    0    0  0.41645507669E+03 -0.15286016555E+03  0.15419146860E+03  0.47808864481E+03  0.89401801972E+02 0.  0.
         13    1    3    3    0    0  0.24010943733E+03 -0.50748262471E+02  0.55220159321E+02  0.25154958563E+03  0.00000000000E+00 0. -1.
        -13    1    3    3    0    0  0.17634563936E+03 -0.10211190307E+03  0.98971309281E+02  0.22653905918E+03  0.00000000000E+00 0.  1.
         22    1    1    2    0    0 -0.41645507669E+03  0.15286016555E+03  0.12847821546E+04  0.13592153052E+04  0.00000000000E+00 0. -1.
<mgrwt>
<rscale>  0 0.11423838E+04</rscale>
<asrwt>0</asrwt>
<pdfrwt beam="1">  1        2 0.25202134E+00 0.11423838E+04</pdfrwt>
<pdfrwt beam="2">  1       -2 0.30640795E-01 0.11423838E+04</pdfrwt>
<totfact> 0.10360828E+02</totfact>
</mgrwt>
</event>
<event>
 6    1  0.1817112E-005  0.1006472E+04  0.7818608E-02  0.9301475E-01
         -1   -1    0    0    0  501 -0.00000000000E+00  0.00000000000E+00  0.19479463509E+03  0.19479463509E+03  0.00000000000E+00 0. -1.
          1   -1    0    0  501    0  0.00000000000E+00 -0.00000000000E+00 -0.13000682888E+04  0.13000682888E+04  0.00000000000E+00 0.  1.
         23    2    1    2    0    0  0.36474680160E+03 -0.21544229457E+03 -0.16788607924E+03  0.46619821840E+03  0.98485692713E+02 0.  0.
         11    1    3    3    0    0  0.11046333056E+03 -0.15878766791E+02 -0.39235787745E+02  0.11829509572E+03  0.00000000000E+00 0. -1.
        -11    1    3    3    0    0  0.25428347104E+03 -0.19956352778E+03 -0.12865029150E+03  0.34790312268E+03  0.00000000000E+00 0.  1.
         22    1    1    2    0    0 -0.36474680160E+03  0.21544229457E+03 -0.93738757445E+03  0.10286647055E+04  0.00000000000E+00 0.  1.
<mgrwt>
<rscale>  0 0.10064717E+04</rscale>
<asrwt>0</asrwt>
<pdfrwt beam="1">  1        1 0.20001051E+00 0.10064717E+04</pdfrwt>
<pdfrwt beam="2">  1       -1 0.29968405E-01 0.10064717E+04</pdfrwt>
<totfact> 0.92587822E+01</totfact>
</mgrwt>
</event>
<event>
 6    1  0.1817112E-005  0.4122359E+04  0.7818608E-02  0.7980308E-01
         -1   -1    0    0    0  501 -0.00000000000E+00  0.00000000000E+00  0.24434757065E+04  0.24434757065E+04  0.00000000000E+00 0.  1.
          1   -1    0    0  501    0  0.00000000000E+00 -0.00000000000E+00 -0.17386956004E+04  0.17386956004E+04  0.00000000000E+00 0. -1.
         23    2    1    2    0    0  0.35739654616E+03 -0.12255363865E+04 -0.12878647636E+04  0.18156748877E+04  0.91694726613E+02 0.  0.
         11    1    3    3    0    0  0.24051478475E+03 -0.73123097833E+03 -0.82715059778E+03  0.11299222171E+04  0.00000000000E+00 0.  1.
        -11    1    3    3    0    0  0.11688176141E+03 -0.49430540813E+03 -0.46071416579E+03  0.68575267058E+03  0.00000000000E+00 0. -1.
         22    1    1    2    0    0 -0.35739654616E+03  0.12255363865E+04  0.19926448696E+04  0.23664964192E+04  0.00000000000E+00 0.  1.
<mgrwt>
<rscale>  0 0.41223588E+04</rscale>
<asrwt>0</asrwt>
<pdfrwt beam="1">  1        1 0.26749163E+00 0.41223588E+04</pdfrwt>
<pdfrwt beam="2">  1       -1 0.37591934E+00 0.41223588E+04</pdfrwt>
<totfact> 0.36211914E-02</totfact>
</mgrwt>
</event>
<event>
 6    1  0.1817112E-005  0.3457623E+04  0.7818608E-02  0.8123907E-01
         -2   -1    0    0    0  501 -0.00000000000E+00  0.00000000000E+00  0.22746173753E+04  0.22746173753E+04  0.00000000000E+00 0.  1.
          2   -1    0    0  501    0  0.00000000000E+00 -0.00000000000E+00 -0.13139742882E+04  0.13139742882E+04  0.00000000000E+00 0. -1.
         23    2    1    2    0    0  0.13379240790E+04  0.64221348413E+02 -0.65171419686E+03  0.14924377489E+04  0.92053338230E+02 0.  0.
         13    1    3    3    0    0  0.84712692620E+03  0.30403015808E+02 -0.36399600913E+03  0.92251908768E+03  0.00000000000E+00 0. -1.
        -13    1    3    3    0    0  0.49079715279E+03  0.33818332604E+02 -0.28771818773E+03  0.56991866118E+03  0.00000000000E+00 0.  1.
         22    1    1    2    0    0 -0.13379240790E+04 -0.64221348413E+02  0.16123572839E+04  0.20961539146E+04  0.00000000000E+00 0.  1.
<mgrwt>
<rscale>  0 0.34576227E+04</rscale>
<asrwt>0</asrwt>
<pdfrwt beam="1">  1        2 0.20214989E+00 0.34576227E+04</pdfrwt>
<pdfrwt beam="2">  1       -2 0.34994113E+00 0.34576227E+04</pdfrwt>
<totfact> 0.20822130E-01</totfact>
</mgrwt>
</event>
<event>
 6    1  0.1817112E-005  0.1842027E+04  0.7818608E-02  0.8684264E-01
         -2   -1    0    0    0  501 -0.00000000000E+00  0.00000000000E+00  0.69579513113E+03  0.69579513113E+03  0.00000000000E+00 0.  1.
          2   -1    0    0  501    0  0.00000000000E+00 -0.00000000000E+00 -0.12191313169E+04  0.12191313169E+04  0.00000000000E+00 0. -1.
         23    2    1    2    0    0 -0.26084522304E+03 -0.55986328778E+03 -0.96950506669E+03  0.11529856356E+04  0.89155314417E+02 0.  0.
         13    1    3    3    0    0 -0.22283441384E+03 -0.38270041520E+03 -0.68595471362E+03  0.81648554973E+03  0.00000000000E+00 0.  1.
        -13    1    3    3    0    0 -0.38010809198E+02 -0.17716287258E+03 -0.28355035308E+03  0.33650008583E+03  0.00000000000E+00 0. -1.
         22    1    1    2    0    0  0.26084522304E+03  0.55986328778E+03  0.44616888093E+03  0.76194081246E+03  0.00000000000E+00 0.  1.
<mgrwt>
<rscale>  0 0.18420267E+04</rscale>
<asrwt>0</asrwt>
<pdfrwt beam="1">  1        2 0.18755866E+00 0.18420267E+04</pdfrwt>
<pdfrwt beam="2">  1       -2 0.10704540E+00 0.18420267E+04</pdfrwt>
<totfact> 0.12183369E+01</totfact>
</mgrwt>
</event>
<event>
 6    1  0.1817112E-005  0.2199833E+04  0.7818608E-02  0.8518498E-01
         -2   -1    0    0    0  501 -0.00000000000E+00  0.00000000000E+00  0.34128979055E+03  0.34128979055E+03  0.00000000000E+00 0.  1.
          2   -1    0    0  501    0  0.00000000000E+00 -0.00000000000E+00 -0.35448344774E+04  0.35448344774E+04  0.00000000000E+00 0. -1.
         23    2    1    2    0    0  0.87790503291E+03 -0.35002657773E+02 -0.44089427591E+03  0.98712793717E+03  0.89952036872E+02 0.  0.
         11    1    3    3    0    0  0.33438206811E+03 -0.99468189344E+01 -0.21709477574E+03  0.39879875668E+03  0.00000000000E+00 0.  1.
        -11    1    3    3    0    0  0.54352296481E+03 -0.25055838839E+02 -0.22379950017E+03  0.58832918048E+03  0.00000000000E+00 0. -1.
         22    1    1    2    0    0 -0.87790503291E+03  0.35002657773E+02 -0.27626504109E+04  0.28989963308E+04  0.00000000000E+00 0. -1.
<mgrwt>
<rscale>  0 0.21998326E+04</rscale>
<asrwt>0</asrwt>
<pdfrwt beam="1">  1        2 0.54535913E+00 0.21998326E+04</pdfrwt>
<pdfrwt beam="2">  1       -2 0.52506123E-01 0.21998326E+04</pdfrwt>
<totfact> 0.23739863E+00</totfact>
</mgrwt>
</event>
<event>
 6    1  0.1817112E-005  0.2266647E+04  0.7818608E-02  0.8491189E-01
          2   -1    0    0  501    0  0.00000000000E+00  0.00000000000E+00  0.12195389980E+04  0.12195389980E+04  0.00000000000E+00 0. -1.
         -2   -1    0    0    0  501 -0.00000000000E+00 -0.00000000000E+00 -0.10532026235E+04  0.10532026235E+04  0.00000000000E+00 0.  1.
         23    2    1    2    0    0 -0.60379731453E+03 -0.69195451761E+03  0.74623088569E+03  0.11866247330E+04  0.88574662322E+02 0.  0.
         13    1    3    3    0    0 -0.31756767776E+03 -0.42573869843E+03  0.45070955561E+03  0.69659297500E+03  0.00000000000E+00 0. -1.
        -13    1    3    3    0    0 -0.28622963677E+03 -0.26621581918E+03  0.29552133009E+03  0.49003175803E+03  0.00000000000E+00 0.  1.
         22    1    1    2    0    0  0.60379731453E+03  0.69195451761E+03 -0.57989451119E+03  0.10861168885E+04  0.00000000000E+00 0.  1.
<mgrwt>
<rscale>  0 0.22666466E+04</rscale>
<asrwt>0</asrwt>
<pdfrwt beam="1">  1        2 0.18762138E+00 0.22666466E+04</pdfrwt>
<pdfrwt beam="2">  1       -2 0.16203117E+00 0.22666466E+04</pdfrwt>
<totfact> 0.40795462E+00</totfact>
</mgrwt>
</event>
<event>
 6    1  0.1817112E-005  0.3276231E+04  0.7818608E-02  0.8168970E-01
         -2   -1    0    0    0  501 -0.00000000000E+00  0.00000000000E+00  0.16194588491E+04  0.16194588491E+04  0.00000000000E+00 0.  1.
          2   -1    0    0  501    0  0.00000000000E+00 -0.00000000000E+00 -0.16569873414E+04  0.16569873414E+04  0.00000000000E+00 0. -1.
         23    2    1    2    0    0  0.88172379142E+03 -0.11584891111E+04  0.73009672342E+03  0.16306083076E+04  0.79425199663E+02 0.  0.
         11    1    3    3    0    0  0.41219229633E+03 -0.59887777649E+03  0.38576875285E+03  0.82302770974E+03  0.00000000000E+00 0. -1.
        -11    1    3    3    0    0  0.46953149509E+03 -0.55961133463E+03  0.34432797057E+03  0.80758059786E+03  0.00000000000E+00 0.  1.
         22    1    1    2    0    0 -0.88172379142E+03  0.11584891111E+04 -0.76762521578E+03  0.16458378829E+04  0.00000000000E+00 0. -1.
<mgrwt>
<rscale>  0 0.32762313E+04</rscale>
<asrwt>0</asrwt>
<pdfrwt beam="1">  1        2 0.25492113E+00 0.32762313E+04</pdfrwt>
<pdfrwt beam="2">  1       -2 0.24914752E+00 0.32762313E+04</pdfrwt>
<totfact> 0.56409880E-01</totfact>
</mgrwt>
</event>
<event>
 6    1  0.1817112E-005  0.6502826E+03  0.7818608E-02  0.9806249E-01
          2   -1    0    0  501    0  0.00000000000E+00  0.00000000000E+00  0.94017445577E+02  0.94017445577E+02  0.00000000000E+00 0. -1.
         -2   -1    0    0    0  501 -0.00000000000E+00 -0.00000000000E+00 -0.11244389292E+04  0.11244389292E+04  0.00000000000E+00 0.  1.
         23    2    1    2    0    0  0.15050197904E+02  0.24005856556E+03 -0.91700119874E+03  0.95252633816E+03  0.92523526974E+02 0.  0.
         11    1    3    3    0    0  0.14669960446E+02  0.16220794231E+03 -0.43924331863E+03  0.46846698630E+03  0.00000000000E+00 0. -1.
        -11    1    3    3    0    0  0.38023745780E+00  0.77850623251E+02 -0.47775788011E+03  0.48405935186E+03  0.00000000000E+00 0.  1.
         22    1    1    2    0    0 -0.15050197904E+02 -0.24005856556E+03 -0.11342028490E+03  0.26593003663E+03  0.00000000000E+00 0. -1.
<mgrwt>
<rscale>  0 0.65028263E+03</rscale>
<asrwt>0</asrwt>
<pdfrwt beam="1">  1        2 0.14464222E-01 0.65028263E+03</pdfrwt>
<pdfrwt beam="2">  1       -2 0.17299060E+00 0.65028263E+03</pdfrwt>
<totfact> 0.86642317E+01</totfact>
</mgrwt>
</event>
<event>
 6    1  0.1817112E-005  0.4635810E+03  0.7818608E-02  0.1023748E+00
         -1   -1    0    0    0  501 -0.00000000000E+00  0.00000000000E+00  0.65944436792E+03  0.65944436792E+03  0.00000000000E+00 0.  1.
          1   -1    0    0  501    0  0.00000000000E+00 -0.00000000000E+00 -0.81472886202E+02  0.81472886202E+02  0.00000000000E+00 0. -1.
         23    2    1    2    0    0 -0.16617330007E+03 -0.71187109852E+02  0.91970681193E+02  0.22238283060E+03  0.91183040537E+02 0.  0.
         13    1    3    3    0    0 -0.14305981253E+03 -0.90762499227E+02  0.90451269022E+02  0.19205565156E+03  0.00000000000E+00 0.  1.
        -13    1    3    3    0    0 -0.23113487540E+02  0.19575389375E+02  0.15194121714E+01  0.30327179044E+02  0.00000000000E+00 0. -1.
         22    1    1    2    0    0  0.16617330007E+03  0.71187109852E+02  0.48600080052E+03  0.51853442352E+03  0.00000000000E+00 0.  1.
<mgrwt>
<rscale>  0 0.46358100E+03</rscale>
<asrwt>0</asrwt>
<pdfrwt beam="1">  1        1 0.12534291E-01 0.46358100E+03</pdfrwt>
<pdfrwt beam="2">  1       -1 0.10145298E+00 0.46358100E+03</pdfrwt>
<totfact> 0.46105228E+02</totfact>
</mgrwt>
</event>
<event>
 6    1  0.1817112E-005  0.1609375E+04  0.7818608E-02  0.8814809E-01
         -2   -1    0    0    0  501 -0.00000000000E+00  0.00000000000E+00  0.21641007703E+03  0.21641007703E+03  0.00000000000E+00 0.  1.
          2   -1    0    0  501    0  0.00000000000E+00 -0.00000000000E+00 -0.29921067950E+04  0.29921067950E+04  0.00000000000E+00 0. -1.
         23    2    1    2    0    0  0.31237168580E+03 -0.55081674740E+03 -0.41021029213E+03  0.75974142497E+03  0.89215412026E+02 0.  0.
         13    1    3    3    0    0  0.19636246522E+03 -0.25649293600E+03 -0.21364064245E+03  0.38728435041E+03  0.00000000000E+00 0.  1.
        -13    1    3    3    0    0  0.11600922058E+03 -0.29432381139E+03 -0.19656964968E+03  0.37245707456E+03  0.00000000000E+00 0. -1.
         22    1    1    2    0    0 -0.31237168580E+03  0.55081674740E+03 -0.23654864258E+04  0.24487754470E+04  0.00000000000E+00 0. -1.
<mgrwt>
<rscale>  0 0.16093751E+04</rscale>
<asrwt>0</asrwt>
<pdfrwt beam="1">  1        2 0.46032409E+00 0.16093751E+04</pdfrwt>
<pdfrwt beam="2">  1       -2 0.33293860E-01 0.16093751E+04</pdfrwt>
<totfact> 0.14303912E+01</totfact>
</mgrwt>
</event>
<event>
 6    1  0.1817112E-005  0.2689684E+04  0.7818608E-02  0.8338360E-01
         -2   -1    0    0    0  501 -0.00000000000E+00  0.00000000000E+00  0.11049077168E+04  0.11049077168E+04  0.00000000000E+00 0.  1.
          2   -1    0    0  501    0  0.00000000000E+00 -0.00000000000E+00 -0.16368782715E+04  0.16368782715E+04  0.00000000000E+00 0. -1.
         23    2    1    2    0    0  0.79118445818E+03 -0.10284483285E+04  0.89018623697E+02  0.13032776043E+04  0.83242941241E+02 0.  0.
         11    1    3    3    0    0  0.28746404734E+03 -0.34457496757E+03 -0.46631548336E+01  0.44876411599E+03  0.00000000000E+00 0. -1.
        -11    1    3    3    0    0  0.50372041084E+03 -0.68387336089E+03  0.93681778531E+02  0.85451348828E+03  0.00000000000E+00 0.  1.
         22    1    1    2    0    0 -0.79118445818E+03  0.10284483285E+04 -0.62098917839E+03  0.14385083840E+04  0.00000000000E+00 0. -1.
<mgrwt>
<rscale>  0 0.26896836E+04</rscale>
<asrwt>0</asrwt>
<pdfrwt beam="1">  1        2 0.25182743E+00 0.26896836E+04</pdfrwt>
<pdfrwt beam="2">  1       -2 0.16998580E+00 0.26896836E+04</pdfrwt>
<totfact> 0.19909629E+00</totfact>
</mgrwt>
</event>
<event>
 6    1  0.1817112E-005  0.1768243E+04  0.7818608E-02  0.8723372E-01
         -1   -1    0    0    0  501 -0.00000000000E+00  0.00000000000E+00  0.95269611155E+03  0.95269611155E+03  0.00000000000E+00 0.  1.
          1   -1    0    0  501    0  0.00000000000E+00 -0.00000000000E+00 -0.82048265087E+03  0.82048265087E+03  0.00000000000E+00 0. -1.
         23    2    1    2    0    0 -0.16429036964E+02  0.31952343892E+03 -0.75774701832E+03  0.82745428063E+03  0.90193688721E+02 0.  0.
         11    1    3    3    0    0  0.10107085733E+02  0.60392834680E+02 -0.75746231324E+02  0.97400920029E+02  0.00000000000E+00 0.  1.
        -11    1    3    3    0    0 -0.26536122697E+02  0.25913060424E+03 -0.68200078699E+03  0.73005336060E+03  0.00000000000E+00 0. -1.
         22    1    1    2    0    0  0.16429036964E+02 -0.31952343892E+03  0.88996047900E+03  0.94572448179E+03  0.00000000000E+00 0.  1.
<mgrwt>
<rscale>  0 0.17682428E+04</rscale>
<asrwt>0</asrwt>
<pdfrwt beam="1">  1        1 0.12622810E+00 0.17682428E+04</pdfrwt>
<pdfrwt beam="2">  1       -1 0.14656863E+00 0.17682428E+04</pdfrwt>
<totfact> 0.74562126E+00</totfact>
</mgrwt>
</event>
<event>
 6    1  0.1817112E-005  0.3946952E+04  0.7818608E-02  0.8015334E-01
         -1   -1    0    0    0  501 -0.00000000000E+00  0.00000000000E+00  0.18870010407E+04  0.18870010407E+04  0.00000000000E+00 0.  1.
          1   -1    0    0  501    0  0.00000000000E+00 -0.00000000000E+00 -0.20639133522E+04  0.20639133522E+04  0.00000000000E+00 0. -1.
         23    2    1    2    0    0 -0.73474987471E+03  0.18234493721E+04 -0.24821993801E+03  0.19837057694E+04  0.93007799234E+02 0.  0.
         11    1    3    3    0    0 -0.29737217587E+03  0.72529666843E+03 -0.14468287312E+03  0.79713148351E+03  0.00000000000E+00 0. -1.
        -11    1    3    3    0    0 -0.43737769884E+03  0.10981527037E+04 -0.10353706488E+03  0.11865742858E+04  0.00000000000E+00 0.  1.
         22    1    1    2    0    0  0.73474987471E+03 -0.18234493721E+04  0.71307626511E+02  0.19672086236E+04  0.00000000000E+00 0. -1.
<mgrwt>
<rscale>  0 0.39469516E+04</rscale>
<asrwt>0</asrwt>
<pdfrwt beam="1">  1        1 0.31752513E+00 0.39469516E+04</pdfrwt>
<pdfrwt beam="2">  1       -1 0.29030785E+00 0.39469516E+04</pdfrwt>
<totfact> 0.80895608E-02</totfact>
</mgrwt>
</event>
<event>
 6    1  0.1817112E-005  0.1908872E+04  0.7818608E-02  0.8650453E-01
          2   -1    0    0  501    0  0.00000000000E+00  0.00000000000E+00  0.49285646808E+03  0.49285646808E+03  0.00000000000E+00 0. -1.
         -2   -1    0    0    0  501 -0.00000000000E+00 -0.00000000000E+00 -0.18483032300E+04  0.18483032300E+04  0.00000000000E+00 0.  1.
         23    2    1    2    0    0 -0.28110492595E+03  0.22976354403E+03 -0.17589194664E+04  0.17983876568E+04  0.92677987444E+02 0.  0.
         11    1    3    3    0    0 -0.15369484160E+03  0.91936336058E+02 -0.10434500311E+04  0.10587078736E+04  0.00000000000E+00 0.  1.
        -11    1    3    3    0    0 -0.12741008435E+03  0.13782720797E+03 -0.71546943528E+03  0.73967978320E+03  0.00000000000E+00 0. -1.
         22    1    1    2    0    0  0.28110492595E+03 -0.22976354403E+03  0.40347270445E+03  0.54277204128E+03  0.00000000000E+00 0. -1.
<mgrwt>
<rscale>  0 0.19088721E+04</rscale>
<asrwt>0</asrwt>
<pdfrwt beam="1">  1        2 0.75824071E-01 0.19088721E+04</pdfrwt>
<pdfrwt beam="2">  1       -2 0.28435435E+00 0.19088721E+04</pdfrwt>
<totfact> 0.23234066E+00</totfact>
</mgrwt>
</event>
<event>
 6    1  0.1817112E-005  0.3811460E+04  0.7818608E-02  0.8043700E-01
         -2   -1    0    0    0  501 -0.00000000000E+00  0.00000000000E+00  0.20931423473E+04  0.20931423473E+04  0.00000000000E+00 0.  1.
          2   -1    0    0  501    0  0.00000000000E+00 -0.00000000000E+00 -0.17350982684E+04  0.17350982684E+04  0.00000000000E+00 0. -1.
         23    2    1    2    0    0 -0.21151612529E+03 -0.34657994509E+03 -0.16899216455E+04  0.17404139136E+04  0.91371183321E+02 0.  0.
         11    1    3    3    0    0 -0.75028870559E+02 -0.51586097059E+02 -0.38488050685E+03  0.39550405988E+03  0.00000000000E+00 0.  1.
        -11    1    3    3    0    0 -0.13648725473E+03 -0.29499384803E+03 -0.13050411386E+04  0.13449098537E+04  0.00000000000E+00 0. -1.
         22    1    1    2    0    0  0.21151612529E+03  0.34657994509E+03  0.20479657244E+04  0.20878267021E+04  0.00000000000E+00 0.  1.
<mgrwt>
<rscale>  0 0.38114604E+04</rscale>
<asrwt>0</asrwt>
<pdfrwt beam="1">  1        2 0.26693819E+00 0.38114604E+04</pdfrwt>
<pdfrwt beam="2">  1       -2 0.32202190E+00 0.38114604E+04</pdfrwt>
<totfact> 0.17470489E-01</totfact>
</mgrwt>
</event>
<event>
 6    1  0.1817112E-005  0.1576243E+04  0.7818608E-02  0.8835277E-01
         -2   -1    0    0    0  501 -0.00000000000E+00  0.00000000000E+00  0.26172121111E+03  0.26172121111E+03  0.00000000000E+00 0.  1.
          2   -1    0    0  501    0  0.00000000000E+00 -0.00000000000E+00 -0.23732715796E+04  0.23732715796E+04  0.00000000000E+00 0. -1.
         23    2    1    2    0    0  0.38835990242E+03 -0.59479078658E+03 -0.16204376487E+04  0.17714007590E+04  0.86272720227E+02 0.  0.
         11    1    3    3    0    0  0.17136213876E+03 -0.34114254437E+03 -0.86171451508E+03  0.94249409743E+03  0.00000000000E+00 0.  1.
        -11    1    3    3    0    0  0.21699776366E+03 -0.25364824221E+03 -0.75872313359E+03  0.82890666160E+03  0.00000000000E+00 0. -1.
         22    1    1    2    0    0 -0.38835990242E+03  0.59479078658E+03 -0.49111271982E+03  0.86359203167E+03  0.00000000000E+00 0.  1.
<mgrwt>
<rscale>  0 0.15762430E+04</rscale>
<asrwt>0</asrwt>
<pdfrwt beam="1">  1        2 0.36511870E+00 0.15762430E+04</pdfrwt>
<pdfrwt beam="2">  1       -2 0.40264802E-01 0.15762430E+04</pdfrwt>
<totfact> 0.23133406E+01</totfact>
</mgrwt>
</event>
<event>
 6    1  0.1817112E-005  0.1377972E+04  0.7818608E-02  0.8969920E-01
          2   -1    0    0  501    0  0.00000000000E+00  0.00000000000E+00  0.13613142606E+04  0.13613142606E+04  0.00000000000E+00 0. -1.
         -2   -1    0    0    0  501 -0.00000000000E+00 -0.00000000000E+00 -0.34870844440E+03  0.34870844440E+03  0.00000000000E+00 0.  1.
         23    2    1    2    0    0  0.33100935847E+03  0.24488125444E+03  0.11894579916E+04  0.12619036181E+04  0.89757470287E+02 0.  0.
         11    1    3    3    0    0  0.18762783354E+03  0.18486252693E+03  0.81354986433E+03  0.85512673888E+03  0.00000000000E+00 0. -1.
        -11    1    3    3    0    0  0.14338152493E+03  0.60018727517E+02  0.37590812722E+03  0.40677687921E+03  0.00000000000E+00 0.  1.
         22    1    1    2    0    0 -0.33100935847E+03 -0.24488125444E+03 -0.17685217532E+03  0.44811908695E+03  0.00000000000E+00 0.  1.
<mgrwt>
<rscale>  0 0.13779721E+04</rscale>
<asrwt>0</asrwt>
<pdfrwt beam="1">  1        2 0.20943296E+00 0.13779721E+04</pdfrwt>
<pdfrwt beam="2">  1       -2 0.53647453E-01 0.13779721E+04</pdfrwt>
<totfact> 0.48602289E+01</totfact>
</mgrwt>
</event>
<event>
 6    1  0.1817112E-005  0.1291465E+04  0.7818608E-02  0.9036361E-01
         -2   -1    0    0    0  501 -0.00000000000E+00  0.00000000000E+00  0.18413161609E+03  0.18413161609E+03  0.00000000000E+00 0.  1.
          2   -1    0    0  501    0  0.00000000000E+00 -0.00000000000E+00 -0.22645241490E+04  0.22645241490E+04  0.00000000000E+00 0. -1.
         23    2    1    2    0    0 -0.66308940888E+02 -0.60117779058E+03 -0.14583393568E+04  0.15810373205E+04  0.84342857433E+02 0.  0.
         11    1    3    3    0    0 -0.85183427181E+01 -0.39060232461E+03 -0.87920385098E+03  0.96210298292E+03  0.00000000000E+00 0. -1.
        -11    1    3    3    0    0 -0.57790598170E+02 -0.21057546597E+03 -0.57913550582E+03  0.61893433755E+03  0.00000000000E+00 0.  1.
         22    1    1    2    0    0  0.66308940888E+02  0.60117779058E+03 -0.62205317613E+03  0.86761844464E+03  0.00000000000E+00 0.  1.
<mgrwt>
<rscale>  0 0.12914650E+04</rscale>
<asrwt>0</asrwt>
<pdfrwt beam="1">  1        2 0.34838832E+00 0.12914650E+04</pdfrwt>
<pdfrwt beam="2">  1       -2 0.28327942E-01 0.12914650E+04</pdfrwt>
<totfact> 0.53272517E+01</totfact>
</mgrwt>
</event>
<event>
 6    1  0.1817112E-005  0.2866537E+04  0.7818608E-02  0.8282904E-01
         -2   -1    0    0    0  501 -0.00000000000E+00  0.00000000000E+00  0.16573130305E+04  0.16573130305E+04  0.00000000000E+00 0.  1.
          2   -1    0    0  501    0  0.00000000000E+00 -0.00000000000E+00 -0.12395112134E+04  0.12395112134E+04  0.00000000000E+00 0. -1.
         23    2    1    2    0    0  0.40082745333E+03  0.65932081915E+03 -0.10097539721E+04  0.12740851641E+04  0.91232292425E+02 0.  0.
         11    1    3    3    0    0  0.32741692856E+03  0.52936941250E+03 -0.86907022842E+03  0.10689793646E+04  0.00000000000E+00 0.  1.
        -11    1    3    3    0    0  0.73410524767E+02  0.12995140665E+03 -0.14068374369E+03  0.20510579947E+03  0.00000000000E+00 0. -1.
         22    1    1    2    0    0 -0.40082745333E+03 -0.65932081915E+03  0.14275557893E+04  0.16227390799E+04  0.00000000000E+00 0.  1.
<mgrwt>
<rscale>  0 0.28665366E+04</rscale>
<asrwt>0</asrwt>
<pdfrwt beam="1">  1        2 0.19069403E+00 0.28665366E+04</pdfrwt>
<pdfrwt beam="2">  1       -2 0.25497124E+00 0.28665366E+04</pdfrwt>
<totfact> 0.93004030E-01</totfact>
</mgrwt>
</event>
<event>
 6    1  0.1817112E-005  0.2213609E+04  0.7818608E-02  0.8512785E-01
          1   -1    0    0  501    0  0.00000000000E+00  0.00000000000E+00  0.10935680049E+04  0.10935680049E+04  0.00000000000E+00 0. -1.
         -1   -1    0    0    0  501 -0.00000000000E+00 -0.00000000000E+00 -0.11202010429E+04  0.11202010429E+04  0.00000000000E+00 0.  1.
         23    2    1    2    0    0  0.98931921733E+03 -0.31046573611E+03  0.36887821648E+03  0.11040075241E+04  0.87292540164E+02 0.  0.
         13    1    3    3    0    0  0.45765262896E+03 -0.10231331870E+03  0.14699760848E+03  0.49144912339E+03  0.00000000000E+00 0. -1.
        -13    1    3    3    0    0  0.53166658836E+03 -0.20815241741E+03  0.22188060799E+03  0.61255840069E+03  0.00000000000E+00 0.  1.
         22    1    1    2    0    0 -0.98931921733E+03  0.31046573611E+03 -0.39551125447E+03  0.11097615237E+04  0.00000000000E+00 0.  1.
<mgrwt>
<rscale>  0 0.22136088E+04</rscale>
<asrwt>0</asrwt>
<pdfrwt beam="1">  1        1 0.16824123E+00 0.22136088E+04</pdfrwt>
<pdfrwt beam="2">  1       -1 0.17233862E+00 0.22136088E+04</pdfrwt>
<totfact> 0.27617973E+00</totfact>
</mgrwt>
</event>
<event>
 6    1  0.1817112E-005  0.6775301E+04  0.7818608E-02  0.7601063E-01
          2   -1    0    0  501    0  0.00000000000E+00  0.00000000000E+00  0.31403647396E+04  0.31403647396E+04  0.00000000000E+00 0. -1.
         -2   -1    0    0    0  501 -0.00000000000E+00 -0.00000000000E+00 -0.36544082613E+04  0.36544082613E+04  0.00000000000E+00 0.  1.
         23    2    1    2    0    0 -0.35173695566E+03 -0.79061358337E+03 -0.35410919856E+04  0.36464701045E+04  0.92860368615E+02 0.  0.
         13    1    3    3    0    0 -0.63236336814E+02 -0.14241066512E+03 -0.80063207248E+03  0.81565393846E+03  0.00000000000E+00 0.  1.
        -13    1    3    3    0    0 -0.28850061884E+03 -0.64820291825E+03 -0.27404599132E+04  0.28308161660E+04  0.00000000000E+00 0. -1.
         22    1    1    2    0    0  0.35173695566E+03  0.79061358337E+03  0.30270484640E+04  0.31483028964E+04  0.00000000000E+00 0. -1.
<mgrwt>
<rscale>  0 0.67753007E+04</rscale>
<asrwt>0</asrwt>
<pdfrwt beam="1">  1        2 0.48313304E+00 0.67753007E+04</pdfrwt>
<pdfrwt beam="2">  1       -2 0.56221665E+00 0.67753007E+04</pdfrwt>
<totfact> 0.68327779E-04</totfact>
</mgrwt>
</event>
<event>
 6    1  0.1817112E-005  0.3784081E+03  0.7818608E-02  0.1051524E+00
          2   -1    0    0  501    0  0.00000000000E+00  0.00000000000E+00  0.47961013081E+03  0.47961013081E+03  0.00000000000E+00 0. -1.
         -2   -1    0    0    0  501 -0.00000000000E+00 -0.00000000000E+00 -0.74640151513E+02  0.74640151513E+02  0.00000000000E+00 0.  1.
         23    2    1    2    0    0  0.13780893271E+03 -0.18298469570E+02  0.51455671975E+02  0.17438385658E+03  0.91847195580E+02 0.  0.
         11    1    3    3    0    0  0.36909713168E+02 -0.42985255018E+02 -0.36911101960E+01  0.56777489990E+02  0.00000000000E+00 0. -1.
        -11    1    3    3    0    0  0.10089921954E+03  0.24686785448E+02  0.55146782171E+02  0.11760636659E+03  0.00000000000E+00 0.  1.
         22    1    1    2    0    0 -0.13780893271E+03  0.18298469570E+02  0.35351430732E+03  0.37986642574E+03  0.00000000000E+00 0. -1.
<mgrwt>
<rscale>  0 0.37840810E+03</rscale>
<asrwt>0</asrwt>
<pdfrwt beam="1">  1        2 0.73786172E-01 0.37840810E+03</pdfrwt>
<pdfrwt beam="2">  1       -2 0.11483101E-01 0.37840810E+03</pdfrwt>
<totfact> 0.34829476E+03</totfact>
</mgrwt>
</event>
<event>
 6    1  0.1817112E-005  0.2330693E+04  0.7818608E-02  0.8465917E-01
         -2   -1    0    0    0  501 -0.00000000000E+00  0.00000000000E+00  0.24531212287E+04  0.24531212287E+04  0.00000000000E+00 0.  1.
          2   -1    0    0  501    0  0.00000000000E+00 -0.00000000000E+00 -0.55359373219E+03  0.55359373219E+03  0.00000000000E+00 0. -1.
         23    2    1    2    0    0  0.15525342181E+03 -0.89367011319E+03  0.11018907381E+02  0.91166971379E+03  0.90941489620E+02 0.  0.
         13    1    3    3    0    0  0.52619273174E+02 -0.20003798271E+03  0.36423834781E+02  0.21002542269E+03  0.00000000000E+00 0.  1.
        -13    1    3    3    0    0  0.10263414864E+03 -0.69363213048E+03 -0.25404927400E+02  0.70164429110E+03  0.00000000000E+00 0. -1.
         22    1    1    2    0    0 -0.15525342181E+03  0.89367011319E+03  0.18885085891E+04  0.20950452471E+04  0.00000000000E+00 0.  1.
<mgrwt>
<rscale>  0 0.23306931E+04</rscale>
<asrwt>0</asrwt>
<pdfrwt beam="1">  1        2 0.85168268E-01 0.23306931E+04</pdfrwt>
<pdfrwt beam="2">  1       -2 0.37740326E+00 0.23306931E+04</pdfrwt>
<totfact> 0.51462643E-01</totfact>
</mgrwt>
</event>
<event>
 6    1  0.1817112E-005  0.6515075E+04  0.7818608E-02  0.7629624E-01
         -2   -1    0    0    0  501 -0.00000000000E+00  0.00000000000E+00  0.27742308984E+04  0.27742308984E+04  0.00000000000E+00 0.  1.
          2   -1    0    0  501    0  0.00000000000E+00 -0.00000000000E+00 -0.38250425139E+04  0.38250425139E+04  0.00000000000E+00 0. -1.
         23    2    1    2    0    0  0.30455084841E+04  0.95139509580E+03 -0.11875197219E+04  0.34056917770E+04  0.90878132554E+02 0.  0.
         11    1    3    3    0    0  0.12313440893E+04  0.42937194977E+03 -0.47108909116E+03  0.13865401074E+04  0.00000000000E+00 0.  1.
        -11    1    3    3    0    0  0.18141643947E+04  0.52202314604E+03 -0.71643063073E+03  0.20191516696E+04  0.00000000000E+00 0. -1.
         22    1    1    2    0    0 -0.30455084841E+04 -0.95139509580E+03  0.13670810643E+03  0.31935816353E+04  0.00000000000E+00 0. -1.
<mgrwt>
<rscale>  0 0.65150752E+04</rscale>
<asrwt>0</asrwt>
<pdfrwt beam="1">  1        2 0.58846808E+00 0.65150752E+04</pdfrwt>
<pdfrwt beam="2">  1       -2 0.42680475E+00 0.65150752E+04</pdfrwt>
<totfact> 0.15016482E-03</totfact>
</mgrwt>
</event>
<event>
 6    1  0.1817112E-005  0.2186286E+04  0.7818608E-02  0.8524158E-01
          2   -1    0    0  501    0  0.00000000000E+00  0.00000000000E+00  0.45481913995E+04  0.45481913995E+04  0.00000000000E+00 0.  1.
         -2   -1    0    0    0  501 -0.00000000000E+00 -0.00000000000E+00 -0.26273324247E+03  0.26273324247E+03  0.00000000000E+00 0. -1.
         23    2    1    2    0    0  0.43309303039E+03  0.87428785097E+03  0.32218563983E+04  0.33675960167E+04  0.91626749223E+02 0.  0.
         11    1    3    3    0    0  0.31278864680E+03  0.54985671465E+03  0.21660484460E+04  0.22565338497E+04  0.00000000000E+00 0. -1.
        -11    1    3    3    0    0  0.12030438359E+03  0.32443113632E+03  0.10558079522E+04  0.11110621670E+04  0.00000000000E+00 0.  1.
         22    1    1    2    0    0 -0.43309303039E+03 -0.87428785097E+03  0.10636017588E+04  0.14433286253E+04  0.00000000000E+00 0. -1.
<mgrwt>
<rscale>  0 0.21862855E+04</rscale>
<asrwt>0</asrwt>
<pdfrwt beam="1">  1        2 0.69972170E+00 0.21862855E+04</pdfrwt>
<pdfrwt beam="2">  1       -2 0.40420502E-01 0.21862855E+04</pdfrwt>
<totfact> 0.59200337E-01</totfact>
</mgrwt>
</event>
<event>
 6    1  0.1817112E-005  0.2433479E+04  0.7818608E-02  0.8427075E-01
          1   -1    0    0  501    0  0.00000000000E+00  0.00000000000E+00  0.33616404784E+04  0.33616404784E+04  0.00000000000E+00 0. -1.
         -1   -1    0    0    0  501 -0.00000000000E+00 -0.00000000000E+00 -0.44039644903E+03  0.44039644903E+03  0.00000000000E+00 0.  1.
         23    2    1    2    0    0 -0.60353196492E+03 -0.90690766118E+03  0.62190846891E+03  0.12576948989E+04  0.91071271099E+02 0.  0.
         13    1    3    3    0    0 -0.14629264571E+03 -0.18586947017E+03  0.17324028753E+03  0.29319139713E+03  0.00000000000E+00 0. -1.
        -13    1    3    3    0    0 -0.45723931922E+03 -0.72103819101E+03  0.44866818138E+03  0.96450350176E+03  0.00000000000E+00 0.  1.
         22    1    1    2    0    0  0.60353196492E+03  0.90690766118E+03  0.22993355605E+04  0.25443420285E+04  0.00000000000E+00 0. -1.
<mgrwt>
<rscale>  0 0.24334786E+04</rscale>
<asrwt>0</asrwt>
<pdfrwt beam="1">  1        1 0.51717544E+00 0.24334786E+04</pdfrwt>
<pdfrwt beam="2">  1       -1 0.67753302E-01 0.24334786E+04</pdfrwt>
<totfact> 0.63192398E-01</totfact>
</mgrwt>
</event>
<event>
 6    1  0.1817112E-005  0.2707375E+04  0.7818608E-02  0.8332616E-01
         -1   -1    0    0    0  501 -0.00000000000E+00  0.00000000000E+00  0.79257023982E+03  0.79257023982E+03  0.00000000000E+00 0.  1.
          1   -1    0    0  501    0  0.00000000000E+00 -0.00000000000E+00 -0.23120601406E+04  0.23120601406E+04  0.00000000000E+00 0. -1.
         23    2    1    2    0    0 -0.52254406100E+03  0.23286614998E+03  0.64384932306E+03  0.86692719704E+03  0.98700935451E+02 0.  0.
         13    1    3    3    0    0 -0.13560890383E+03  0.18421375424E+02  0.17747623012E+03  0.22411366341E+03  0.00000000000E+00 0.  1.
        -13    1    3    3    0    0 -0.38693515716E+03  0.21444477456E+03  0.46637309295E+03  0.64281353362E+03  0.00000000000E+00 0. -1.
         22    1    1    2    0    0  0.52254406100E+03 -0.23286614998E+03 -0.21633392239E+04  0.22377031834E+04  0.00000000000E+00 0. -1.
<mgrwt>
<rscale>  0 0.27073752E+04</rscale>
<asrwt>0</asrwt>
<pdfrwt beam="1">  1        1 0.35570156E+00 0.27073752E+04</pdfrwt>
<pdfrwt beam="2">  1       -1 0.12193388E+00 0.27073752E+04</pdfrwt>
<totfact> 0.94807722E-01</totfact>
</mgrwt>
</event>
<event>
 6    1  0.1817112E-005  0.1918594E+04  0.7818608E-02  0.8645656E-01
          2   -1    0    0  501    0  0.00000000000E+00  0.00000000000E+00  0.41323409805E+03  0.41323409805E+03  0.00000000000E+00 0. -1.
         -2   -1    0    0    0  501 -0.00000000000E+00 -0.00000000000E+00 -0.22269477953E+04  0.22269477953E+04  0.00000000000E+00 0.  1.
         23    2    1    2    0    0 -0.61920621994E+03 -0.73250716377E+02  0.90529729906E+02  0.63645410742E+03  0.89978822965E+02 0.  0.
         13    1    3    3    0    0 -0.20765497646E+03 -0.64935141997E+02  0.16312214385E+02  0.21818169092E+03  0.00000000000E+00 0.  1.
        -13    1    3    3    0    0 -0.41155124349E+03 -0.83155743808E+01  0.74217515520E+02  0.41827241650E+03  0.00000000000E+00 0. -1.
         22    1    1    2    0    0  0.61920621994E+03  0.73250716377E+02 -0.19042434272E+04  0.20037277860E+04  0.00000000000E+00 0.  1.
<mgrwt>
<rscale>  0 0.19185940E+04</rscale>
<asrwt>0</asrwt>
<pdfrwt beam="1">  1        2 0.63574475E-01 0.19185940E+04</pdfrwt>
<pdfrwt beam="2">  1       -2 0.34260736E+00 0.19185940E+04</pdfrwt>
<totfact> 0.12444514E+00</totfact>
</mgrwt>
</event>
<event>
 6    1  0.1817112E-005  0.4278906E+04  0.7818608E-02  0.7950530E-01
         -2   -1    0    0    0  501 -0.00000000000E+00  0.00000000000E+00  0.17940270378E+04  0.17940270378E+04  0.00000000000E+00 0.  1.
          2   -1    0    0  501    0  0.00000000000E+00 -0.00000000000E+00 -0.25513875502E+04  0.25513875502E+04  0.00000000000E+00 0. -1.
         23    2    1    2    0    0  0.53612423808E+03  0.69551500487E+03 -0.23589640724E+04  0.25188592825E+04  0.93649715822E+02 0.  0.
         11    1    3    3    0    0  0.37768232211E+03  0.45782556969E+03 -0.17007193380E+04  0.18013035434E+04  0.00000000000E+00 0. -1.
        -11    1    3    3    0    0  0.15844191597E+03  0.23768943518E+03 -0.65824473441E+03  0.71755573910E+03  0.00000000000E+00 0.  1.
         22    1    1    2    0    0 -0.53612423808E+03 -0.69551500487E+03  0.16016035601E+04  0.18265553056E+04  0.00000000000E+00 0.  1.
<mgrwt>
<rscale>  0 0.42789056E+04</rscale>
<asrwt>0</asrwt>
<pdfrwt beam="1">  1        2 0.39252116E+00 0.42789056E+04</pdfrwt>
<pdfrwt beam="2">  1       -2 0.27600416E+00 0.42789056E+04</pdfrwt>
<totfact> 0.11164573E-01</totfact>
</mgrwt>
</event>
<event>
 6    1  0.1817112E-005  0.1048567E+04  0.7818608E-02  0.9256824E-01
         -1   -1    0    0    0  501 -0.00000000000E+00  0.00000000000E+00  0.58031652639E+03  0.58031652639E+03  0.00000000000E+00 0.  1.
          1   -1    0    0  501    0  0.00000000000E+00 -0.00000000000E+00 -0.47366121048E+03  0.47366121048E+03  0.00000000000E+00 0. -1.
         23    2    1    2    0    0 -0.50977708397E+03 -0.66197639673E+02 -0.27639635288E+02  0.52266809385E+03  0.90350340605E+02 0.  0.
         13    1    3    3    0    0 -0.34303560787E+03 -0.43155378925E+02  0.24075812684E+02  0.34657677324E+03  0.00000000000E+00 0.  1.
        -13    1    3    3    0    0 -0.16674147611E+03 -0.23042260747E+02 -0.51715447971E+02  0.17609132061E+03  0.00000000000E+00 0. -1.
         22    1    1    2    0    0  0.50977708397E+03  0.66197639673E+02  0.13429495120E+03  0.53130964302E+03  0.00000000000E+00 0. -1.
<mgrwt>
<rscale>  0 0.10485675E+04</rscale>
<asrwt>0</asrwt>
<pdfrwt beam="1">  1        1 0.72870956E-01 0.10485675E+04</pdfrwt>
<pdfrwt beam="2">  1       -1 0.89279465E-01 0.10485675E+04</pdfrwt>
<totfact> 0.58731509E+01</totfact>
</mgrwt>
</event>
<event>
 6    1  0.1817112E-005  0.2724900E+04  0.7818608E-02  0.8326971E-01
          2   -1    0    0  501    0  0.00000000000E+00  0.00000000000E+00  0.20778738203E+04  0.20778738203E+04  0.00000000000E+00 0. -1.
         -2   -1    0    0    0  501 -0.00000000000E+00 -0.00000000000E+00 -0.89335089347E+03  0.89335089347E+03  0.00000000000E+00 0.  1.
         23    2    1    2    0    0  0.51579052257E+03 -0.12349053948E+03  0.19596201992E+04  0.20320412609E+04  0.88264287979E+02 0.  0.
         13    1    3    3    0    0  0.41605658969E+03 -0.13280527552E+03  0.16342917148E+04  0.16916411369E+04  0.00000000000E+00 0.  1.
        -13    1    3    3    0    0  0.99733932877E+02  0.93147360430E+01  0.32532848438E+03  0.34040012401E+03  0.00000000000E+00 0. -1.
         22    1    1    2    0    0 -0.51579052257E+03  0.12349053948E+03 -0.77509727234E+03  0.93918345285E+03  0.00000000000E+00 0.  1.
<mgrwt>
<rscale>  0 0.27249003E+04</rscale>
<asrwt>0</asrwt>
<pdfrwt beam="1">  1        2 0.31967289E+00 0.27249003E+04</pdfrwt>
<pdfrwt beam="2">  1       -2 0.13743860E+00 0.27249003E+04</pdfrwt>
<totfact> 0.19943403E+00</totfact>
</mgrwt>
</event>
<event>
 6    1  0.1817112E-005  0.1299985E+04  0.7818608E-02  0.9029577E-01
          2   -1    0    0  501    0  0.00000000000E+00  0.00000000000E+00  0.54291773332E+03  0.54291773332E+03  0.00000000000E+00 0. -1.
         -2   -1    0    0    0  501 -0.00000000000E+00 -0.00000000000E+00 -0.77818426775E+03  0.77818426775E+03  0.00000000000E+00 0.  1.
         23    2    1    2    0    0  0.33830804726E+03 -0.52520119231E+03 -0.28860053967E+03  0.69409869697E+03  0.90521281375E+02 0.  0.
         11    1    3    3    0    0  0.18909851385E+03 -0.24316217143E+03 -0.18148326790E+03  0.35752239941E+03  0.00000000000E+00 0.  1.
        -11    1    3    3    0    0  0.14920953341E+03 -0.28203902089E+03 -0.10711727177E+03  0.33657629755E+03  0.00000000000E+00 0. -1.
         22    1    1    2    0    0 -0.33830804726E+03  0.52520119231E+03  0.53334005243E+02  0.62700330411E+03  0.00000000000E+00 0. -1.
<mgrwt>
<rscale>  0 0.12999847E+04</rscale>
<asrwt>0</asrwt>
<pdfrwt beam="1">  1        2 0.83525805E-01 0.12999847E+04</pdfrwt>
<pdfrwt beam="2">  1       -2 0.11972066E+00 0.12999847E+04</pdfrwt>
<totfact> 0.29258453E+01</totfact>
</mgrwt>
</event>
<event>
 6    1  0.1817112E-005  0.6927447E+03  0.7818608E-02  0.9729721E-01
         -2   -1    0    0    0  501 -0.00000000000E+00  0.00000000000E+00  0.14967475741E+03  0.14967475741E+03  0.00000000000E+00 0.  1.
          2   -1    0    0  501    0  0.00000000000E+00 -0.00000000000E+00 -0.80156332704E+03  0.80156332704E+03  0.00000000000E+00 0. -1.
         23    2    1    2    0    0 -0.16790544718E+03 -0.26820980321E+03 -0.50377356692E+03  0.60185750148E+03  0.91191598444E+02 0.  0.
         13    1    3    3    0    0 -0.84502367595E+02 -0.11419163975E+03 -0.30792394659E+03  0.33911286853E+03  0.00000000000E+00 0.  1.
        -13    1    3    3    0    0 -0.83403079582E+02 -0.15401816347E+03 -0.19584962033E+03  0.26274463295E+03  0.00000000000E+00 0. -1.
         22    1    1    2    0    0  0.16790544718E+03  0.26820980321E+03 -0.14811500271E+03  0.34938058297E+03  0.00000000000E+00 0.  1.
<mgrwt>
<rscale>  0 0.69274468E+03</rscale>
<asrwt>0</asrwt>
<pdfrwt beam="1">  1        2 0.12331743E+00 0.69274468E+03</pdfrwt>
<pdfrwt beam="2">  1       -2 0.23026886E-01 0.69274468E+03</pdfrwt>
<totfact> 0.57444763E+02</totfact>
</mgrwt>
</event>
<event>
 6    1  0.1817112E-005  0.4404654E+04  0.7818608E-02  0.7927545E-01
         -2   -1    0    0    0  501 -0.00000000000E+00  0.00000000000E+00  0.19562321746E+04  0.19562321746E+04  0.00000000000E+00 0.  1.
          2   -1    0    0  501    0  0.00000000000E+00 -0.00000000000E+00 -0.24793807357E+04  0.24793807357E+04  0.00000000000E+00 0. -1.
         23    2    1    2    0    0  0.24786071858E+03 -0.21115207475E+04 -0.83697581826E+03  0.22865567569E+04  0.88648063035E+02 0.  0.
         13    1    3    3    0    0  0.79696521249E+02 -0.79629756231E+03 -0.35893638658E+03  0.87708418801E+03  0.00000000000E+00 0. -1.
        -13    1    3    3    0    0  0.16816419733E+03 -0.13152231852E+04 -0.47803943168E+03  0.14094725689E+04  0.00000000000E+00 0.  1.
         22    1    1    2    0    0 -0.24786071858E+03  0.21115207475E+04  0.31382725715E+03  0.21490561534E+04  0.00000000000E+00 0. -1.
<mgrwt>
<rscale>  0 0.44046541E+04</rscale>
<asrwt>0</asrwt>
<pdfrwt beam="1">  1        2 0.38144319E+00 0.44046541E+04</pdfrwt>
<pdfrwt beam="2">  1       -2 0.30095880E+00 0.44046541E+04</pdfrwt>
<totfact> 0.85673571E-02</totfact>
</mgrwt>
</event>
<event>
 6    1  0.1817112E-005  0.1890001E+04  0.7818608E-02  0.8659849E-01
          1   -1    0    0  501    0  0.00000000000E+00  0.00000000000E+00  0.95828013143E+03  0.95828013143E+03  0.00000000000E+00 0. -1.
         -1   -1    0    0    0  501 -0.00000000000E+00 -0.00000000000E+00 -0.93190522999E+03  0.93190522999E+03  0.00000000000E+00 0.  1.
         23    2    1    2    0    0 -0.91169553238E+03 -0.22722046808E+03  0.77619103651E+02  0.94920509959E+03  0.11021665464E+03 0.  0.
         11    1    3    3    0    0 -0.32146040238E+03 -0.53581672069E+02  0.72858993671E+02  0.33394044205E+03  0.00000000000E+00 0.  1.
        -11    1    3    3    0    0 -0.59023513001E+03 -0.17363879601E+03  0.47601099797E+01  0.61526465754E+03  0.00000000000E+00 0. -1.
         22    1    1    2    0    0  0.91169553238E+03  0.22722046808E+03 -0.51244202208E+02  0.94098026182E+03  0.00000000000E+00 0.  1.
<mgrwt>
<rscale>  0 0.18900013E+04</rscale>
<asrwt>0</asrwt>
<pdfrwt beam="1">  1        1 0.14742771E+00 0.18900013E+04</pdfrwt>
<pdfrwt beam="2">  1       -1 0.14337004E+00 0.18900013E+04</pdfrwt>
<totfact> 0.60190007E+00</totfact>
</mgrwt>
</event>
<event>
 6    1  0.1817112E-005  0.6383936E+03  0.7818608E-02  0.9828805E-01
         -1   -1    0    0    0  501 -0.00000000000E+00  0.00000000000E+00  0.34999313639E+03  0.34999313639E+03  0.00000000000E+00 0.  1.
          1   -1    0    0  501    0  0.00000000000E+00 -0.00000000000E+00 -0.29111026736E+03  0.29111026736E+03  0.00000000000E+00 0. -1.
         23    2    1    2    0    0  0.25935445273E+03  0.16303502978E+03 -0.33693277955E+02  0.32107919206E+03  0.90063630325E+02 0.  0.
         13    1    3    3    0    0  0.83845888473E+02  0.14597260342E+02  0.14189565050E+02  0.86281845018E+02  0.00000000000E+00 0. -1.
        -13    1    3    3    0    0  0.17550856426E+03  0.14843776944E+03 -0.47882843005E+02  0.23479734704E+03  0.00000000000E+00 0.  1.
         22    1    1    2    0    0 -0.25935445273E+03 -0.16303502978E+03  0.92576146984E+02  0.32002421170E+03  0.00000000000E+00 0.  1.
<mgrwt>
<rscale>  0 0.63839359E+03</rscale>
<asrwt>0</asrwt>
<pdfrwt beam="1">  1        1 0.44786195E-01 0.63839359E+03</pdfrwt>
<pdfrwt beam="2">  1       -1 0.53845098E-01 0.63839359E+03</pdfrwt>
<totfact> 0.32189408E+02</totfact>
</mgrwt>
</event>
<event>
 6    1  0.1817112E-005  0.3289535E+04  0.7818608E-02  0.8165563E-01
          2   -1    0    0  501    0  0.00000000000E+00  0.00000000000E+00  0.18812251564E+04  0.18812251564E+04  0.00000000000E+00 0. -1.
         -2   -1    0    0    0  501 -0.00000000000E+00 -0.00000000000E+00 -0.14380309636E+04  0.14380309636E+04  0.00000000000E+00 0.  1.
         23    2    1    2    0    0 -0.12359645007E+04 -0.62542940391E+03  0.11142929349E+04  0.17800538240E+04  0.90402904444E+02 0.  0.
         13    1    3    3    0    0 -0.94239271440E+03 -0.44975832739E+03  0.87776838861E+03  0.13641348633E+04  0.00000000000E+00 0.  1.
        -13    1    3    3    0    0 -0.29357178633E+03 -0.17567107651E+03  0.23652454628E+03  0.41591896067E+03  0.00000000000E+00 0. -1.
         22    1    1    2    0    0  0.12359645007E+04  0.62542940391E+03 -0.67109874210E+03  0.15392022960E+04  0.00000000000E+00 0.  1.
<mgrwt>
<rscale>  0 0.32895349E+04</rscale>
<asrwt>0</asrwt>
<pdfrwt beam="1">  1        2 0.28941926E+00 0.32895349E+04</pdfrwt>
<pdfrwt beam="2">  1       -2 0.22123553E+00 0.32895349E+04</pdfrwt>
<totfact> 0.63117234E-01</totfact>
</mgrwt>
</event>
<event>
 6    1  0.1817112E-005  0.4195635E+04  0.7818608E-02  0.7966203E-01
         -2   -1    0    0    0  501 -0.00000000000E+00  0.00000000000E+00  0.28632671718E+04  0.28632671718E+04  0.00000000000E+00 0.  1.
          2   -1    0    0  501    0  0.00000000000E+00 -0.00000000000E+00 -0.15369988874E+04  0.15369988874E+04  0.00000000000E+00 0. -1.
         23    2    1    2    0    0 -0.28784850072E+03 -0.12206587190E+04 -0.10988349567E+04  0.16700663966E+04  0.93909740996E+02 0.  0.
         13    1    3    3    0    0 -0.21028991020E+03 -0.10119780308E+04 -0.87290858782E+03  0.13528823983E+04  0.00000000000E+00 0. -1.
        -13    1    3    3    0    0 -0.77558590521E+02 -0.20868068820E+03 -0.22592636892E+03  0.31718399828E+03  0.00000000000E+00 0.  1.
         22    1    1    2    0    0  0.28784850072E+03  0.12206587190E+04  0.24251032411E+04  0.27301996626E+04  0.00000000000E+00 0.  1.
<mgrwt>
<rscale>  0 0.41956351E+04</rscale>
<asrwt>0</asrwt>
<pdfrwt beam="1">  1        2 0.23646137E+00 0.41956351E+04</pdfrwt>
<pdfrwt beam="2">  1       -2 0.44050264E+00 0.41956351E+04</pdfrwt>
<totfact> 0.37695454E-02</totfact>
</mgrwt>
</event>
<event>
 6    1  0.1817112E-005  0.3991437E+04  0.7818608E-02  0.8006276E-01
         -2   -1    0    0    0  501 -0.00000000000E+00  0.00000000000E+00  0.18876955763E+04  0.18876955763E+04  0.00000000000E+00 0.  1.
          2   -1    0    0  501    0  0.00000000000E+00 -0.00000000000E+00 -0.21099230719E+04  0.21099230719E+04  0.00000000000E+00 0. -1.
         23    2    1    2    0    0 -0.91676072333E+03  0.10049151984E+04 -0.15721887875E+04  0.20811896072E+04  0.96269505597E+02 0.  0.
         11    1    3    3    0    0 -0.74339962337E+02  0.10076809807E+03 -0.10946538126E+03  0.16632290667E+03  0.00000000000E+00 0. -1.
        -11    1    3    3    0    0 -0.84242076099E+03  0.90414710034E+03 -0.14627234062E+04  0.19148667005E+04  0.00000000000E+00 0.  1.
         22    1    1    2    0    0  0.91676072333E+03 -0.10049151984E+04  0.13499612919E+04  0.19164290410E+04  0.00000000000E+00 0.  1.
<mgrwt>
<rscale>  0 0.39914371E+04</rscale>
<asrwt>0</asrwt>
<pdfrwt beam="1">  1        2 0.32460355E+00 0.39914371E+04</pdfrwt>
<pdfrwt beam="2">  1       -2 0.29041471E+00 0.39914371E+04</pdfrwt>
<totfact> 0.16660217E-01</totfact>
</mgrwt>
</event>
<event>
 6    1  0.1817112E-005  0.2851815E+04  0.7818608E-02  0.8287360E-01
         -2   -1    0    0    0  501 -0.00000000000E+00  0.00000000000E+00  0.57141321302E+03  0.57141321302E+03  0.00000000000E+00 0.  1.
          2   -1    0    0  501    0  0.00000000000E+00 -0.00000000000E+00 -0.35582175954E+04  0.35582175954E+04  0.00000000000E+00 0. -1.
         23    2    1    2    0    0  0.42744075366E+03  0.11606989462E+04 -0.47191506939E+03  0.13270256100E+04  0.91463080938E+02 0.  0.
         11    1    3    3    0    0  0.27062352053E+03  0.73508506684E+03 -0.25134791968E+03  0.82265601687E+03  0.00000000000E+00 0. -1.
        -11    1    3    3    0    0  0.15681723313E+03  0.42561387939E+03 -0.22056714971E+03  0.50436959312E+03  0.00000000000E+00 0.  1.
         22    1    1    2    0    0 -0.42744075366E+03 -0.11606989462E+04 -0.25148893130E+04  0.28026051984E+04  0.00000000000E+00 0. -1.
<mgrwt>
<rscale>  0 0.28518152E+04</rscale>
<asrwt>0</asrwt>
<pdfrwt beam="1">  1        2 0.54741809E+00 0.28518152E+04</pdfrwt>
<pdfrwt beam="2">  1       -2 0.87909725E-01 0.28518152E+04</pdfrwt>
<totfact> 0.71468262E-01</totfact>
</mgrwt>
</event>
<event>
 6    1  0.1817112E-005  0.2958334E+04  0.7818608E-02  0.8255730E-01
          2   -1    0    0  501    0  0.00000000000E+00  0.00000000000E+00  0.37691137358E+04  0.37691137358E+04  0.00000000000E+00 0. -1.
         -2   -1    0    0    0  501 -0.00000000000E+00 -0.00000000000E+00 -0.58049068991E+03  0.58049068991E+03  0.00000000000E+00 0.  1.
         23    2    1    2    0    0  0.77243641944E+03 -0.39131421019E+03 -0.16493384357E+03  0.88606163776E+03  0.90095615776E+02 0.  0.
         11    1    3    3    0    0  0.46905056925E+03 -0.19326762024E+03 -0.11672422387E+03  0.52056253609E+03  0.00000000000E+00 0. -1.
        -11    1    3    3    0    0  0.30338585019E+03 -0.19804658996E+03 -0.48209619702E+02  0.36549910167E+03  0.00000000000E+00 0.  1.
         22    1    1    2    0    0 -0.77243641944E+03  0.39131421019E+03  0.33535568894E+04  0.34635427879E+04  0.00000000000E+00 0. -1.
<mgrwt>
<rscale>  0 0.29583343E+04</rscale>
<asrwt>0</asrwt>
<pdfrwt beam="1">  1        2 0.57986364E+00 0.29583343E+04</pdfrwt>
<pdfrwt beam="2">  1       -2 0.89306262E-01 0.29583343E+04</pdfrwt>
<totfact> 0.47870430E-01</totfact>
</mgrwt>
</event>
<event>
 6    1  0.1817112E-005  0.2338402E+04  0.7818608E-02  0.8462932E-01
          1   -1    0    0  501    0  0.00000000000E+00  0.00000000000E+00  0.11505816543E+04  0.11505816543E+04  0.00000000000E+00 0. -1.
         -1   -1    0    0    0  501 -0.00000000000E+00 -0.00000000000E+00 -0.11881211741E+04  0.11881211741E+04  0.00000000000E+00 0.  1.
         23    2    1    2    0    0 -0.16377163116E+03 -0.11362225318E+04 -0.23102354885E+03  0.11745469718E+04  0.91465402871E+02 0.  0.
         13    1    3    3    0    0 -0.26023977619E+02 -0.42636261169E+03 -0.11328642200E+03  0.44192322576E+03  0.00000000000E+00 0. -1.
        -13    1    3    3    0    0 -0.13774765354E+03 -0.70985992007E+03 -0.11773712685E+03  0.73262374601E+03  0.00000000000E+00 0.  1.
         22    1    1    2    0    0  0.16377163116E+03  0.11362225318E+04  0.19348402905E+03  0.11641558566E+04  0.00000000000E+00 0. -1.
<mgrwt>
<rscale>  0 0.23384015E+04</rscale>
<asrwt>0</asrwt>
<pdfrwt beam="1">  1        1 0.17701256E+00 0.23384015E+04</pdfrwt>
<pdfrwt beam="2">  1       -1 0.18278787E+00 0.23384015E+04</pdfrwt>
<totfact> 0.20808648E+00</totfact>
</mgrwt>
</event>
<event>
 6    1  0.1817112E-005  0.1299402E+04  0.7818608E-02  0.9030039E-01
          1   -1    0    0  501    0  0.00000000000E+00  0.00000000000E+00  0.12932257463E+04  0.12932257463E+04  0.00000000000E+00 0. -1.
         -1   -1    0    0    0  501 -0.00000000000E+00 -0.00000000000E+00 -0.32640208437E+03  0.32640208437E+03  0.00000000000E+00 0.  1.
         23    2    1    2    0    0 -0.32580540483E+03  0.55736225727E+03  0.52952483260E+03  0.83986369083E+03  0.90402561857E+02 0.  0.
         11    1    3    3    0    0 -0.12334805071E+03  0.30058005182E+03  0.26347578042E+03  0.41830921103E+03  0.00000000000E+00 0.  1.
        -11    1    3    3    0    0 -0.20245735412E+03  0.25678220545E+03  0.26604905218E+03  0.42155447980E+03  0.00000000000E+00 0. -1.
         22    1    1    2    0    0  0.32580540483E+03 -0.55736225727E+03  0.43729882933E+03  0.77976413984E+03  0.00000000000E+00 0. -1.
<mgrwt>
<rscale>  0 0.12994023E+04</rscale>
<asrwt>0</asrwt>
<pdfrwt beam="1">  1        1 0.19895780E+00 0.12994023E+04</pdfrwt>
<pdfrwt beam="2">  1       -1 0.50215706E-01 0.12994023E+04</pdfrwt>
<totfact> 0.35773554E+01</totfact>
</mgrwt>
</event>
<event>
 6    1  0.1817112E-005  0.2762832E+04  0.7818608E-02  0.8314901E-01
         -2   -1    0    0    0  501 -0.00000000000E+00  0.00000000000E+00  0.84536179394E+03  0.84536179394E+03  0.00000000000E+00 0.  1.
          2   -1    0    0  501    0  0.00000000000E+00 -0.00000000000E+00 -0.22573892948E+04  0.22573892948E+04  0.00000000000E+00 0. -1.
         23    2    1    2    0    0  0.10736964860E+04  0.15723445956E+03 -0.16640312109E+04  0.19887256451E+04  0.92103209227E+02 0.  0.
         11    1    3    3    0    0  0.98499690265E+03  0.14890025948E+03 -0.14768646406E+04  0.17814374399E+04  0.00000000000E+00 0.  1.
        -11    1    3    3    0    0  0.88699583378E+02  0.83342000766E+01 -0.18716657025E+03  0.20728820517E+03  0.00000000000E+00 0. -1.
         22    1    1    2    0    0 -0.10736964860E+04 -0.15723445956E+03  0.25200370998E+03  0.11140254437E+04  0.00000000000E+00 0.  1.
<mgrwt>
<rscale>  0 0.27628324E+04</rscale>
<asrwt>0</asrwt>
<pdfrwt beam="1">  1        2 0.34729066E+00 0.27628324E+04</pdfrwt>
<pdfrwt beam="2">  1       -2 0.13005566E+00 0.27628324E+04</pdfrwt>
<totfact> 0.18146180E+00</totfact>
</mgrwt>
</event>
<event>
 6    1  0.1817112E-005  0.2057220E+04  0.7818608E-02  0.8580326E-01
         -2   -1    0    0    0  501 -0.00000000000E+00  0.00000000000E+00  0.39046207601E+03  0.39046207601E+03  0.00000000000E+00 0. -1.
          2   -1    0    0  501    0  0.00000000000E+00 -0.00000000000E+00 -0.27097079740E+04  0.27097079740E+04  0.00000000000E+00 0.  1.
         23    2    1    2    0    0  0.33845807390E+03 -0.82177480604E+03 -0.19368224976E+04  0.21326395044E+04  0.83678961914E+02 0.  0.
         13    1    3    3    0    0  0.14341223526E+03 -0.29210528384E+03 -0.79158165865E+03  0.85585868482E+03  0.00000000000E+00 0.  1.
        -13    1    3    3    0    0  0.19504583863E+03 -0.52966952221E+03 -0.11452408390E+04  0.12767808196E+04  0.00000000000E+00 0. -1.
         22    1    1    2    0    0 -0.33845807390E+03  0.82177480604E+03 -0.38242340040E+03  0.96753054567E+03  0.00000000000E+00 0. -1.
<mgrwt>
<rscale>  0 0.20572197E+04</rscale>
<asrwt>0</asrwt>
<pdfrwt beam="1">  1        2 0.41687816E+00 0.20572197E+04</pdfrwt>
<pdfrwt beam="2">  1       -2 0.60071087E-01 0.20572197E+04</pdfrwt>
<totfact> 0.62661195E+00</totfact>
</mgrwt>
</event>
<event>
 6    1  0.1817112E-005  0.2239837E+04  0.7818608E-02  0.8502028E-01
         -1   -1    0    0    0  501 -0.00000000000E+00  0.00000000000E+00  0.39484765805E+04  0.39484765805E+04  0.00000000000E+00 0.  1.
          1   -1    0    0  501    0  0.00000000000E+00 -0.00000000000E+00 -0.31764597209E+03  0.31764597209E+03  0.00000000000E+00 0. -1.
         23    2    1    2    0    0  0.18345829462E+02  0.67342924590E+03  0.35179274498E+04  0.35830481482E+04  0.92611940522E+02 0.  0.
         11    1    3    3    0    0  0.55590998982E+02  0.44036088055E+03  0.23302549613E+04  0.23721501320E+04  0.00000000000E+00 0. -1.
        -11    1    3    3    0    0 -0.37245169519E+02  0.23306836535E+03  0.11876724885E+04  0.12108980162E+04  0.00000000000E+00 0.  1.
         22    1    1    2    0    0 -0.18345829462E+02 -0.67342924590E+03  0.11290315859E+03  0.68307440438E+03  0.00000000000E+00 0. -1.
<mgrwt>
<rscale>  0 0.22398372E+04</rscale>
<asrwt>0</asrwt>
<pdfrwt beam="1">  1        1 0.48868614E-01 0.22398372E+04</pdfrwt>
<pdfrwt beam="2">  1       -1 0.60745790E+00 0.22398372E+04</pdfrwt>
<totfact> 0.29855129E-02</totfact>
</mgrwt>
</event>
<event>
 6    1  0.1817112E-005  0.2968822E+04  0.7818608E-02  0.8252690E-01
         -2   -1    0    0    0  501 -0.00000000000E+00  0.00000000000E+00  0.10846361832E+04  0.10846361832E+04  0.00000000000E+00 0.  1.
          2   -1    0    0  501    0  0.00000000000E+00 -0.00000000000E+00 -0.20315341827E+04  0.20315341827E+04  0.00000000000E+00 0. -1.
         23    2    1    2    0    0  0.24079798327E+03  0.27959072089E+03 -0.19818970239E+04  0.20173630032E+04  0.75385894818E+02 0.  0.
         11    1    3    3    0    0  0.10131418395E+03  0.17170582016E+03 -0.98151521115E+03  0.10015585666E+04  0.00000000000E+00 0.  1.
        -11    1    3    3    0    0  0.13948379932E+03  0.10788490073E+03 -0.10003818128E+04  0.10158044366E+04  0.00000000000E+00 0. -1.
         22    1    1    2    0    0 -0.24079798327E+03 -0.27959072089E+03  0.10349990244E+04  0.10988073628E+04  0.00000000000E+00 0.  1.
<mgrwt>
<rscale>  0 0.29688216E+04</rscale>
<asrwt>0</asrwt>
<pdfrwt beam="1">  1        2 0.31254372E+00 0.29688216E+04</pdfrwt>
<pdfrwt beam="2">  1       -2 0.16686711E+00 0.29688216E+04</pdfrwt>
<totfact> 0.12359562E+00</totfact>
</mgrwt>
</event>
<event>
 6    1  0.1817112E-005  0.1546626E+04  0.7818608E-02  0.8854026E-01
         -2   -1    0    0    0  501 -0.00000000000E+00  0.00000000000E+00  0.19958060795E+03  0.19958060795E+03  0.00000000000E+00 0. -1.
          2   -1    0    0  501    0  0.00000000000E+00 -0.00000000000E+00 -0.29963469465E+04  0.29963469465E+04  0.00000000000E+00 0.  1.
         23    2    1    2    0    0 -0.37592192282E+02  0.76658429981E+03 -0.12299611838E+04  0.14512375950E+04  0.64972162118E+02 0.  0.
         13    1    3    3    0    0 -0.13265932441E+02  0.70889013094E+02 -0.87352310949E+02  0.11327693220E+03  0.00000000000E+00 0.  1.
        -13    1    3    3    0    0 -0.24326259842E+02  0.69569528672E+03 -0.11426088729E+04  0.13379606628E+04  0.00000000000E+00 0. -1.
         22    1    1    2    0    0  0.37592192282E+02 -0.76658429981E+03 -0.15668051547E+04  0.17446899594E+04  0.00000000000E+00 0.  1.
<mgrwt>
<rscale>  0 0.15466257E+04</rscale>
<asrwt>0</asrwt>
<pdfrwt beam="1">  1        2 0.46097648E+00 0.15466257E+04</pdfrwt>
<pdfrwt beam="2">  1       -2 0.30704707E-01 0.15466257E+04</pdfrwt>
<totfact> 0.16656476E+01</totfact>
</mgrwt>
</event>
<event>
 6    1  0.1817112E-005  0.5440288E+04  0.7818608E-02  0.7763959E-01
          2   -1    0    0  501    0  0.00000000000E+00  0.00000000000E+00  0.36398791284E+04  0.36398791284E+04  0.00000000000E+00 0. -1.
         -2   -1    0    0    0  501 -0.00000000000E+00 -0.00000000000E+00 -0.20328102924E+04  0.20328102924E+04  0.00000000000E+00 0.  1.
         23    2    1    2    0    0 -0.69307508082E+03 -0.46502496375E+03 -0.18948332021E+04  0.20727006474E+04  0.95361550806E+02 0.  0.
         11    1    3    3    0    0 -0.40478218304E+02 -0.58560866534E+02 -0.16630448274E+03  0.18090064187E+03  0.00000000000E+00 0. -1.
        -11    1    3    3    0    0 -0.65259686251E+03 -0.40646409722E+03 -0.17285287193E+04  0.18918000055E+04  0.00000000000E+00 0.  1.
         22    1    1    2    0    0  0.69307508082E+03  0.46502496375E+03  0.35019020380E+04  0.35999887734E+04  0.00000000000E+00 0. -1.
<mgrwt>
<rscale>  0 0.54402881E+04</rscale>
<asrwt>0</asrwt>
<pdfrwt beam="1">  1        2 0.55998140E+00 0.54402881E+04</pdfrwt>
<pdfrwt beam="2">  1       -2 0.31274005E+00 0.54402881E+04</pdfrwt>
<totfact> 0.12024618E-02</totfact>
</mgrwt>
</event>
<event>
 6    1  0.1817112E-005  0.1034882E+04  0.7818608E-02  0.9271093E-01
          1   -1    0    0  501    0  0.00000000000E+00  0.00000000000E+00  0.16591932879E+04  0.16591932879E+04  0.00000000000E+00 0. -1.
         -1   -1    0    0    0  501 -0.00000000000E+00 -0.00000000000E+00 -0.16137063762E+03  0.16137063762E+03  0.00000000000E+00 0.  1.
         23    2    1    2    0    0 -0.86118444164E+02  0.24772100349E+03 -0.21674823696E+02  0.27859938137E+03  0.91464393732E+02 0.  0.
         13    1    3    3    0    0 -0.47593631680E+02  0.10824647230E+03 -0.54535921013E+02  0.13021758415E+03  0.00000000000E+00 0. -1.
        -13    1    3    3    0    0 -0.38524812484E+02  0.13947453119E+03  0.32861097318E+02  0.14838179722E+03  0.00000000000E+00 0.  1.
         22    1    1    2    0    0  0.86118444164E+02 -0.24772100349E+03  0.15194974739E+04  0.15419645441E+04  0.00000000000E+00 0. -1.
<mgrwt>
<rscale>  0 0.10348818E+04</rscale>
<asrwt>0</asrwt>
<pdfrwt beam="1">  1        1 0.25526049E+00 0.10348818E+04</pdfrwt>
<pdfrwt beam="2">  1       -1 0.24826253E-01 0.10348818E+04</pdfrwt>
<totfact> 0.72142606E+01</totfact>
</mgrwt>
</event>
<event>
 6    1  0.1817112E-005  0.3845332E+04  0.7818608E-02  0.8036496E-01
          2   -1    0    0  501    0  0.00000000000E+00  0.00000000000E+00  0.39488159921E+04  0.39488159921E+04  0.00000000000E+00 0. -1.
         -2   -1    0    0    0  501 -0.00000000000E+00 -0.00000000000E+00 -0.93614022143E+03  0.93614022143E+03  0.00000000000E+00 0.  1.
         23    2    1    2    0    0 -0.84172891889E+03  0.11396157351E+04 -0.14201409149E+03  0.14267341670E+04  0.90392391352E+02 0.  0.
         13    1    3    3    0    0 -0.51607465550E+03  0.74601550316E+03 -0.57571381202E+02  0.90894809804E+03  0.00000000000E+00 0.  1.
        -13    1    3    3    0    0 -0.32565426340E+03  0.39360023199E+03 -0.84442710284E+02  0.51778606896E+03  0.00000000000E+00 0. -1.
         22    1    1    2    0    0  0.84172891889E+03 -0.11396157351E+04  0.31546898621E+04  0.34582220465E+04  0.00000000000E+00 0. -1.
<mgrwt>
<rscale>  0 0.38453325E+04</rscale>
<asrwt>0</asrwt>
<pdfrwt beam="1">  1        2 0.60751014E+00 0.38453325E+04</pdfrwt>
<pdfrwt beam="2">  1       -2 0.14402157E+00 0.38453325E+04</pdfrwt>
<totfact> 0.99891596E-02</totfact>
</mgrwt>
</event>
<event>
 6    1  0.1817112E-005  0.6302607E+03  0.7818608E-02  0.9844540E-01
          1   -1    0    0  501    0  0.00000000000E+00  0.00000000000E+00  0.14789746112E+04  0.14789746112E+04  0.00000000000E+00 0. -1.
         -1   -1    0    0    0  501 -0.00000000000E+00 -0.00000000000E+00 -0.67145928015E+02  0.67145928015E+02  0.00000000000E+00 0.  1.
         23    2    1    2    0    0  0.11609805393E+03  0.22840946120E+03  0.29896114141E+03  0.40413813759E+03  0.91105598574E+02 0.  0.
         11    1    3    3    0    0  0.67875033085E+02  0.65953512395E+02  0.63241804407E+02  0.11382623484E+03  0.00000000000E+00 0.  1.
        -11    1    3    3    0    0  0.48223020840E+02  0.16245594880E+03  0.23571933700E+03  0.29031190275E+03  0.00000000000E+00 0. -1.
         22    1    1    2    0    0 -0.11609805393E+03 -0.22840946120E+03  0.11128675418E+04  0.11419824016E+04  0.00000000000E+00 0. -1.
<mgrwt>
<rscale>  0 0.63026065E+03</rscale>
<asrwt>0</asrwt>
<pdfrwt beam="1">  1        1 0.22753453E+00 0.63026065E+03</pdfrwt>
<pdfrwt beam="2">  1       -1 0.10330144E-01 0.63026065E+03</pdfrwt>
<totfact> 0.41544274E+02</totfact>
</mgrwt>
</event>
<event>
 6    1  0.1999811E-005  0.3620321E+04  0.7818608E-02  0.8085853E-01
         -2   -1    0    0    0  501 -0.00000000000E+00  0.00000000000E+00  0.19627836561E+04  0.19627836561E+04  0.00000000000E+00 0.  1.
          2   -1    0    0  501    0  0.00000000000E+00 -0.00000000000E+00 -0.16694051699E+04  0.16694051699E+04  0.00000000000E+00 0. -1.
         23    2    1    2    0    0  0.11391709716E+04 -0.98242374949E+03  0.11549753949E+04  0.18986328969E+04  0.89284870006E+02 0.  0.
         13    1    3    3    0    0  0.27642472760E+03 -0.24085897617E+03  0.33080647978E+03  0.49381839121E+03  0.00000000000E+00 0.  1.
        -13    1    3    3    0    0  0.86274624403E+03 -0.74156477333E+03  0.82416891515E+03  0.14048145057E+04  0.00000000000E+00 0. -1.
         22    1    1    2    0    0 -0.11391709716E+04  0.98242374949E+03 -0.86159690870E+03  0.17335559291E+04  0.00000000000E+00 0. -1.
<mgrwt>
<rscale>  0 0.36203211E+04</rscale>
<asrwt>0</asrwt>
<pdfrwt beam="1">  1        2 0.25683157E+00 0.36203211E+04</pdfrwt>
<pdfrwt beam="2">  1       -2 0.30196672E+00 0.36203211E+04</pdfrwt>
<totfact> 0.25654009E-01</totfact>
</mgrwt>
</event>
<event>
 6    1  0.1817112E-005  0.1930244E+04  0.7818608E-02  0.8639947E-01
          2   -1    0    0  501    0  0.00000000000E+00  0.00000000000E+00  0.18921239025E+04  0.18921239025E+04  0.00000000000E+00 0. -1.
         -2   -1    0    0    0  501 -0.00000000000E+00 -0.00000000000E+00 -0.49228279009E+03  0.49228279009E+03  0.00000000000E+00 0.  1.
         23    2    1    2    0    0  0.45205715806E+03 -0.78022643638E+03  0.28396303893E+03  0.94973152342E+03  0.90807449676E+02 0.  0.
         11    1    3    3    0    0  0.24915833647E+03 -0.40546404684E+03  0.10401584158E+03  0.48713475057E+03  0.00000000000E+00 0. -1.
        -11    1    3    3    0    0  0.20289882159E+03 -0.37476238954E+03  0.17994719735E+03  0.46259677285E+03  0.00000000000E+00 0.  1.
         22    1    1    2    0    0 -0.45205715806E+03  0.78022643638E+03  0.11158780735E+04  0.14346751692E+04  0.00000000000E+00 0. -1.
<mgrwt>
<rscale>  0 0.19302435E+04</rscale>
<asrwt>0</asrwt>
<pdfrwt beam="1">  1        2 0.29109598E+00 0.19302435E+04</pdfrwt>
<pdfrwt beam="2">  1       -2 0.75735815E-01 0.19302435E+04</pdfrwt>
<totfact> 0.11196667E+01</totfact>
</mgrwt>
</event>
<event>
 6    1  0.1817112E-005  0.1821601E+04  0.7818608E-02  0.8694896E-01
          2   -1    0    0  501    0  0.00000000000E+00  0.00000000000E+00  0.10000858858E+04  0.10000858858E+04  0.00000000000E+00 0. -1.
         -2   -1    0    0    0  501 -0.00000000000E+00 -0.00000000000E+00 -0.82948670333E+03  0.82948670333E+03  0.00000000000E+00 0.  1.
         23    2    1    2    0    0 -0.47774850075E+02 -0.31907005358E+03 -0.76749256321E+03  0.83755229766E+03  0.91437855081E+02 0.  0.
         11    1    3    3    0    0 -0.30938111850E+02 -0.67831326040E+02 -0.26804954457E+03  0.27822439487E+03  0.00000000000E+00 0.  1.
        -11    1    3    3    0    0 -0.16836738225E+02 -0.25123872754E+03 -0.49944301864E+03  0.55932790279E+03  0.00000000000E+00 0. -1.
         22    1    1    2    0    0  0.47774850075E+02  0.31907005358E+03  0.93809174563E+03  0.99202029143E+03  0.00000000000E+00 0. -1.
<mgrwt>
<rscale>  0 0.18216014E+04</rscale>
<asrwt>0</asrwt>
<pdfrwt beam="1">  1        2 0.15385937E+00 0.18216014E+04</pdfrwt>
<pdfrwt beam="2">  1       -2 0.12761334E+00 0.18216014E+04</pdfrwt>
<totfact> 0.10803274E+01</totfact>
</mgrwt>
</event>
<event>
 6    1  0.1817112E-005  0.2295529E+04  0.7818608E-02  0.8479686E-01
          2   -1    0    0  501    0  0.00000000000E+00  0.00000000000E+00  0.22344085193E+04  0.22344085193E+04  0.00000000000E+00 0. -1.
         -2   -1    0    0    0  501 -0.00000000000E+00 -0.00000000000E+00 -0.58958018125E+03  0.58958018125E+03  0.00000000000E+00 0.  1.
         23    2    1    2    0    0  0.71324002916E+03  0.40653013922E+03  0.18072945028E+04  0.19871055856E+04  0.91088392813E+02 0.  0.
         13    1    3    3    0    0  0.43547370091E+03  0.23133516295E+03  0.11842588247E+04  0.12828180954E+04  0.00000000000E+00 0. -1.
        -13    1    3    3    0    0  0.27776632826E+03  0.17519497628E+03  0.62303567806E+03  0.70428749027E+03  0.00000000000E+00 0.  1.
         22    1    1    2    0    0 -0.71324002916E+03 -0.40653013922E+03 -0.16246616478E+03  0.83688311490E+03  0.00000000000E+00 0.  1.
<mgrwt>
<rscale>  0 0.22955287E+04</rscale>
<asrwt>0</asrwt>
<pdfrwt beam="1">  1        2 0.34375515E+00 0.22955287E+04</pdfrwt>
<pdfrwt beam="2">  1       -2 0.90704644E-01 0.22955287E+04</pdfrwt>
<totfact> 0.46479810E+00</totfact>
</mgrwt>
</event>
<event>
 6    1  0.1817112E-005  0.1800540E+04  0.7818608E-02  0.8706012E-01
         -2   -1    0    0    0  501 -0.00000000000E+00  0.00000000000E+00  0.16807099766E+04  0.16807099766E+04  0.00000000000E+00 0.  1.
          2   -1    0    0  501    0  0.00000000000E+00 -0.00000000000E+00 -0.48222831520E+03  0.48222831520E+03  0.00000000000E+00 0. -1.
         23    2    1    2    0    0  0.23500634646E+02  0.59264122910E+03 -0.20902022625E+03  0.63557537814E+03  0.92144994758E+02 0.  0.
         13    1    3    3    0    0 -0.21531622644E+02  0.28799278574E+03 -0.13528182079E+03  0.31891162796E+03  0.00000000000E+00 0. -1.
        -13    1    3    3    0    0  0.45032257290E+02  0.30464844336E+03 -0.73738405461E+02  0.31666375018E+03  0.00000000000E+00 0.  1.
         22    1    1    2    0    0 -0.23500634646E+02 -0.59264122910E+03  0.14075018877E+04  0.15273629137E+04  0.00000000000E+00 0.  1.
<mgrwt>
<rscale>  0 0.18005399E+04</rscale>
<asrwt>0</asrwt>
<pdfrwt beam="1">  1        2 0.74188972E-01 0.18005399E+04</pdfrwt>
<pdfrwt beam="2">  1       -2 0.25857076E+00 0.18005399E+04</pdfrwt>
<totfact> 0.34521025E+00</totfact>
</mgrwt>
</event>
<event>
 6    1  0.1817112E-005  0.3799596E+04  0.7818608E-02  0.8046242E-01
          2   -1    0    0  501    0  0.00000000000E+00  0.00000000000E+00  0.31392012655E+04  0.31392012655E+04  0.00000000000E+00 0. -1.
         -2   -1    0    0    0  501 -0.00000000000E+00 -0.00000000000E+00 -0.11497296206E+04  0.11497296206E+04  0.00000000000E+00 0.  1.
         23    2    1    2    0    0  0.27633066697E+03  0.18610132765E+04  0.12839440694E+04  0.22795782012E+04  0.90748824111E+02 0.  0.
         13    1    3    3    0    0  0.22891209470E+03  0.13414627492E+04  0.89390142909E+03  0.16281839022E+04  0.00000000000E+00 0.  1.
        -13    1    3    3    0    0  0.47418572277E+02  0.51955052732E+03  0.39004264034E+03  0.65139429896E+03  0.00000000000E+00 0. -1.
         22    1    1    2    0    0 -0.27633066697E+03 -0.18610132765E+04  0.70552757542E+03  0.20093526849E+04  0.00000000000E+00 0. -1.
<mgrwt>
<rscale>  0 0.37995961E+04</rscale>
<asrwt>0</asrwt>
<pdfrwt beam="1">  1        2 0.48295404E+00 0.37995961E+04</pdfrwt>
<pdfrwt beam="2">  1       -2 0.17688148E+00 0.37995961E+04</pdfrwt>
<totfact> 0.21684252E-01</totfact>
</mgrwt>
</event>
<event>
 6    1  0.1817112E-005  0.2335333E+04  0.7818608E-02  0.8464119E-01
         -2   -1    0    0    0  501 -0.00000000000E+00  0.00000000000E+00  0.70284371195E+03  0.70284371195E+03  0.00000000000E+00 0.  1.
          2   -1    0    0  501    0  0.00000000000E+00 -0.00000000000E+00 -0.19398980923E+04  0.19398980923E+04  0.00000000000E+00 0. -1.
         23    2    1    2    0    0  0.47100965185E+02 -0.11648092924E+04 -0.61138760344E+03  0.13196930129E+04  0.93785168953E+02 0.  0.
         11    1    3    3    0    0  0.15930609243E+00 -0.33303048499E+03 -0.12994840831E+03  0.35748554955E+03  0.00000000000E+00 0. -1.
        -11    1    3    3    0    0  0.46941659093E+02 -0.83177880743E+03 -0.48143919512E+03  0.96220746331E+03  0.00000000000E+00 0.  1.
         22    1    1    2    0    0 -0.47100965185E+02  0.11648092924E+04 -0.62566677691E+03  0.13230487914E+04  0.00000000000E+00 0.  1.
<mgrwt>
<rscale>  0 0.23353331E+04</rscale>
<asrwt>0</asrwt>
<pdfrwt beam="1">  1        2 0.29844586E+00 0.23353331E+04</pdfrwt>
<pdfrwt beam="2">  1       -2 0.10812980E+00 0.23353331E+04</pdfrwt>
<totfact> 0.44672484E+00</totfact>
</mgrwt>
</event>
<event>
 6    1  0.1817112E-005  0.5844860E+04  0.7818608E-02  0.7709940E-01
         -2   -1    0    0    0  501 -0.00000000000E+00  0.00000000000E+00  0.19944991316E+04  0.19944991316E+04  0.00000000000E+00 0.  1.
          2   -1    0    0  501    0  0.00000000000E+00 -0.00000000000E+00 -0.42820766966E+04  0.42820766966E+04  0.00000000000E+00 0. -1.
         23    2    1    2    0    0  0.12176365723E+04  0.24954004839E+04 -0.21207493567E+04  0.34949406888E+04  0.85849793293E+02 0.  0.
         13    1    3    3    0    0  0.46124280597E+03  0.88042811725E+03 -0.79656197009E+03  0.12737384221E+04  0.00000000000E+00 0.  1.
        -13    1    3    3    0    0  0.75639376636E+03  0.16149723666E+04 -0.13241873866E+04  0.22212022667E+04  0.00000000000E+00 0. -1.
         22    1    1    2    0    0 -0.12176365723E+04 -0.24954004839E+04 -0.16682820829E+03  0.27816351393E+04  0.00000000000E+00 0.  1.
<mgrwt>
<rscale>  0 0.58448604E+04</rscale>
<asrwt>0</asrwt>
<pdfrwt beam="1">  1        2 0.65878103E+00 0.58448604E+04</pdfrwt>
<pdfrwt beam="2">  1       -2 0.30684602E+00 0.58448604E+04</pdfrwt>
<totfact> 0.38367425E-03</totfact>
</mgrwt>
</event>
<event>
 6    1  0.1817112E-005  0.1055521E+04  0.7818608E-02  0.9249662E-01
         -2   -1    0    0    0  501 -0.00000000000E+00  0.00000000000E+00  0.25204436903E+03  0.25204436903E+03  0.00000000000E+00 0.  1.
          2   -1    0    0  501    0  0.00000000000E+00 -0.00000000000E+00 -0.11050877534E+04  0.11050877534E+04  0.00000000000E+00 0. -1.
         23    2    1    2    0    0  0.98905194447E+02 -0.19953884736E+03 -0.10393442744E+04  0.10667771487E+04  0.90437687331E+02 0.  0.
         11    1    3    3    0    0 -0.10933311784E+02 -0.43435425298E+02 -0.29341601346E+03  0.29681497676E+03  0.00000000000E+00 0. -1.
        -11    1    3    3    0    0  0.10983850623E+03 -0.15610342206E+03 -0.74592826092E+03  0.76996217197E+03  0.00000000000E+00 0.  1.
         22    1    1    2    0    0 -0.98905194447E+02  0.19953884736E+03  0.18630089004E+03  0.29035497365E+03  0.00000000000E+00 0.  1.
<mgrwt>
<rscale>  0 0.10555210E+04</rscale>
<asrwt>0</asrwt>
<pdfrwt beam="1">  1        2 0.17001351E+00 0.10555210E+04</pdfrwt>
<pdfrwt beam="2">  1       -2 0.38776056E-01 0.10555210E+04</pdfrwt>
<totfact> 0.13518391E+02</totfact>
</mgrwt>
</event>
<event>
 6    1  0.1817112E-005  0.3959342E+04  0.7818608E-02  0.8012799E-01
         -2   -1    0    0    0  501 -0.00000000000E+00  0.00000000000E+00  0.16252555153E+04  0.16252555153E+04  0.00000000000E+00 0.  1.
          2   -1    0    0  501    0  0.00000000000E+00 -0.00000000000E+00 -0.24113733302E+04  0.24113733302E+04  0.00000000000E+00 0. -1.
         23    2    1    2    0    0 -0.18625746047E+03 -0.17168585534E+04 -0.13765614613E+04  0.22115483449E+04  0.11717291088E+03 0.  0.
         13    1    3    3    0    0 -0.87718929363E+01 -0.49030714739E+03 -0.42765047861E+03  0.65066348964E+03  0.00000000000E+00 0.  1.
        -13    1    3    3    0    0 -0.17748556753E+03 -0.12265514060E+04 -0.94891098268E+03  0.15608848553E+04  0.00000000000E+00 0. -1.
         22    1    1    2    0    0  0.18625746047E+03  0.17168585534E+04  0.59044364636E+03  0.18250805006E+04  0.00000000000E+00 0.  1.
<mgrwt>
<rscale>  0 0.39593423E+04</rscale>
<asrwt>0</asrwt>
<pdfrwt beam="1">  1        2 0.37098051E+00 0.39593423E+04</pdfrwt>
<pdfrwt beam="2">  1       -2 0.25003931E+00 0.39593423E+04</pdfrwt>
<totfact> 0.19908006E-01</totfact>
</mgrwt>
</event>
<event>
 6    1  0.1817112E-005  0.2068842E+04  0.7818608E-02  0.8575094E-01
          2   -1    0    0  501    0  0.00000000000E+00  0.00000000000E+00  0.15733521322E+04  0.15733521322E+04  0.00000000000E+00 0. -1.
         -2   -1    0    0    0  501 -0.00000000000E+00 -0.00000000000E+00 -0.68009383352E+03  0.68009383352E+03  0.00000000000E+00 0.  1.
         23    2    1    2    0    0  0.74048242184E+03 -0.17041157099E+03  0.12086624464E+04  0.14307466907E+04  0.93898153219E+02 0.  0.
         11    1    3    3    0    0  0.24164880645E+03 -0.34610072928E+02  0.31772989936E+03  0.40067978705E+03  0.00000000000E+00 0. -1.
        -11    1    3    3    0    0  0.49883361540E+03 -0.13580149806E+03  0.89093254701E+03  0.10300669037E+04  0.00000000000E+00 0.  1.
         22    1    1    2    0    0 -0.74048242184E+03  0.17041157099E+03 -0.31540414773E+03  0.82269927494E+03  0.00000000000E+00 0.  1.
<mgrwt>
<rscale>  0 0.20688423E+04</rscale>
<asrwt>0</asrwt>
<pdfrwt beam="1">  1        2 0.24205417E+00 0.20688423E+04</pdfrwt>
<pdfrwt beam="2">  1       -2 0.10462982E+00 0.20688423E+04</pdfrwt>
<totfact> 0.79062945E+00</totfact>
</mgrwt>
</event>
<event>
 6    1  0.1817112E-005  0.1629777E+04  0.7818608E-02  0.8802461E-01
          2   -1    0    0  501    0  0.00000000000E+00  0.00000000000E+00  0.21808029589E+04  0.21808029589E+04  0.00000000000E+00 0.  1.
         -2   -1    0    0    0  501 -0.00000000000E+00 -0.00000000000E+00 -0.30449485763E+03  0.30449485763E+03  0.00000000000E+00 0. -1.
         23    2    1    2    0    0 -0.47475807715E+03  0.24066754550E+03  0.18770467884E+04  0.19530228454E+04  0.87621283024E+02 0.  0.
         13    1    3    3    0    0 -0.37035670774E+03  0.22563130084E+03  0.15344158123E+04  0.15945235840E+04  0.00000000000E+00 0.  1.
        -13    1    3    3    0    0 -0.10440136942E+03  0.15036244657E+02  0.34263097609E+03  0.35849926132E+03  0.00000000000E+00 0. -1.
         22    1    1    2    0    0  0.47475807715E+03 -0.24066754550E+03 -0.73868716540E+00  0.53227497117E+03  0.00000000000E+00 0. -1.
<mgrwt>
<rscale>  0 0.16297770E+04</rscale>
<asrwt>0</asrwt>
<pdfrwt beam="1">  1        2 0.33550814E+00 0.16297770E+04</pdfrwt>
<pdfrwt beam="2">  1       -2 0.46845364E-01 0.16297770E+04</pdfrwt>
<totfact> 0.21892335E+01</totfact>
</mgrwt>
</event>
<event>
 6    1  0.1817112E-005  0.2123500E+04  0.7818608E-02  0.8550961E-01
          2   -1    0    0  501    0  0.00000000000E+00  0.00000000000E+00  0.12382669101E+04  0.12382669101E+04  0.00000000000E+00 0. -1.
         -2   -1    0    0    0  501 -0.00000000000E+00 -0.00000000000E+00 -0.91039624934E+03  0.91039624934E+03  0.00000000000E+00 0.  1.
         23    2    1    2    0    0 -0.11267632168E+03 -0.71592902816E+03 -0.61809796511E+03  0.95698074874E+03  0.92286142736E+02 0.  0.
         13    1    3    3    0    0 -0.73671427617E+02 -0.37201892133E+03 -0.26584137842E+03  0.46313841943E+03  0.00000000000E+00 0. -1.
        -13    1    3    3    0    0 -0.39004894066E+02 -0.34391010683E+03 -0.35225658669E+03  0.49384232930E+03  0.00000000000E+00 0.  1.
         22    1    1    2    0    0  0.11267632168E+03  0.71592902816E+03  0.94596862587E+03  0.11916824107E+04  0.00000000000E+00 0. -1.
<mgrwt>
<rscale>  0 0.21235005E+04</rscale>
<asrwt>0</asrwt>
<pdfrwt beam="1">  1        2 0.19050260E+00 0.21235005E+04</pdfrwt>
<pdfrwt beam="2">  1       -2 0.14006096E+00 0.21235005E+04</pdfrwt>
<totfact> 0.59313261E+00</totfact>
</mgrwt>
</event>
<event>
 6    1  0.1817112E-005  0.1799119E+04  0.7818608E-02  0.8706768E-01
          2   -1    0    0  501    0  0.00000000000E+00  0.00000000000E+00  0.16388982920E+04  0.16388982920E+04  0.00000000000E+00 0. -1.
         -2   -1    0    0    0  501 -0.00000000000E+00 -0.00000000000E+00 -0.49375065864E+03  0.49375065864E+03  0.00000000000E+00 0.  1.
         23    2    1    2    0    0 -0.36932364758E+03  0.64142905525E+03  0.11760846752E+04  0.13918464870E+04  0.78932189481E+02 0.  0.
         13    1    3    3    0    0 -0.27124510786E+03  0.47703659192E+03  0.80425936968E+03  0.97363799858E+03  0.00000000000E+00 0.  1.
        -13    1    3    3    0    0 -0.98078539720E+02  0.16439246333E+03  0.37182530552E+03  0.41820848841E+03  0.00000000000E+00 0. -1.
         22    1    1    2    0    0  0.36932364758E+03 -0.64142905525E+03 -0.30937041844E+02  0.74080246364E+03  0.00000000000E+00 0.  1.
<mgrwt>
<rscale>  0 0.17991188E+04</rscale>
<asrwt>0</asrwt>
<pdfrwt beam="1">  1        2 0.25213820E+00 0.17991188E+04</pdfrwt>
<pdfrwt beam="2">  1       -2 0.75961640E-01 0.17991188E+04</pdfrwt>
<totfact> 0.15543712E+01</totfact>
</mgrwt>
</event>
<event>
 6    1  0.1817112E-005  0.2679895E+04  0.7818608E-02  0.8341558E-01
          2   -1    0    0  501    0  0.00000000000E+00  0.00000000000E+00  0.30126351916E+04  0.30126351916E+04  0.00000000000E+00 0. -1.
         -2   -1    0    0    0  501 -0.00000000000E+00 -0.00000000000E+00 -0.59597655864E+03  0.59597655864E+03  0.00000000000E+00 0.  1.
         23    2    1    2    0    0  0.10908632549E+04 -0.31365148147E+03  0.25475697005E+03  0.11668544542E+04  0.91040160336E+02 0.  0.
         11    1    3    3    0    0  0.81415320951E+03 -0.24522186572E+03  0.15144226526E+03  0.86366311238E+03  0.00000000000E+00 0. -1.
        -11    1    3    3    0    0  0.27671004538E+03 -0.68429615756E+02  0.10331470479E+03  0.30319134181E+03  0.00000000000E+00 0.  1.
         22    1    1    2    0    0 -0.10908632549E+04  0.31365148147E+03  0.21619016630E+04  0.24417572961E+04  0.00000000000E+00 0. -1.
<mgrwt>
<rscale>  0 0.26798955E+04</rscale>
<asrwt>0</asrwt>
<pdfrwt beam="1">  1        2 0.46348233E+00 0.26798955E+04</pdfrwt>
<pdfrwt beam="2">  1       -2 0.91688703E-01 0.26798955E+04</pdfrwt>
<totfact> 0.15204189E+00</totfact>
</mgrwt>
</event>
<event>
 6    1  0.1817112E-005  0.9561907E+03  0.7818608E-02  0.9357944E-01
          2   -1    0    0  501    0  0.00000000000E+00  0.00000000000E+00  0.17205286215E+04  0.17205286215E+04  0.00000000000E+00 0. -1.
         -2   -1    0    0    0  501 -0.00000000000E+00 -0.00000000000E+00 -0.13285171125E+03  0.13285171125E+03  0.00000000000E+00 0.  1.
         23    2    1    2    0    0 -0.72733608541E+02 -0.32265621851E+02  0.17062653800E+04  0.17105711127E+04  0.91546362225E+02 0.  0.
         13    1    3    3    0    0 -0.16184701443E+02  0.19322523816E+02  0.12842152176E+03  0.13087166133E+03  0.00000000000E+00 0.  1.
        -13    1    3    3    0    0 -0.56548907098E+02 -0.51588145667E+02  0.15778438582E+04  0.15796994514E+04  0.00000000000E+00 0. -1.
         22    1    1    2    0    0  0.72733608541E+02  0.32265621851E+02 -0.11858846977E+03  0.14280922003E+03  0.00000000000E+00 0.  1.
<mgrwt>
<rscale>  0 0.95619072E+03</rscale>
<asrwt>0</asrwt>
<pdfrwt beam="1">  1        2 0.26469670E+00 0.95619072E+03</pdfrwt>
<pdfrwt beam="2">  1       -2 0.20438726E-01 0.95619072E+03</pdfrwt>
<totfact> 0.19684410E+02</totfact>
</mgrwt>
</event>
<event>
 6    1  0.1817112E-005  0.3978087E+04  0.7818608E-02  0.8008982E-01
         -2   -1    0    0    0  501 -0.00000000000E+00  0.00000000000E+00  0.25541199439E+04  0.25541199439E+04  0.00000000000E+00 0.  1.
          2   -1    0    0  501    0  0.00000000000E+00 -0.00000000000E+00 -0.15489849013E+04  0.15489849013E+04  0.00000000000E+00 0. -1.
         23    2    1    2    0    0 -0.14170880511E+03  0.12325436581E+04  0.21049494235E+04  0.24451431669E+04  0.93100895635E+02 0.  0.
         13    1    3    3    0    0 -0.70300546550E+02  0.81097838566E+03  0.14532452901E+04  0.16656980464E+04  0.00000000000E+00 0.  1.
        -13    1    3    3    0    0 -0.71408258559E+02  0.42156527243E+03  0.65170413343E+03  0.77944512047E+03  0.00000000000E+00 0. -1.
         22    1    1    2    0    0  0.14170880511E+03 -0.12325436581E+04 -0.10998143808E+04  0.16579616783E+04  0.00000000000E+00 0. -1.
<mgrwt>
<rscale>  0 0.39780866E+04</rscale>
<asrwt>0</asrwt>
<pdfrwt beam="1">  1        2 0.23830537E+00 0.39780866E+04</pdfrwt>
<pdfrwt beam="2">  1       -2 0.39294153E+00 0.39780866E+04</pdfrwt>
<totfact> 0.77654222E-02</totfact>
</mgrwt>
</event>
<event>
 6    1  0.2085745E-005  0.2905120E+04  0.7818608E-02  0.8271356E-01
          2   -1    0    0  501    0  0.00000000000E+00  0.00000000000E+00  0.18904052509E+04  0.18904052509E+04  0.00000000000E+00 0.  1.
         -2   -1    0    0    0  501 -0.00000000000E+00 -0.00000000000E+00 -0.11161262785E+04  0.11161262785E+04  0.00000000000E+00 0. -1.
         23    2    1    2    0    0  0.77437050903E+03  0.23711132572E+03  0.16336489173E+04  0.18256893858E+04  0.91986317722E+02 0.  0.
         13    1    3    3    0    0  0.26378850719E+03  0.46156926970E+02  0.47735107102E+03  0.54733799744E+03  0.00000000000E+00 0. -1.
        -13    1    3    3    0    0  0.51058200184E+03  0.19095439875E+03  0.11562978462E+04  0.12783513884E+04  0.00000000000E+00 0.  1.
         22    1    1    2    0    0 -0.77437050903E+03 -0.23711132572E+03 -0.85936994484E+03  0.11808421436E+04  0.00000000000E+00 0. -1.
<mgrwt>
<rscale>  0 0.29051203E+04</rscale>
<asrwt>0</asrwt>
<pdfrwt beam="1">  1        2 0.29083158E+00 0.29051203E+04</pdfrwt>
<pdfrwt beam="2">  1       -2 0.17171174E+00 0.29051203E+04</pdfrwt>
<totfact> 0.13746047E+00</totfact>
</mgrwt>
</event>
<event>
 6    1  0.1817112E-005  0.2980568E+04  0.7818608E-02  0.8249302E-01
          2   -1    0    0  501    0  0.00000000000E+00  0.00000000000E+00  0.19787030823E+04  0.19787030823E+04  0.00000000000E+00 0. -1.
         -2   -1    0    0    0  501 -0.00000000000E+00 -0.00000000000E+00 -0.11224255510E+04  0.11224255510E+04  0.00000000000E+00 0.  1.
         23    2    1    2    0    0  0.11798942057E+04 -0.29937185611E+03 -0.46351727635E+03  0.13056810069E+04  0.90447671416E+02 0.  0.
         11    1    3    3    0    0  0.37195558599E+03 -0.51444086790E+02 -0.14583272386E+03  0.40282084772E+03  0.00000000000E+00 0.  1.
        -11    1    3    3    0    0  0.80793861974E+03 -0.24792776932E+03 -0.31768455249E+03  0.90286015914E+03  0.00000000000E+00 0. -1.
         22    1    1    2    0    0 -0.11798942057E+04  0.29937185611E+03  0.13197948076E+04  0.17954476264E+04  0.00000000000E+00 0. -1.
<mgrwt>
<rscale>  0 0.29805683E+04</rscale>
<asrwt>0</asrwt>
<pdfrwt beam="1">  1        2 0.30441586E+00 0.29805683E+04</pdfrwt>
<pdfrwt beam="2">  1       -2 0.17268085E+00 0.29805683E+04</pdfrwt>
<totfact> 0.12010789E+00</totfact>
</mgrwt>
</event>
<event>
 6    1  0.1817112E-005  0.1857453E+04  0.7818608E-02  0.8676329E-01
          2   -1    0    0  501    0  0.00000000000E+00  0.00000000000E+00  0.23154937084E+04  0.23154937084E+04  0.00000000000E+00 0. -1.
         -2   -1    0    0    0  501 -0.00000000000E+00 -0.00000000000E+00 -0.37250503113E+03  0.37250503113E+03  0.00000000000E+00 0.  1.
         23    2    1    2    0    0  0.10189780909E+03  0.79403297467E+03  0.16482802297E+04  0.18349309829E+04  0.96293655339E+02 0.  0.
         11    1    3    3    0    0  0.76902991241E+02  0.42480397404E+03  0.78992769914E+03  0.90019900928E+03  0.00000000000E+00 0. -1.
        -11    1    3    3    0    0  0.24994817848E+02  0.36922900063E+03  0.85835253051E+03  0.93473197360E+03  0.00000000000E+00 0.  1.
         22    1    1    2    0    0 -0.10189780909E+03 -0.79403297467E+03  0.29470844762E+03  0.85306775666E+03  0.00000000000E+00 0. -1.
<mgrwt>
<rscale>  0 0.18574532E+04</rscale>
<asrwt>0</asrwt>
<pdfrwt beam="1">  1        2 0.35622979E+00 0.18574532E+04</pdfrwt>
<pdfrwt beam="2">  1       -2 0.57308468E-01 0.18574532E+04</pdfrwt>
<totfact> 0.11916054E+01</totfact>
</mgrwt>
</event>
<event>
 6    1  0.1817112E-005  0.4407698E+04  0.7818608E-02  0.7926998E-01
          2   -1    0    0  501    0  0.00000000000E+00  0.00000000000E+00  0.21516815389E+04  0.21516815389E+04  0.00000000000E+00 0. -1.
         -2   -1    0    0    0  501 -0.00000000000E+00 -0.00000000000E+00 -0.22572809322E+04  0.22572809322E+04  0.00000000000E+00 0.  1.
         23    2    1    2    0    0  0.90860122817E+02 -0.55837203357E+03  0.20768249489E+04  0.21544091008E+04  0.90784445322E+02 0.  0.
         13    1    3    3    0    0  0.85290695512E+02 -0.25313357585E+03  0.92226235317E+03  0.96016610961E+03  0.00000000000E+00 0.  1.
        -13    1    3    3    0    0  0.55694273055E+01 -0.30523845772E+03  0.11545625957E+04  0.11942429912E+04  0.00000000000E+00 0. -1.
         22    1    1    2    0    0 -0.90860122817E+02  0.55837203357E+03 -0.21824243422E+04  0.22545533703E+04  0.00000000000E+00 0.  1.
<mgrwt>
<rscale>  0 0.44076977E+04</rscale>
<asrwt>0</asrwt>
<pdfrwt beam="1">  1        2 0.33102793E+00 0.44076977E+04</pdfrwt>
<pdfrwt beam="2">  1       -2 0.34727399E+00 0.44076977E+04</pdfrwt>
<totfact> 0.67916536E-02</totfact>
</mgrwt>
</event>
<event>
 6    1  0.1817112E-005  0.5827139E+04  0.7818608E-02  0.7712212E-01
          2   -1    0    0  501    0  0.00000000000E+00  0.00000000000E+00  0.44274843451E+04  0.44274843451E+04  0.00000000000E+00 0. -1.
         -2   -1    0    0    0  501 -0.00000000000E+00 -0.00000000000E+00 -0.19173160289E+04  0.19173160289E+04  0.00000000000E+00 0.  1.
         23    2    1    2    0    0  0.28515953215E+04  0.12828666775E+03  0.62350430658E+03  0.29231699977E+04  0.90065911297E+02 0.  0.
         13    1    3    3    0    0  0.23887528894E+04  0.91495647622E+02  0.55179181726E+03  0.24533621888E+04  0.00000000000E+00 0. -1.
        -13    1    3    3    0    0  0.46284243214E+03  0.36791020131E+02  0.71712489325E+02  0.46980780887E+03  0.00000000000E+00 0.  1.
         22    1    1    2    0    0 -0.28515953215E+04 -0.12828666775E+03  0.18866640096E+04  0.34216303763E+04  0.00000000000E+00 0. -1.
<mgrwt>
<rscale>  0 0.58271388E+04</rscale>
<asrwt>0</asrwt>
<pdfrwt beam="1">  1        2 0.68115143E+00 0.58271388E+04</pdfrwt>
<pdfrwt beam="2">  1       -2 0.29497170E+00 0.58271388E+04</pdfrwt>
<totfact> 0.33298453E-03</totfact>
</mgrwt>
</event>
<event>
 6    1  0.1817112E-005  0.1390174E+04  0.7818608E-02  0.8960962E-01
          2   -1    0    0  501    0  0.00000000000E+00  0.00000000000E+00  0.35415843831E+03  0.35415843831E+03  0.00000000000E+00 0. -1.
         -2   -1    0    0    0  501 -0.00000000000E+00 -0.00000000000E+00 -0.13642083738E+04  0.13642083738E+04  0.00000000000E+00 0.  1.
         23    2    1    2    0    0 -0.53389698168E+02 -0.44830131842E+03 -0.11557026517E+04  0.12439837963E+04  0.89568600810E+02 0.  0.
         13    1    3    3    0    0  0.14065034595E+02 -0.19885081921E+03 -0.56844973346E+03  0.60239071454E+03  0.00000000000E+00 0.  1.
        -13    1    3    3    0    0 -0.67454732763E+02 -0.24945049921E+03 -0.58725291827E+03  0.64159308174E+03  0.00000000000E+00 0. -1.
         22    1    1    2    0    0  0.53389698168E+02  0.44830131842E+03  0.14565271623E+03  0.47438301583E+03  0.00000000000E+00 0.  1.
<mgrwt>
<rscale>  0 0.13901740E+04</rscale>
<asrwt>0</asrwt>
<pdfrwt beam="1">  1        2 0.54485913E-01 0.13901740E+04</pdfrwt>
<pdfrwt beam="2">  1       -2 0.20987821E+00 0.13901740E+04</pdfrwt>
<totfact> 0.10182075E+01</totfact>
</mgrwt>
</event>
<event>
 6    1  0.1817112E-005  0.2018546E+04  0.7818608E-02  0.8597998E-01
          2   -1    0    0  501    0  0.00000000000E+00  0.00000000000E+00  0.18686401063E+04  0.18686401063E+04  0.00000000000E+00 0. -1.
         -2   -1    0    0    0  501 -0.00000000000E+00 -0.00000000000E+00 -0.54511953492E+03  0.54511953492E+03  0.00000000000E+00 0.  1.
         23    2    1    2    0    0  0.40426565850E+03 -0.35016937854E+03 -0.35755345076E+03  0.64965670084E+03  0.90332953514E+02 0.  0.
         13    1    3    3    0    0  0.84388507842E+02 -0.12564713382E+03 -0.91116007240E+02  0.17666564258E+03  0.00000000000E+00 0. -1.
        -13    1    3    3    0    0  0.31987715066E+03 -0.22452224472E+03 -0.26643744352E+03  0.47299105826E+03  0.00000000000E+00 0.  1.
         22    1    1    2    0    0 -0.40426565850E+03  0.35016937854E+03  0.16810740221E+04  0.17641029404E+04  0.00000000000E+00 0. -1.
<mgrwt>
<rscale>  0 0.20185462E+04</rscale>
<asrwt>0</asrwt>
<pdfrwt beam="1">  1        2 0.28748309E+00 0.20185462E+04</pdfrwt>
<pdfrwt beam="2">  1       -2 0.83864545E-01 0.20185462E+04</pdfrwt>
<totfact> 0.91087189E+00</totfact>
</mgrwt>
</event>
<event>
 6    1  0.1817112E-005  0.6737799E+03  0.7818608E-02  0.9763153E-01
          2   -1    0    0  501    0  0.00000000000E+00  0.00000000000E+00  0.11075922733E+04  0.11075922733E+04  0.00000000000E+00 0. -1.
         -2   -1    0    0    0  501 -0.00000000000E+00 -0.00000000000E+00 -0.10246987828E+03  0.10246987828E+03  0.00000000000E+00 0.  1.
         23    2    1    2    0    0 -0.21718462948E+03  0.11393124601E+03  0.91034605046E+03  0.94713241271E+03  0.90445472648E+02 0.  0.
         13    1    3    3    0    0 -0.16412594457E+03  0.68602491946E+02  0.49562906434E+03  0.52658503302E+03  0.00000000000E+00 0.  1.
        -13    1    3    3    0    0 -0.53058684908E+02  0.45328754066E+02  0.41471698612E+03  0.42054737969E+03  0.00000000000E+00 0. -1.
         22    1    1    2    0    0  0.21718462948E+03 -0.11393124601E+03  0.94776344590E+02  0.26292973889E+03  0.00000000000E+00 0.  1.
<mgrwt>
<rscale>  0 0.67377992E+03</rscale>
<asrwt>0</asrwt>
<pdfrwt beam="1">  1        2 0.17039880E+00 0.67377992E+03</pdfrwt>
<pdfrwt beam="2">  1       -2 0.15764597E-01 0.67377992E+03</pdfrwt>
<totfact> 0.70004956E+02</totfact>
</mgrwt>
</event>
<event>
 6    1  0.1817112E-005  0.2293419E+04  0.7818608E-02  0.8480520E-01
          2   -1    0    0  501    0  0.00000000000E+00  0.00000000000E+00  0.22308876787E+04  0.22308876787E+04  0.00000000000E+00 0. -1.
         -2   -1    0    0    0  501 -0.00000000000E+00 -0.00000000000E+00 -0.58942569147E+03  0.58942569147E+03  0.00000000000E+00 0.  1.
         23    2    1    2    0    0  0.10552037963E+03  0.52096755556E+03  0.20689970053E+04  0.21381638733E+04  0.91947792692E+02 0.  0.
         13    1    3    3    0    0  0.71475841847E+02  0.28009235665E+03  0.12934665163E+04  0.13253739673E+04  0.00000000000E+00 0. -1.
        -13    1    3    3    0    0  0.34044537784E+02  0.24087519891E+03  0.77553048901E+03  0.81278990605E+03  0.00000000000E+00 0.  1.
         22    1    1    2    0    0 -0.10552037963E+03 -0.52096755556E+03 -0.42753501806E+03  0.68214949690E+03  0.00000000000E+00 0.  1.
<mgrwt>
<rscale>  0 0.22934189E+04</rscale>
<asrwt>0</asrwt>
<pdfrwt beam="1">  1        2 0.34321348E+00 0.22934189E+04</pdfrwt>
<pdfrwt beam="2">  1       -2 0.90680877E-01 0.22934189E+04</pdfrwt>
<totfact> 0.46729344E+00</totfact>
</mgrwt>
</event>
<event>
 6    1  0.1817112E-005  0.2860254E+04  0.7818608E-02  0.8284802E-01
         -2   -1    0    0    0  501 -0.00000000000E+00  0.00000000000E+00  0.11423329059E+04  0.11423329059E+04  0.00000000000E+00 0. -1.
          2   -1    0    0  501    0  0.00000000000E+00 -0.00000000000E+00 -0.17904267001E+04  0.17904267001E+04  0.00000000000E+00 0.  1.
         23    2    1    2    0    0  0.10159903861E+04  0.87954232641E+03 -0.82163451943E+03  0.15777881849E+04  0.92201433094E+02 0.  0.
         11    1    3    3    0    0  0.69564756402E+03  0.54644795287E+03 -0.52592725419E+03  0.10291406003E+04  0.00000000000E+00 0.  1.
        -11    1    3    3    0    0  0.32034282210E+03  0.33309437354E+03 -0.29570726524E+03  0.54864758458E+03  0.00000000000E+00 0. -1.
         22    1    1    2    0    0 -0.10159903861E+04 -0.87954232641E+03  0.17354072526E+03  0.13549714211E+04  0.00000000000E+00 0. -1.
<mgrwt>
<rscale>  0 0.28602541E+04</rscale>
<asrwt>0</asrwt>
<pdfrwt beam="1">  1        2 0.27545026E+00 0.28602541E+04</pdfrwt>
<pdfrwt beam="2">  1       -2 0.17574352E+00 0.28602541E+04</pdfrwt>
<totfact> 0.14685220E+00</totfact>
</mgrwt>
</event>
<event>
 6    1  0.1817112E-005  0.1344957E+04  0.7818608E-02  0.8994654E-01
         -2   -1    0    0    0  501 -0.00000000000E+00  0.00000000000E+00  0.51753107579E+03  0.51753107579E+03  0.00000000000E+00 0.  1.
          2   -1    0    0  501    0  0.00000000000E+00 -0.00000000000E+00 -0.87381720434E+03  0.87381720434E+03  0.00000000000E+00 0. -1.
         23    2    1    2    0    0 -0.23462581782E+03  0.13289677990E+03 -0.81278235784E+03  0.86115997788E+03  0.90942387227E+02 0.  0.
         13    1    3    3    0    0 -0.91509010373E+02  0.85879053076E+02 -0.26789670648E+03  0.29583400088E+03  0.00000000000E+00 0. -1.
        -13    1    3    3    0    0 -0.14311680744E+03  0.47017726820E+02 -0.54488565136E+03  0.56532597700E+03  0.00000000000E+00 0.  1.
         22    1    1    2    0    0  0.23462581782E+03 -0.13289677990E+03  0.45649622929E+03  0.53018830225E+03  0.00000000000E+00 0.  1.
<mgrwt>
<rscale>  0 0.13449573E+04</rscale>
<asrwt>0</asrwt>
<pdfrwt beam="1">  1        2 0.13443341E+00 0.13449573E+04</pdfrwt>
<pdfrwt beam="2">  1       -2 0.79620166E-01 0.13449573E+04</pdfrwt>
<totfact> 0.41727831E+01</totfact>
</mgrwt>
</event>
<event>
 6    1  0.1817112E-005  0.1125058E+04  0.7818608E-02  0.9181107E-01
          1   -1    0    0  501    0  0.00000000000E+00  0.00000000000E+00  0.11947842746E+04  0.11947842746E+04  0.00000000000E+00 0. -1.
         -1   -1    0    0    0  501 -0.00000000000E+00 -0.00000000000E+00 -0.26485042342E+03  0.26485042342E+03  0.00000000000E+00 0.  1.
         23    2    1    2    0    0 -0.15079685679E+03 -0.40933667927E+03  0.92121933843E+03  0.10233181251E+04  0.90767321801E+02 0.  0.
         11    1    3    3    0    0 -0.86170596818E+02 -0.15141845138E+03  0.44515271545E+03  0.47803123250E+03  0.00000000000E+00 0. -1.
        -11    1    3    3    0    0 -0.64626259971E+02 -0.25791822789E+03  0.47606662298E+03  0.54528689262E+03  0.00000000000E+00 0.  1.
         22    1    1    2    0    0  0.15079685679E+03  0.40933667927E+03  0.87145127066E+01  0.43631657285E+03  0.00000000000E+00 0.  1.
<mgrwt>
<rscale>  0 0.11250584E+04</rscale>
<asrwt>0</asrwt>
<pdfrwt beam="1">  1        1 0.18381296E+00 0.11250584E+04</pdfrwt>
<pdfrwt beam="2">  1       -1 0.40746220E-01 0.11250584E+04</pdfrwt>
<totfact> 0.63102501E+01</totfact>
</mgrwt>
</event>
<event>
 6    1  0.1817112E-005  0.2845964E+04  0.7818608E-02  0.8289139E-01
          2   -1    0    0  501    0  0.00000000000E+00  0.00000000000E+00  0.18179585873E+04  0.18179585873E+04  0.00000000000E+00 0.  1.
         -2   -1    0    0    0  501 -0.00000000000E+00 -0.00000000000E+00 -0.11138194402E+04  0.11138194402E+04  0.00000000000E+00 0. -1.
         23    2    1    2    0    0  0.23650784663E+02  0.24824017505E+03  0.17941070348E+04  0.18136489919E+04  0.91214415737E+02 0.  0.
         13    1    3    3    0    0 -0.20726314902E+02  0.19550456084E+03  0.13293898008E+04  0.13438485242E+04  0.00000000000E+00 0. -1.
        -13    1    3    3    0    0  0.44377099565E+02  0.52735614210E+02  0.46471723394E+03  0.46980046775E+03  0.00000000000E+00 0.  1.
         22    1    1    2    0    0 -0.23650784663E+02 -0.24824017505E+03 -0.10899678876E+04  0.11181290356E+04  0.00000000000E+00 0. -1.
<mgrwt>
<rscale>  0 0.28459639E+04</rscale>
<asrwt>0</asrwt>
<pdfrwt beam="1">  1        2 0.27968594E+00 0.28459639E+04</pdfrwt>
<pdfrwt beam="2">  1       -2 0.17135684E+00 0.28459639E+04</pdfrwt>
<totfact> 0.15241117E+00</totfact>
</mgrwt>
</event>
<event>
 6    1  0.1817112E-005  0.8360078E+03  0.7818608E-02  0.9509312E-01
         -2   -1    0    0    0  501 -0.00000000000E+00  0.00000000000E+00  0.71915664910E+03  0.71915664910E+03  0.00000000000E+00 0.  1.
          2   -1    0    0  501    0  0.00000000000E+00 -0.00000000000E+00 -0.24296134070E+03  0.24296134070E+03  0.00000000000E+00 0. -1.
         23    2    1    2    0    0 -0.32872892172E+03 -0.23989285829E+03  0.31936785569E+03  0.52599170378E+03  0.95184860969E+02 0.  0.
         11    1    3    3    0    0 -0.15351188854E+03 -0.60767844350E+02  0.10045431847E+03  0.19326070715E+03  0.00000000000E+00 0. -1.
        -11    1    3    3    0    0 -0.17521703319E+03 -0.17912501394E+03  0.21891353722E+03  0.33273099663E+03  0.00000000000E+00 0.  1.
         22    1    1    2    0    0  0.32872892172E+03  0.23989285829E+03  0.15682745271E+03  0.43612628603E+03  0.00000000000E+00 0.  1.
<mgrwt>
<rscale>  0 0.83600781E+03</rscale>
<asrwt>0</asrwt>
<pdfrwt beam="1">  1        2 0.37378668E-01 0.83600781E+03</pdfrwt>
<pdfrwt beam="2">  1       -2 0.11063948E+00 0.83600781E+03</pdfrwt>
<totfact> 0.90536376E+01</totfact>
</mgrwt>
</event>
<event>
 6    1  0.1817112E-005  0.2668101E+04  0.7818608E-02  0.8345430E-01
          2   -1    0    0  501    0  0.00000000000E+00  0.00000000000E+00  0.14280674197E+04  0.14280674197E+04  0.00000000000E+00 0. -1.
         -2   -1    0    0    0  501 -0.00000000000E+00 -0.00000000000E+00 -0.12462231166E+04  0.12462231166E+04  0.00000000000E+00 0.  1.
         23    2    1    2    0    0 -0.35479700255E+03  0.43308081397E+03 -0.11209213777E+04  0.12563207470E+04  0.91854122532E+02 0.  0.
         13    1    3    3    0    0 -0.11886176252E+03  0.15453290668E+03 -0.49072723528E+03  0.52803575380E+03  0.00000000000E+00 0.  1.
        -13    1    3    3    0    0 -0.23593524004E+03  0.27854790729E+03 -0.63019414243E+03  0.72828499319E+03  0.00000000000E+00 0. -1.
         22    1    1    2    0    0  0.35479700255E+03 -0.43308081397E+03  0.13027656808E+04  0.14179697894E+04  0.00000000000E+00 0. -1.
<mgrwt>
<rscale>  0 0.26681009E+04</rscale>
<asrwt>0</asrwt>
<pdfrwt beam="1">  1        2 0.21970268E+00 0.26681009E+04</pdfrwt>
<pdfrwt beam="2">  1       -2 0.19172663E+00 0.26681009E+04</pdfrwt>
<totfact> 0.18515384E+00</totfact>
</mgrwt>
</event>
<event>
 6    1  0.1817112E-005  0.2370150E+04  0.7818608E-02  0.8450764E-01
         -2   -1    0    0    0  501 -0.00000000000E+00  0.00000000000E+00  0.85377922890E+03  0.85377922890E+03  0.00000000000E+00 0.  1.
          2   -1    0    0  501    0  0.00000000000E+00 -0.00000000000E+00 -0.16449256008E+04  0.16449256008E+04  0.00000000000E+00 0. -1.
         23    2    1    2    0    0 -0.25911591206E+03  0.48992754136E+03  0.70627611399E+03  0.90200693940E+03  0.87295577608E+02 0.  0.
         11    1    3    3    0    0 -0.16212439100E+03  0.24091631519E+03  0.31779529488E+03  0.43048674605E+03  0.00000000000E+00 0. -1.
        -11    1    3    3    0    0 -0.96991521060E+02  0.24901122618E+03  0.38848081911E+03  0.47152019335E+03  0.00000000000E+00 0.  1.
         22    1    1    2    0    0  0.25911591206E+03 -0.48992754136E+03 -0.14974224859E+04  0.15966978903E+04  0.00000000000E+00 0. -1.
<mgrwt>
<rscale>  0 0.23701505E+04</rscale>
<asrwt>0</asrwt>
<pdfrwt beam="1">  1        2 0.25306547E+00 0.23701505E+04</pdfrwt>
<pdfrwt beam="2">  1       -2 0.13135065E+00 0.23701505E+04</pdfrwt>
<totfact> 0.40145020E+00</totfact>
</mgrwt>
</event>
<event>
 6    1  0.1817112E-005  0.1419885E+04  0.7818608E-02  0.8939550E-01
         -1   -1    0    0    0  501 -0.00000000000E+00  0.00000000000E+00  0.43873253965E+03  0.43873253965E+03  0.00000000000E+00 0.  1.
          1   -1    0    0  501    0  0.00000000000E+00 -0.00000000000E+00 -0.11488047410E+04  0.11488047410E+04  0.00000000000E+00 0. -1.
         23    2    1    2    0    0  0.50225224859E+03 -0.48481164657E+03 -0.48249648429E+03  0.85330954970E+03  0.89636356432E+02 0.  0.
         11    1    3    3    0    0  0.17212512049E+03 -0.15419468353E+03 -0.21105471176E+03  0.31296509213E+03  0.00000000000E+00 0. -1.
        -11    1    3    3    0    0  0.33012712810E+03 -0.33061696304E+03 -0.27144177252E+03  0.54034445758E+03  0.00000000000E+00 0.  1.
         22    1    1    2    0    0 -0.50225224859E+03  0.48481164657E+03 -0.22757571704E+03  0.73422773092E+03  0.00000000000E+00 0. -1.
<mgrwt>
<rscale>  0 0.14198845E+04</rscale>
<asrwt>0</asrwt>
<pdfrwt beam="1">  1        1 0.17673919E+00 0.14198845E+04</pdfrwt>
<pdfrwt beam="2">  1       -1 0.67497314E-01 0.14198845E+04</pdfrwt>
<totfact> 0.25226962E+01</totfact>
</mgrwt>
</event>
<event>
 6    1  0.1817112E-005  0.2318605E+04  0.7818608E-02  0.8470621E-01
         -2   -1    0    0    0  501 -0.00000000000E+00  0.00000000000E+00  0.58801903114E+03  0.58801903114E+03  0.00000000000E+00 0.  1.
          2   -1    0    0  501    0  0.00000000000E+00 -0.00000000000E+00 -0.22856104980E+04  0.22856104980E+04  0.00000000000E+00 0. -1.
         23    2    1    2    0    0 -0.65438105190E+03  0.42711588368E+03  0.20842573620E+03  0.81364309288E+03  0.89057598794E+02 0.  0.
         13    1    3    3    0    0 -0.20769624837E+03  0.10138882967E+03  0.91525041621E+02  0.24858451202E+03  0.00000000000E+00 0.  1.
        -13    1    3    3    0    0 -0.44668480352E+03  0.32572705401E+03  0.11690069458E+03  0.56505858086E+03  0.00000000000E+00 0. -1.
         22    1    1    2    0    0  0.65438105190E+03 -0.42711588368E+03 -0.19060172030E+04  0.20599864362E+04  0.00000000000E+00 0. -1.
<mgrwt>
<rscale>  0 0.23186052E+04</rscale>
<asrwt>0</asrwt>
<pdfrwt beam="1">  1        2 0.35163239E+00 0.23186052E+04</pdfrwt>
<pdfrwt beam="2">  1       -2 0.90464466E-01 0.23186052E+04</pdfrwt>
<totfact> 0.43666005E+00</totfact>
</mgrwt>
</event>
<event>
 6    1  0.1817112E-005  0.1488493E+04  0.7818608E-02  0.8892141E-01
         -2   -1    0    0    0  501 -0.00000000000E+00  0.00000000000E+00  0.17809396430E+03  0.17809396430E+03  0.00000000000E+00 0.  1.
          2   -1    0    0  501    0  0.00000000000E+00 -0.00000000000E+00 -0.31101706218E+04  0.31101706218E+04  0.00000000000E+00 0. -1.
         23    2    1    2    0    0 -0.44040831752E+03  0.49783473344E+03 -0.21986642550E+04  0.22984703347E+04  0.83919397580E+02 0.  0.
         11    1    3    3    0    0 -0.41701706662E+02  0.30834113843E+02 -0.25098508281E+03  0.25628750791E+03  0.00000000000E+00 0. -1.
        -11    1    3    3    0    0 -0.39870661086E+03  0.46700061960E+03 -0.19476791722E+04  0.20421828268E+04  0.00000000000E+00 0.  1.
         22    1    1    2    0    0  0.44040831752E+03 -0.49783473344E+03 -0.73341240249E+03  0.98979425139E+03  0.00000000000E+00 0.  1.
<mgrwt>
<rscale>  0 0.14884927E+04</rscale>
<asrwt>0</asrwt>
<pdfrwt beam="1">  1        2 0.47848779E+00 0.14884927E+04</pdfrwt>
<pdfrwt beam="2">  1       -2 0.27399071E-01 0.14884927E+04</pdfrwt>
<totfact> 0.17548519E+01</totfact>
</mgrwt>
</event>
<event>
 6    1  0.1817112E-005  0.2585220E+04  0.7818608E-02  0.8373239E-01
         -2   -1    0    0    0  501 -0.00000000000E+00  0.00000000000E+00  0.15536075259E+04  0.15536075259E+04  0.00000000000E+00 0.  1.
          2   -1    0    0  501    0  0.00000000000E+00 -0.00000000000E+00 -0.10754583975E+04  0.10754583975E+04  0.00000000000E+00 0. -1.
         23    2    1    2    0    0  0.17427228103E+03 -0.52943033272E+03  0.14237590658E+04  0.15314113973E+04  0.86392622706E+02 0.  0.
         11    1    3    3    0    0  0.21514895370E+02 -0.17109764368E+03  0.37866060769E+03  0.41607829818E+03  0.00000000000E+00 0.  1.
        -11    1    3    3    0    0  0.15275738566E+03 -0.35833268904E+03  0.10450984581E+04  0.11153330991E+04  0.00000000000E+00 0. -1.
         22    1    1    2    0    0 -0.17427228103E+03  0.52943033272E+03 -0.94560993738E+03  0.10976545262E+04  0.00000000000E+00 0. -1.
<mgrwt>
<rscale>  0 0.25852197E+04</rscale>
<asrwt>0</asrwt>
<pdfrwt beam="1">  1        2 0.16545514E+00 0.25852197E+04</pdfrwt>
<pdfrwt beam="2">  1       -2 0.23901654E+00 0.25852197E+04</pdfrwt>
<totfact> 0.15010786E+00</totfact>
</mgrwt>
</event>
<event>
 6    1  0.1817112E-005  0.2378944E+04  0.7818608E-02  0.8447429E-01
         -2   -1    0    0    0  501 -0.00000000000E+00  0.00000000000E+00  0.96064189527E+03  0.96064189527E+03  0.00000000000E+00 0.  1.
          2   -1    0    0  501    0  0.00000000000E+00 -0.00000000000E+00 -0.14728111114E+04  0.14728111114E+04  0.00000000000E+00 0. -1.
         23    2    1    2    0    0 -0.65197723129E+03  0.64677126732E+02 -0.12689893313E+04  0.14324364595E+04  0.11082800616E+03 0.  0.
         11    1    3    3    0    0 -0.35135057372E+03  0.46656234660E+02 -0.56832997350E+03  0.66979324322E+03  0.00000000000E+00 0. -1.
        -11    1    3    3    0    0 -0.30062665756E+03  0.18020892071E+02 -0.70065935775E+03  0.76264321632E+03  0.00000000000E+00 0.  1.
         22    1    1    2    0    0  0.65197723129E+03 -0.64677126732E+02  0.75682011516E+03  0.10010165471E+04  0.00000000000E+00 0.  1.
<mgrwt>
<rscale>  0 0.23789444E+04</rscale>
<asrwt>0</asrwt>
<pdfrwt beam="1">  1        2 0.22658632E+00 0.23789444E+04</pdfrwt>
<pdfrwt beam="2">  1       -2 0.14779106E+00 0.23789444E+04</pdfrwt>
<totfact> 0.36924051E+00</totfact>
</mgrwt>
</event>
<event>
 6    1  0.2258366E-005  0.4662162E+04  0.7818608E-02  0.7882846E-01
         -2   -1    0    0    0  501 -0.00000000000E+00  0.00000000000E+00  0.20406379256E+04  0.20406379256E+04  0.00000000000E+00 0.  1.
          2   -1    0    0  501    0  0.00000000000E+00 -0.00000000000E+00 -0.26628622135E+04  0.26628622135E+04  0.00000000000E+00 0. -1.
         23    2    1    2    0    0 -0.21668115463E+03 -0.18751284680E+04  0.10672070166E+04  0.21702738114E+04  0.90000588400E+02 0.  0.
         13    1    3    3    0    0 -0.16906168680E+03 -0.11452068657E+04  0.62597649347E+03  0.13160270474E+04  0.00000000000E+00 0.  1.
        -13    1    3    3    0    0 -0.47619467831E+02 -0.72992160236E+03  0.44123052314E+03  0.85424676403E+03  0.00000000000E+00 0. -1.
         22    1    1    2    0    0  0.21668115463E+03  0.18751284680E+04 -0.16894313045E+04  0.25332263276E+04  0.00000000000E+00 0. -1.
<mgrwt>
<rscale>  0 0.46621616E+04</rscale>
<asrwt>0</asrwt>
<pdfrwt beam="1">  1        2 0.40967111E+00 0.46621616E+04</pdfrwt>
<pdfrwt beam="2">  1       -2 0.31394430E+00 0.46621616E+04</pdfrwt>
<totfact> 0.54521966E-02</totfact>
</mgrwt>
</event>
<event>
 6    1  0.1817112E-005  0.3440004E+04  0.7818608E-02  0.8128157E-01
          2   -1    0    0  501    0  0.00000000000E+00  0.00000000000E+00  0.14965004449E+04  0.14965004449E+04  0.00000000000E+00 0. -1.
         -2   -1    0    0    0  501 -0.00000000000E+00 -0.00000000000E+00 -0.19768829314E+04  0.19768829314E+04  0.00000000000E+00 0.  1.
         23    2    1    2    0    0  0.11747887682E+04  0.12371245758E+04 -0.29495525621E+02  0.17087573769E+04  0.91520059109E+02 0.  0.
         13    1    3    3    0    0  0.47766321844E+03  0.56629812091E+03 -0.25352211840E+02  0.74128162438E+03  0.00000000000E+00 0.  1.
        -13    1    3    3    0    0  0.69712554978E+03  0.67082645487E+03 -0.41433137804E+01  0.96747575255E+03  0.00000000000E+00 0. -1.
         22    1    1    2    0    0 -0.11747887682E+04 -0.12371245758E+04 -0.45088696090E+03  0.17646259993E+04  0.00000000000E+00 0.  1.
<mgrwt>
<rscale>  0 0.34400036E+04</rscale>
<asrwt>0</asrwt>
<pdfrwt beam="1">  1        2 0.23023084E+00 0.34400036E+04</pdfrwt>
<pdfrwt beam="2">  1       -2 0.30413584E+00 0.34400036E+04</pdfrwt>
<totfact> 0.31565715E-01</totfact>
</mgrwt>
</event>
<event>
 6    1  0.1817112E-005  0.7468638E+04  0.7818608E-02  0.7530945E-01
         -2   -1    0    0    0  501 -0.00000000000E+00  0.00000000000E+00  0.37786079344E+04  0.37786079344E+04  0.00000000000E+00 0.  1.
          2   -1    0    0  501    0  0.00000000000E+00 -0.00000000000E+00 -0.36905493958E+04  0.36905493958E+04  0.00000000000E+00 0. -1.
         23    2    1    2    0    0 -0.18716148455E+04  0.26200833875E+04 -0.18463460282E+04  0.37128692535E+04  0.92872764519E+02 0.  0.
         13    1    3    3    0    0 -0.13197048924E+04  0.17923339754E+04 -0.12429758818E+04  0.25493275829E+04  0.00000000000E+00 0. -1.
        -13    1    3    3    0    0 -0.55190995306E+03  0.82774941209E+03 -0.60337014641E+03  0.11635416705E+04  0.00000000000E+00 0.  1.
         22    1    1    2    0    0  0.18716148455E+04 -0.26200833875E+04  0.19344045668E+04  0.37562880767E+04  0.00000000000E+00 0.  1.
<mgrwt>
<rscale>  0 0.74686382E+04</rscale>
<asrwt>0</asrwt>
<pdfrwt beam="1">  1        2 0.56777683E+00 0.74686382E+04</pdfrwt>
<pdfrwt beam="2">  1       -2 0.58132430E+00 0.74686382E+04</pdfrwt>
<totfact> 0.22273177E-04</totfact>
</mgrwt>
</event>
<event>
 6    1  0.1817112E-005  0.1236617E+04  0.7818608E-02  0.9081396E-01
         -2   -1    0    0    0  501 -0.00000000000E+00  0.00000000000E+00  0.13215119309E+04  0.13215119309E+04  0.00000000000E+00 0.  1.
          2   -1    0    0  501    0  0.00000000000E+00 -0.00000000000E+00 -0.28929377263E+03  0.28929377263E+03  0.00000000000E+00 0. -1.
         23    2    1    2    0    0 -0.55290234848E+03  0.24939280605E+03  0.66181666196E+03  0.90010531159E+03  0.65501902524E+02 0.  0.
         11    1    3    3    0    0 -0.38636298401E+03  0.17076166754E+03  0.50362935179E+03  0.65732672735E+03  0.00000000000E+00 0. -1.
        -11    1    3    3    0    0 -0.16653936447E+03  0.78631138509E+02  0.15818731017E+03  0.24277858423E+03  0.00000000000E+00 0.  1.
         22    1    1    2    0    0  0.55290234848E+03 -0.24939280605E+03  0.37040149636E+03  0.71070039199E+03  0.00000000000E+00 0.  1.
<mgrwt>
<rscale>  0 0.12366166E+04</rscale>
<asrwt>0</asrwt>
<pdfrwt beam="1">  1        2 0.44506735E-01 0.12366166E+04</pdfrwt>
<pdfrwt beam="2">  1       -2 0.20330952E+00 0.12366166E+04</pdfrwt>
<totfact> 0.14232436E+01</totfact>
</mgrwt>
</event>
<event>
 6    1  0.1817112E-005  0.6787800E+03  0.7818608E-02  0.9754226E-01
          2   -1    0    0  501    0  0.00000000000E+00  0.00000000000E+00  0.22325883109E+04  0.22325883109E+04  0.00000000000E+00 0. -1.
         -2   -1    0    0    0  501 -0.00000000000E+00 -0.00000000000E+00 -0.51592840567E+02  0.51592840567E+02  0.00000000000E+00 0.  1.
         23    2    1    2    0    0  0.24680067607E+03 -0.22295714335E+03  0.11609575284E+04  0.12112888621E+04  0.93690252213E+02 0.  0.
         13    1    3    3    0    0  0.10668269706E+03 -0.86761487745E+02  0.32683067931E+03  0.35458009892E+03  0.00000000000E+00 0. -1.
        -13    1    3    3    0    0  0.14011797901E+03 -0.13619565561E+03  0.83412684906E+03  0.85670876322E+03  0.00000000000E+00 0.  1.
         22    1    1    2    0    0 -0.24680067607E+03  0.22295714335E+03  0.10200379420E+04  0.10728922894E+04  0.00000000000E+00 0.  1.
<mgrwt>
<rscale>  0 0.67878000E+03</rscale>
<asrwt>0</asrwt>
<pdfrwt beam="1">  1        2 0.34347505E+00 0.67878000E+03</pdfrwt>
<pdfrwt beam="2">  1       -2 0.79373618E-02 0.67878000E+03</pdfrwt>
<totfact> 0.51078813E+02</totfact>
</mgrwt>
</event>
<event>
 6    1  0.1817112E-005  0.1268345E+04  0.7818608E-02  0.9055052E-01
          2   -1    0    0  501    0  0.00000000000E+00  0.00000000000E+00  0.11253559992E+04  0.11253559992E+04  0.00000000000E+00 0. -1.
         -2   -1    0    0    0  501 -0.00000000000E+00 -0.00000000000E+00 -0.35737531818E+03  0.35737531818E+03  0.00000000000E+00 0.  1.
         23    2    1    2    0    0  0.27636344531E+03  0.45677206074E+02 -0.27489079901E+03  0.40289610545E+03  0.91088744370E+02 0.  0.
         13    1    3    3    0    0  0.24100464998E+03  0.54517509712E+02 -0.19392683320E+03  0.31410669654E+03  0.00000000000E+00 0.  1.
        -13    1    3    3    0    0  0.35358795333E+02 -0.88403036384E+01 -0.80963965806E+02  0.88789408911E+02  0.00000000000E+00 0. -1.
         22    1    1    2    0    0 -0.27636344531E+03 -0.45677206074E+02  0.10428714800E+04  0.10798352119E+04  0.00000000000E+00 0. -1.
<mgrwt>
<rscale>  0 0.12683445E+04</rscale>
<asrwt>0</asrwt>
<pdfrwt beam="1">  1        2 0.17313169E+00 0.12683445E+04</pdfrwt>
<pdfrwt beam="2">  1       -2 0.54980818E-01 0.12683445E+04</pdfrwt>
<totfact> 0.64226832E+01</totfact>
</mgrwt>
</event>
<event>
 6    1  0.1817112E-005  0.1508283E+04  0.7818608E-02  0.8878964E-01
          2   -1    0    0  501    0  0.00000000000E+00  0.00000000000E+00  0.40668023962E+03  0.40668023962E+03  0.00000000000E+00 0. -1.
         -2   -1    0    0    0  501 -0.00000000000E+00 -0.00000000000E+00 -0.13984677347E+04  0.13984677347E+04  0.00000000000E+00 0.  1.
         23    2    1    2    0    0 -0.46208290549E+03  0.57947367171E+03 -0.64708186720E+03  0.98775436188E+03  0.87369266971E+02 0.  0.
         13    1    3    3    0    0 -0.15291376787E+03  0.15413990498E+03 -0.14782570831E+03  0.26266741470E+03  0.00000000000E+00 0. -1.
        -13    1    3    3    0    0 -0.30916913762E+03  0.42533376673E+03 -0.49925615889E+03  0.72508694718E+03  0.00000000000E+00 0.  1.
         22    1    1    2    0    0  0.46208290549E+03 -0.57947367171E+03 -0.34470562789E+03  0.81739361244E+03  0.00000000000E+00 0. -1.
<mgrwt>
<rscale>  0 0.15082827E+04</rscale>
<asrwt>0</asrwt>
<pdfrwt beam="1">  1        2 0.62566191E-01 0.15082827E+04</pdfrwt>
<pdfrwt beam="2">  1       -2 0.21514888E+00 0.15082827E+04</pdfrwt>
<totfact> 0.79910082E+00</totfact>
</mgrwt>
</event>
<event>
 6    1  0.1817112E-005  0.2730272E+04  0.7818608E-02  0.8325249E-01
          2   -1    0    0  501    0  0.00000000000E+00  0.00000000000E+00  0.33138954050E+04  0.33138954050E+04  0.00000000000E+00 0. -1.
         -2   -1    0    0    0  501 -0.00000000000E+00 -0.00000000000E+00 -0.56235827239E+03  0.56235827239E+03  0.00000000000E+00 0.  1.
         23    2    1    2    0    0  0.40182306328E+03  0.58522279853E+03 -0.27554010177E+03  0.76705055102E+03  0.92177557111E+02 0.  0.
         11    1    3    3    0    0  0.89194812969E+02  0.19195667301E+03 -0.57150401088E+02  0.21924700071E+03  0.00000000000E+00 0. -1.
        -11    1    3    3    0    0  0.31262825031E+03  0.39326612551E+03 -0.21838970068E+03  0.54780355031E+03  0.00000000000E+00 0.  1.
         22    1    1    2    0    0 -0.40182306328E+03 -0.58522279853E+03  0.30270772344E+04  0.31092031263E+04  0.00000000000E+00 0. -1.
<mgrwt>
<rscale>  0 0.27302721E+04</rscale>
<asrwt>0</asrwt>
<pdfrwt beam="1">  1        2 0.50983005E+00 0.27302721E+04</pdfrwt>
<pdfrwt beam="2">  1       -2 0.86516659E-01 0.27302721E+04</pdfrwt>
<totfact> 0.11039727E+00</totfact>
</mgrwt>
</event>
<event>
 6    1  0.1817112E-005  0.2065787E+04  0.7818608E-02  0.8576466E-01
         -2   -1    0    0    0  501 -0.00000000000E+00  0.00000000000E+00  0.61364638400E+03  0.61364638400E+03  0.00000000000E+00 0. -1.
          2   -1    0    0  501    0  0.00000000000E+00 -0.00000000000E+00 -0.17385721572E+04  0.17385721572E+04  0.00000000000E+00 0.  1.
         23    2    1    2    0    0  0.73060524655E+03 -0.19922886561E+03 -0.13596530208E+04  0.15593925528E+04  0.97839815129E+02 0.  0.
         13    1    3    3    0    0  0.34739855831E+03 -0.14484606885E+03 -0.65517722132E+03  0.75559468851E+03  0.00000000000E+00 0. -1.
        -13    1    3    3    0    0  0.38320668824E+03 -0.54382796763E+02 -0.70447579949E+03  0.80379786424E+03  0.00000000000E+00 0.  1.
         22    1    1    2    0    0 -0.73060524655E+03  0.19922886561E+03  0.23472724761E+03  0.79282598844E+03  0.00000000000E+00 0. -1.
<mgrwt>
<rscale>  0 0.20657866E+04</rscale>
<asrwt>0</asrwt>
<pdfrwt beam="1">  1        2 0.26747264E+00 0.20657866E+04</pdfrwt>
<pdfrwt beam="2">  1       -2 0.94407137E-01 0.20657866E+04</pdfrwt>
<totfact> 0.81579041E+00</totfact>
</mgrwt>
</event>
<event>
 6    1  0.1817112E-005  0.8333482E+03  0.7818608E-02  0.9512963E-01
         -2   -1    0    0    0  501 -0.00000000000E+00  0.00000000000E+00  0.50351812332E+02  0.50351812332E+02  0.00000000000E+00 0.  1.
          2   -1    0    0  501    0  0.00000000000E+00 -0.00000000000E+00 -0.34480842003E+04  0.34480842003E+04  0.00000000000E+00 0. -1.
         23    2    1    2    0    0 -0.29093359827E+03 -0.21951948447E+03 -0.25222014920E+04  0.25500766332E+04  0.92516520538E+02 0.  0.
         11    1    3    3    0    0 -0.98653534088E+02 -0.10966536028E+03 -0.12589122206E+04  0.12675247494E+04  0.00000000000E+00 0. -1.
        -11    1    3    3    0    0 -0.19228006418E+03 -0.10985412419E+03 -0.12632892713E+04  0.12825518838E+04  0.00000000000E+00 0.  1.
         22    1    1    2    0    0  0.29093359827E+03  0.21951948447E+03 -0.87553089604E+03  0.94835937945E+03  0.00000000000E+00 0. -1.
<mgrwt>
<rscale>  0 0.83334816E+03</rscale>
<asrwt>0</asrwt>
<pdfrwt beam="1">  1        2 0.53047450E+00 0.83334816E+03</pdfrwt>
<pdfrwt beam="2">  1       -2 0.77464325E-02 0.83334816E+03</pdfrwt>
<totfact> 0.97209807E+01</totfact>
</mgrwt>
</event>
<event>
 6    1  0.1817112E-005  0.3305580E+04  0.7818608E-02  0.8161477E-01
          1   -1    0    0  501    0  0.00000000000E+00  0.00000000000E+00  0.26805393640E+04  0.26805393640E+04  0.00000000000E+00 0. -1.
         -1   -1    0    0    0  501 -0.00000000000E+00 -0.00000000000E+00 -0.10190915977E+04  0.10190915977E+04  0.00000000000E+00 0.  1.
         23    2    1    2    0    0  0.16109340846E+03  0.16394472187E+04  0.96329514686E+03  0.19104536789E+04  0.90318601796E+02 0.  0.
         11    1    3    3    0    0  0.15125325393E+03  0.11134716516E+04  0.64907907869E+03  0.12976903776E+04  0.00000000000E+00 0.  1.
        -11    1    3    3    0    0  0.98401545370E+01  0.52597556712E+03  0.31421606817E+03  0.61276330124E+03  0.00000000000E+00 0. -1.
         22    1    1    2    0    0 -0.16109340846E+03 -0.16394472187E+04  0.69815261949E+03  0.17891772828E+04  0.00000000000E+00 0.  1.
<mgrwt>
<rscale>  0 0.33055802E+04</rscale>
<asrwt>0</asrwt>
<pdfrwt beam="1">  1        1 0.41239067E+00 0.33055802E+04</pdfrwt>
<pdfrwt beam="2">  1       -1 0.15678332E+00 0.33055802E+04</pdfrwt>
<totfact> 0.25960380E-01</totfact>
</mgrwt>
</event>
<event>
 6    1  0.1817112E-005  0.4679080E+03  0.7818608E-02  0.1022512E+00
          1   -1    0    0  501    0  0.00000000000E+00  0.00000000000E+00  0.48153939323E+03  0.48153939323E+03  0.00000000000E+00 0. -1.
         -1   -1    0    0    0  501 -0.00000000000E+00 -0.00000000000E+00 -0.11366563954E+03  0.11366563954E+03  0.00000000000E+00 0.  1.
         23    2    1    2    0    0 -0.34905431407E+02 -0.17817806336E+03  0.21809432752E+02  0.20440287614E+03  0.91318525022E+02 0.  0.
         11    1    3    3    0    0 -0.59985587471E+02 -0.70308763232E+02  0.12568746994E+02  0.93271465585E+02  0.00000000000E+00 0. -1.
        -11    1    3    3    0    0  0.25080156063E+02 -0.10786930013E+03  0.92406857577E+01  0.11113141055E+03  0.00000000000E+00 0.  1.
         22    1    1    2    0    0  0.34905431407E+02  0.17817806336E+03  0.34606432094E+03  0.39080215663E+03  0.00000000000E+00 0. -1.
<mgrwt>
<rscale>  0 0.46790804E+03</rscale>
<asrwt>0</asrwt>
<pdfrwt beam="1">  1        1 0.74082983E-01 0.46790804E+03</pdfrwt>
<pdfrwt beam="2">  1       -1 0.17487022E-01 0.46790804E+03</pdfrwt>
<totfact> 0.11952803E+03</totfact>
</mgrwt>
</event>
<event>
 6    1  0.1817112E-005  0.4237996E+04  0.7818608E-02  0.7958184E-01
          2   -1    0    0  501    0  0.00000000000E+00  0.00000000000E+00  0.24934669594E+04  0.24934669594E+04  0.00000000000E+00 0. -1.
         -2   -1    0    0    0  501 -0.00000000000E+00 -0.00000000000E+00 -0.18007670352E+04  0.18007670352E+04  0.00000000000E+00 0.  1.
         23    2    1    2    0    0  0.62543805312E+03 -0.19766375330E+04 -0.92588413128E+02  0.20772661401E+04  0.90516890666E+02 0.  0.
         11    1    3    3    0    0  0.41629964640E+03 -0.12011585326E+04 -0.29309328341E+02  0.12715920151E+04  0.00000000000E+00 0.  1.
        -11    1    3    3    0    0  0.20913840672E+03 -0.77547900040E+03 -0.63279084787E+02  0.80567412506E+03  0.00000000000E+00 0. -1.
         22    1    1    2    0    0 -0.62543805312E+03  0.19766375330E+04  0.78528833725E+03  0.22169678545E+04  0.00000000000E+00 0. -1.
<mgrwt>
<rscale>  0 0.42379963E+04</rscale>
<asrwt>0</asrwt>
<pdfrwt beam="1">  1        2 0.38361030E+00 0.42379963E+04</pdfrwt>
<pdfrwt beam="2">  1       -2 0.27704108E+00 0.42379963E+04</pdfrwt>
<totfact> 0.11930417E-01</totfact>
</mgrwt>
</event>
<event>
 6    1  0.1817112E-005  0.1503549E+04  0.7818608E-02  0.8882096E-01
         -2   -1    0    0    0  501 -0.00000000000E+00  0.00000000000E+00  0.23231951449E+03  0.23231951449E+03  0.00000000000E+00 0.  1.
          2   -1    0    0  501    0  0.00000000000E+00 -0.00000000000E+00 -0.24327057482E+04  0.24327057482E+04  0.00000000000E+00 0. -1.
         23    2    1    2    0    0  0.13810852582E+03  0.64225925615E+03 -0.46619247187E+03  0.81057145613E+03  0.90109642435E+02 0.  0.
         13    1    3    3    0    0  0.85685438290E+02  0.22118033752E+03 -0.14077643837E+03  0.27582737652E+03  0.00000000000E+00 0. -1.
        -13    1    3    3    0    0  0.52423087532E+02  0.42107891863E+03 -0.32541603350E+03  0.53474407961E+03  0.00000000000E+00 0.  1.
         22    1    1    2    0    0 -0.13810852582E+03 -0.64225925615E+03 -0.17341937619E+04  0.18544538066E+04  0.00000000000E+00 0. -1.
<mgrwt>
<rscale>  0 0.15035492E+04</rscale>
<asrwt>0</asrwt>
<pdfrwt beam="1">  1        2 0.37426242E+00 0.15035492E+04</pdfrwt>
<pdfrwt beam="2">  1       -2 0.35741464E-01 0.15035492E+04</pdfrwt>
<totfact> 0.27124419E+01</totfact>
</mgrwt>
</event>
<event>
 6    1  0.1817112E-005  0.8894550E+03  0.7818608E-02  0.9438860E-01
          2   -1    0    0  501    0  0.00000000000E+00  0.00000000000E+00  0.16035312267E+04  0.16035312267E+04  0.00000000000E+00 0. -1.
         -2   -1    0    0    0  501 -0.00000000000E+00 -0.00000000000E+00 -0.12334188692E+03  0.12334188692E+03  0.00000000000E+00 0.  1.
         23    2    1    2    0    0  0.28290068700E+02 -0.36529879413E+03  0.12208563469E+04  0.12779887876E+04  0.92312428521E+02 0.  0.
         11    1    3    3    0    0  0.50365633732E+02 -0.27587355750E+03  0.10028653260E+04  0.10413365349E+04  0.00000000000E+00 0.  1.
        -11    1    3    3    0    0 -0.22075565032E+02 -0.89425236638E+02  0.21799102089E+03  0.23665225270E+03  0.00000000000E+00 0. -1.
         22    1    1    2    0    0 -0.28290068700E+02  0.36529879413E+03  0.25933299293E+03  0.44888432608E+03  0.00000000000E+00 0.  1.
<mgrwt>
<rscale>  0 0.88945504E+03</rscale>
<asrwt>0</asrwt>
<pdfrwt beam="1">  1        2 0.24669710E+00 0.88945504E+03</pdfrwt>
<pdfrwt beam="2">  1       -2 0.18975676E-01 0.88945504E+03</pdfrwt>
<totfact> 0.26128811E+02</totfact>
</mgrwt>
</event>
<event>
 6    1  0.1817112E-005  0.4669710E+04  0.7818608E-02  0.7881581E-01
         -2   -1    0    0    0  501 -0.00000000000E+00  0.00000000000E+00  0.12161802024E+04  0.12161802024E+04  0.00000000000E+00 0.  1.
          2   -1    0    0  501    0  0.00000000000E+00 -0.00000000000E+00 -0.44825159386E+04  0.44825159386E+04  0.00000000000E+00 0. -1.
         23    2    1    2    0    0 -0.16538560263E+04 -0.15045586217E+04 -0.81661499902E+03  0.23820610853E+04  0.91752686837E+02 0.  0.
         11    1    3    3    0    0 -0.22722517452E+03 -0.24019413744E+03 -0.98407822058E+02  0.34497623547E+03  0.00000000000E+00 0.  1.
        -11    1    3    3    0    0 -0.14266308518E+04 -0.12643644843E+04 -0.71820717696E+03  0.20370848498E+04  0.00000000000E+00 0. -1.
         22    1    1    2    0    0  0.16538560263E+04  0.15045586217E+04 -0.24497207372E+04  0.33166350556E+04  0.00000000000E+00 0. -1.
<mgrwt>
<rscale>  0 0.46697097E+04</rscale>
<asrwt>0</asrwt>
<pdfrwt beam="1">  1        2 0.68961783E+00 0.46697097E+04</pdfrwt>
<pdfrwt beam="2">  1       -2 0.18710465E+00 0.46697097E+04</pdfrwt>
<totfact> 0.15374217E-02</totfact>
</mgrwt>
</event>
<event>
 6    1  0.1817112E-005  0.5250620E+04  0.7818608E-02  0.7790968E-01
          2   -1    0    0  501    0  0.00000000000E+00  0.00000000000E+00  0.29112984444E+04  0.29112984444E+04  0.00000000000E+00 0. -1.
         -2   -1    0    0    0  501 -0.00000000000E+00 -0.00000000000E+00 -0.23674154643E+04  0.23674154643E+04  0.00000000000E+00 0.  1.
         23    2    1    2    0    0 -0.17102136876E+04 -0.10274341954E+04 -0.14421705095E+04  0.24636010609E+04  0.94986975728E+02 0.  0.
         13    1    3    3    0    0 -0.12918649502E+04 -0.80301645839E+03 -0.11395343272E+04  0.19006022637E+04  0.00000000000E+00 0. -1.
        -13    1    3    3    0    0 -0.41834873733E+03 -0.22441773705E+03 -0.30263618233E+03  0.56299879714E+03  0.00000000000E+00 0.  1.
         22    1    1    2    0    0  0.17102136876E+04  0.10274341954E+04  0.19860534896E+04  0.28151128479E+04  0.00000000000E+00 0. -1.
<mgrwt>
<rscale>  0 0.52506201E+04</rscale>
<asrwt>0</asrwt>
<pdfrwt beam="1">  1        2 0.44789207E+00 0.52506201E+04</pdfrwt>
<pdfrwt beam="2">  1       -2 0.36421776E+00 0.52506201E+04</pdfrwt>
<totfact> 0.17836248E-02</totfact>
</mgrwt>
</event>
<event>
 6    1  0.1817112E-005  0.9786511E+03  0.7818608E-02  0.9332275E-01
          2   -1    0    0  501    0  0.00000000000E+00  0.00000000000E+00  0.54746891001E+03  0.54746891001E+03  0.00000000000E+00 0. -1.
         -2   -1    0    0    0  501 -0.00000000000E+00 -0.00000000000E+00 -0.43735723294E+03  0.43735723294E+03  0.00000000000E+00 0.  1.
         23    2    1    2    0    0 -0.38471266642E+03 -0.42015394085E+02  0.35069868183E+03  0.52913849126E+03  0.85022634973E+02 0.  0.
         13    1    3    3    0    0 -0.29248415694E+03 -0.67150008265E+02  0.25385427705E+03  0.39306246278E+03  0.00000000000E+00 0. -1.
        -13    1    3    3    0    0 -0.92228509474E+02  0.25134614180E+02  0.96844404780E+02  0.13607602848E+03  0.00000000000E+00 0.  1.
         22    1    1    2    0    0  0.38471266642E+03  0.42015394085E+02 -0.24058700475E+03  0.45568765169E+03  0.00000000000E+00 0.  1.
<mgrwt>
<rscale>  0 0.97865109E+03</rscale>
<asrwt>0</asrwt>
<pdfrwt beam="1">  1        2 0.84225986E-01 0.97865109E+03</pdfrwt>
<pdfrwt beam="2">  1       -2 0.67285728E-01 0.97865109E+03</pdfrwt>
<totfact> 0.11218071E+02</totfact>
</mgrwt>
</event>
<event>
 6    1  0.1817112E-005  0.6767339E+03  0.7818608E-02  0.9757869E-01
          2   -1    0    0  501    0  0.00000000000E+00  0.00000000000E+00  0.26769797227E+04  0.26769797227E+04  0.00000000000E+00 0. -1.
         -2   -1    0    0    0  501 -0.00000000000E+00 -0.00000000000E+00 -0.42769172158E+02  0.42769172158E+02  0.00000000000E+00 0.  1.
         23    2    1    2    0    0  0.31148594013E+03  0.10261653326E+03  0.11323360321E+04  0.11824848600E+04  0.92368342441E+02 0.  0.
         13    1    3    3    0    0  0.28744744499E+03  0.11802751389E+03  0.10633707512E+04  0.11078419933E+04  0.00000000000E+00 0. -1.
        -13    1    3    3    0    0  0.24038495139E+02 -0.15410980629E+02  0.68965280927E+02  0.74642866678E+02  0.00000000000E+00 0.  1.
         22    1    1    2    0    0 -0.31148594013E+03 -0.10261653326E+03  0.15018745184E+04  0.15372640348E+04  0.00000000000E+00 0. -1.
<mgrwt>
<rscale>  0 0.67673394E+03</rscale>
<asrwt>0</asrwt>
<pdfrwt beam="1">  1        2 0.41184290E+00 0.67673394E+03</pdfrwt>
<pdfrwt beam="2">  1       -2 0.65798748E-02 0.67673394E+03</pdfrwt>
<totfact> 0.38676380E+02</totfact>
</mgrwt>
</event>
<event>
 6    1  0.1817112E-005  0.1040984E+04  0.7818608E-02  0.9264702E-01
         -2   -1    0    0    0  501 -0.00000000000E+00  0.00000000000E+00  0.14893714861E+03  0.14893714861E+03  0.00000000000E+00 0.  1.
          2   -1    0    0  501    0  0.00000000000E+00 -0.00000000000E+00 -0.18189687823E+04  0.18189687823E+04  0.00000000000E+00 0. -1.
         23    2    1    2    0    0 -0.32540761973E+03 -0.23103716413E+03 -0.14615864174E+04  0.15176641088E+04  0.88324409478E+02 0.  0.
         13    1    3    3    0    0 -0.27261905341E+03 -0.22060796015E+03 -0.13309864222E+04  0.13764134104E+04  0.00000000000E+00 0. -1.
        -13    1    3    3    0    0 -0.52788566322E+02 -0.10429203978E+02 -0.13059999521E+03  0.14125069833E+03  0.00000000000E+00 0.  1.
         22    1    1    2    0    0  0.32540761973E+03  0.23103716413E+03 -0.20844521625E+03  0.45024182210E+03  0.00000000000E+00 0.  1.
<mgrwt>
<rscale>  0 0.10409842E+04</rscale>
<asrwt>0</asrwt>
<pdfrwt beam="1">  1        2 0.27984134E+00 0.10409842E+04</pdfrwt>
<pdfrwt beam="2">  1       -2 0.22913408E-01 0.10409842E+04</pdfrwt>
<totfact> 0.14101664E+02</totfact>
</mgrwt>
</event>
<event>
 6    1  0.1817112E-005  0.2566021E+04  0.7818608E-02  0.8379836E-01
          2   -1    0    0  501    0  0.00000000000E+00  0.00000000000E+00  0.26762023988E+04  0.26762023988E+04  0.00000000000E+00 0. -1.
         -2   -1    0    0    0  501 -0.00000000000E+00 -0.00000000000E+00 -0.61509381017E+03  0.61509381017E+03  0.00000000000E+00 0.  1.
         23    2    1    2    0    0  0.67850939264E+02  0.12717891912E+04  0.85213554119E+03  0.15352588157E+04  0.93984859587E+02 0.  0.
         11    1    3    3    0    0  0.83688676395E+02  0.71679994866E+03  0.49426146198E+03  0.87470015077E+03  0.00000000000E+00 0.  1.
        -11    1    3    3    0    0 -0.15837737131E+02  0.55498924259E+03  0.35787407920E+03  0.66055866498E+03  0.00000000000E+00 0. -1.
         22    1    1    2    0    0 -0.67850939264E+02 -0.12717891912E+04  0.12089730475E+04  0.17560373932E+04  0.00000000000E+00 0.  1.
<mgrwt>
<rscale>  0 0.25660207E+04</rscale>
<asrwt>0</asrwt>
<pdfrwt beam="1">  1        2 0.41172344E+00 0.25660207E+04</pdfrwt>
<pdfrwt beam="2">  1       -2 0.94629818E-01 0.25660207E+04</pdfrwt>
<totfact> 0.22885214E+00</totfact>
</mgrwt>
</event>
<event>
 6    1  0.1817112E-005  0.3739842E+04  0.7818608E-02  0.8059189E-01
          1   -1    0    0  501    0  0.00000000000E+00  0.00000000000E+00  0.31712637160E+04  0.31712637160E+04  0.00000000000E+00 0. -1.
         -1   -1    0    0    0  501 -0.00000000000E+00 -0.00000000000E+00 -0.11025900647E+04  0.11025900647E+04  0.00000000000E+00 0.  1.
         23    2    1    2    0    0 -0.68248051994E+03  0.16421813311E+04  0.37858096313E+03  0.18204984295E+04  0.91388194426E+02 0.  0.
         11    1    3    3    0    0 -0.60788793032E+03  0.14684427383E+04  0.30916793462E+03  0.16190851192E+04  0.00000000000E+00 0. -1.
        -11    1    3    3    0    0 -0.74592589615E+02  0.17373859278E+03  0.69413028504E+02  0.20141331032E+03  0.00000000000E+00 0.  1.
         22    1    1    2    0    0  0.68248051994E+03 -0.16421813311E+04  0.16900926882E+04  0.24533553511E+04  0.00000000000E+00 0. -1.
<mgrwt>
<rscale>  0 0.37398416E+04</rscale>
<asrwt>0</asrwt>
<pdfrwt beam="1">  1        1 0.48788672E+00 0.37398416E+04</pdfrwt>
<pdfrwt beam="2">  1       -1 0.16962924E+00 0.37398416E+04</pdfrwt>
<totfact> 0.88363874E-02</totfact>
</mgrwt>
</event>
<event>
 6    1  0.1817112E-005  0.3255163E+04  0.7818608E-02  0.8174399E-01
         -2   -1    0    0    0  501 -0.00000000000E+00  0.00000000000E+00  0.74805902753E+03  0.74805902753E+03  0.00000000000E+00 0.  1.
          2   -1    0    0  501    0  0.00000000000E+00 -0.00000000000E+00 -0.35411932405E+04  0.35411932405E+04  0.00000000000E+00 0. -1.
         23    2    1    2    0    0  0.15480599972E+04 -0.45767553291E+03 -0.11374185531E+04  0.19768182701E+04  0.90182369187E+02 0.  0.
         11    1    3    3    0    0  0.70595593127E+03 -0.22447688682E+03 -0.57372950386E+03  0.93697875814E+03  0.00000000000E+00 0.  1.
        -11    1    3    3    0    0  0.84210406595E+03 -0.23319864609E+03 -0.56368904923E+03  0.10398395120E+04  0.00000000000E+00 0. -1.
         22    1    1    2    0    0 -0.15480599972E+04  0.45767553291E+03 -0.16557156599E+04  0.23124339980E+04  0.00000000000E+00 0. -1.
<mgrwt>
<rscale>  0 0.32551630E+04</rscale>
<asrwt>0</asrwt>
<pdfrwt beam="1">  1        2 0.54479896E+00 0.32551630E+04</pdfrwt>
<pdfrwt beam="2">  1       -2 0.11508601E+00 0.32551630E+04</pdfrwt>
<totfact> 0.37464935E-01</totfact>
</mgrwt>
</event>
<event>
 6    1  0.1817112E-005  0.2471938E+04  0.7818608E-02  0.8413051E-01
         -1   -1    0    0    0  501 -0.00000000000E+00  0.00000000000E+00  0.10860798025E+04  0.10860798025E+04  0.00000000000E+00 0.  1.
          1   -1    0    0  501    0  0.00000000000E+00 -0.00000000000E+00 -0.14065447986E+04  0.14065447986E+04  0.00000000000E+00 0. -1.
         23    2    1    2    0    0  0.54554459094E+03  0.50086008623E+03  0.83511784906E+03  0.11200899244E+04  0.93273202110E+02 0.  0.
         13    1    3    3    0    0  0.41371636896E+02  0.24163973424E+02  0.89875183537E+02  0.10184821337E+03  0.00000000000E+00 0.  1.
        -13    1    3    3    0    0  0.50417295405E+03  0.47669611281E+03  0.74524266552E+03  0.10182417110E+04  0.00000000000E+00 0. -1.
         22    1    1    2    0    0 -0.54554459094E+03 -0.50086008623E+03 -0.11555828451E+04  0.13725346767E+04  0.00000000000E+00 0. -1.
<mgrwt>
<rscale>  0 0.24719384E+04</rscale>
<asrwt>0</asrwt>
<pdfrwt beam="1">  1        1 0.21639151E+00 0.24719384E+04</pdfrwt>
<pdfrwt beam="2">  1       -1 0.16708920E+00 0.24719384E+04</pdfrwt>
<totfact> 0.17505457E+00</totfact>
</mgrwt>
</event>
<event>
 6    1  0.1817112E-005  0.1742340E+04  0.7818608E-02  0.8737578E-01
          2   -1    0    0  501    0  0.00000000000E+00  0.00000000000E+00  0.96285946140E+03  0.96285946140E+03  0.00000000000E+00 0. -1.
         -2   -1    0    0    0  501 -0.00000000000E+00 -0.00000000000E+00 -0.78821171999E+03  0.78821171999E+03  0.00000000000E+00 0.  1.
         23    2    1    2    0    0 -0.29684330469E+03 -0.79180470754E+03 -0.11671953497E+03  0.85666325870E+03  0.71957255037E+02 0.  0.
         11    1    3    3    0    0 -0.12179783759E+03 -0.37275590620E+03 -0.86111699955E+02  0.40149334206E+03  0.00000000000E+00 0.  1.
        -11    1    3    3    0    0 -0.17504546710E+03 -0.41904880133E+03 -0.30607835018E+02  0.45516991664E+03  0.00000000000E+00 0. -1.
         22    1    1    2    0    0  0.29684330469E+03  0.79180470754E+03  0.29136727639E+03  0.89440792269E+03  0.00000000000E+00 0. -1.
<mgrwt>
<rscale>  0 0.17423399E+04</rscale>
<asrwt>0</asrwt>
<pdfrwt beam="1">  1        2 0.14813222E+00 0.17423399E+04</pdfrwt>
<pdfrwt beam="2">  1       -2 0.12126334E+00 0.17423399E+04</pdfrwt>
<totfact> 0.13064252E+01</totfact>
</mgrwt>
</event>
<event>
 6    1  0.1817112E-005  0.7353613E+03  0.7818608E-02  0.9658600E-01
         -2   -1    0    0    0  501 -0.00000000000E+00  0.00000000000E+00  0.87562006832E+02  0.87562006832E+02  0.00000000000E+00 0.  1.
          2   -1    0    0  501    0  0.00000000000E+00 -0.00000000000E+00 -0.15439236928E+04  0.15439236928E+04  0.00000000000E+00 0. -1.
         23    2    1    2    0    0  0.15430727123E+03  0.18910361927E+03 -0.14673820761E+03  0.29931282503E+03  0.92114889552E+02 0.  0.
         13    1    3    3    0    0  0.76856939370E+02  0.30128779626E+02 -0.32127703952E+02  0.88582853038E+02  0.00000000000E+00 0. -1.
        -13    1    3    3    0    0  0.77450331856E+02  0.15897483965E+03 -0.11461050366E+03  0.21072997199E+03  0.00000000000E+00 0.  1.
         22    1    1    2    0    0 -0.15430727123E+03 -0.18910361927E+03 -0.13096234783E+04  0.13321728746E+04  0.00000000000E+00 0. -1.
<mgrwt>
<rscale>  0 0.73536129E+03</rscale>
<asrwt>0</asrwt>
<pdfrwt beam="1">  1        2 0.23752671E+00 0.73536129E+03</pdfrwt>
<pdfrwt beam="2">  1       -2 0.13471079E-01 0.73536129E+03</pdfrwt>
<totfact> 0.51048920E+02</totfact>
</mgrwt>
</event>
<event>
 6    1  0.1817112E-005  0.6544452E+04  0.7818608E-02  0.7626333E-01
         -2   -1    0    0    0  501 -0.00000000000E+00  0.00000000000E+00  0.44242526847E+04  0.44242526847E+04  0.00000000000E+00 0.  1.
          2   -1    0    0  501    0  0.00000000000E+00 -0.00000000000E+00 -0.24201743649E+04  0.24201743649E+04  0.00000000000E+00 0. -1.
         23    2    1    2    0    0 -0.21554080334E+04  0.16958314847E+03  0.35701333667E+04  0.41747696475E+04  0.91143397130E+02 0.  0.
         13    1    3    3    0    0 -0.60442561326E+03  0.76447574661E+02  0.10625557862E+04  0.12248262540E+04  0.00000000000E+00 0.  1.
        -13    1    3    3    0    0 -0.15509824201E+04  0.93135573808E+02  0.25075775805E+04  0.29499433935E+04  0.00000000000E+00 0. -1.
         22    1    1    2    0    0  0.21554080334E+04 -0.16958314847E+03 -0.15660550469E+04  0.26696574021E+04  0.00000000000E+00 0.  1.
<mgrwt>
<rscale>  0 0.65444520E+04</rscale>
<asrwt>0</asrwt>
<pdfrwt beam="1">  1        2 0.37233452E+00 0.65444520E+04</pdfrwt>
<pdfrwt beam="2">  1       -2 0.68065426E+00 0.65444520E+04</pdfrwt>
<totfact> 0.67956272E-04</totfact>
</mgrwt>
</event>
<event>
 6    1  0.1817112E-005  0.2477306E+04  0.7818608E-02  0.8411115E-01
          2   -1    0    0  501    0  0.00000000000E+00  0.00000000000E+00  0.11213658852E+04  0.11213658852E+04  0.00000000000E+00 0. -1.
         -2   -1    0    0    0  501 -0.00000000000E+00 -0.00000000000E+00 -0.13682077678E+04  0.13682077678E+04  0.00000000000E+00 0.  1.
         23    2    1    2    0    0  0.35136812562E+03  0.70630093825E+03 -0.10812436539E+04  0.13412936824E+04  0.87523301796E+02 0.  0.
         13    1    3    3    0    0  0.59769040158E+02  0.81540471956E+02 -0.18154726018E+03  0.20779940906E+03  0.00000000000E+00 0.  1.
        -13    1    3    3    0    0  0.29159908546E+03  0.62476046629E+03 -0.89969639370E+03  0.11334942734E+04  0.00000000000E+00 0. -1.
         22    1    1    2    0    0 -0.35136812562E+03 -0.70630093825E+03  0.83440177119E+03  0.11482799706E+04  0.00000000000E+00 0. -1.
<mgrwt>
<rscale>  0 0.24773062E+04</rscale>
<asrwt>0</asrwt>
<pdfrwt beam="1">  1        2 0.17251783E+00 0.24773062E+04</pdfrwt>
<pdfrwt beam="2">  1       -2 0.21049350E+00 0.24773062E+04</pdfrwt>
<totfact> 0.21466600E+00</totfact>
</mgrwt>
</event>
<event>
 6    1  0.1817112E-005  0.1754517E+04  0.7818608E-02  0.8730868E-01
          2   -1    0    0  501    0  0.00000000000E+00  0.00000000000E+00  0.66875129509E+03  0.66875129509E+03  0.00000000000E+00 0. -1.
         -2   -1    0    0    0  501 -0.00000000000E+00 -0.00000000000E+00 -0.11507751476E+04  0.11507751476E+04  0.00000000000E+00 0.  1.
         23    2    1    2    0    0 -0.63129017137E+03 -0.50169583913E+03 -0.59405493834E+03  0.10054152957E+04  0.87935497086E+02 0.  0.
         11    1    3    3    0    0 -0.41160089625E+03 -0.34729364054E+03 -0.34790372718E+03  0.64114364532E+03  0.00000000000E+00 0.  1.
        -11    1    3    3    0    0 -0.21968927512E+03 -0.15440219859E+03 -0.24615121116E+03  0.36427165041E+03  0.00000000000E+00 0. -1.
         22    1    1    2    0    0  0.63129017137E+03  0.50169583913E+03  0.11203108582E+03  0.81411114699E+03  0.00000000000E+00 0. -1.
<mgrwt>
<rscale>  0 0.17545169E+04</rscale>
<asrwt>0</asrwt>
<pdfrwt beam="1">  1        2 0.10288482E+00 0.17545169E+04</pdfrwt>
<pdfrwt beam="2">  1       -2 0.17704233E+00 0.17545169E+04</pdfrwt>
<totfact> 0.78112402E+00</totfact>
</mgrwt>
</event>
<event>
 6    1  0.1817112E-005  0.6777447E+04  0.7818608E-02  0.7600833E-01
          2   -1    0    0  501    0  0.00000000000E+00  0.00000000000E+00  0.20551236476E+04  0.20551236476E+04  0.00000000000E+00 0.  1.
         -2   -1    0    0    0  501 -0.00000000000E+00 -0.00000000000E+00 -0.55877151220E+04  0.55877151220E+04  0.00000000000E+00 0. -1.
         23    2    1    2    0    0 -0.27482540019E+04 -0.60293138769E+03 -0.38951634629E+04  0.48059593636E+04  0.92307554865E+02 0.  0.
         11    1    3    3    0    0 -0.88917883249E+03 -0.20393493943E+03 -0.13358925276E+04  0.16176641496E+04  0.00000000000E+00 0. -1.
        -11    1    3    3    0    0 -0.18590751695E+04 -0.39899644826E+03 -0.25592709353E+04  0.31882952140E+04  0.00000000000E+00 0.  1.
         22    1    1    2    0    0  0.27482540019E+04  0.60293138769E+03  0.36257198840E+03  0.28368794060E+04  0.00000000000E+00 0.  1.
<mgrwt>
<rscale>  0 0.67774466E+04</rscale>
<asrwt>0</asrwt>
<pdfrwt beam="1">  1        2 0.31617287E+00 0.67774466E+04</pdfrwt>
<pdfrwt beam="2">  1       -2 0.85964847E+00 0.67774466E+04</pdfrwt>
<totfact> 0.10414040E-04</totfact>
</mgrwt>
</event>
<event>
 6    1  0.1817112E-005  0.3243263E+04  0.7818608E-02  0.8177484E-01
         -2   -1    0    0    0  501 -0.00000000000E+00  0.00000000000E+00  0.63049153284E+03  0.63049153284E+03  0.00000000000E+00 0.  1.
          2   -1    0    0  501    0  0.00000000000E+00 -0.00000000000E+00 -0.41708555687E+04  0.41708555687E+04  0.00000000000E+00 0. -1.
         23    2    1    2    0    0  0.10436765205E+04  0.11966834424E+04 -0.22494971586E+04  0.27549724448E+04  0.91234665849E+02 0.  0.
         11    1    3    3    0    0  0.42232775419E+03  0.51143659697E+03 -0.86838697614E+03  0.10927140820E+04  0.00000000000E+00 0. -1.
        -11    1    3    3    0    0  0.62134876635E+03  0.68524684547E+03 -0.13811101825E+04  0.16622583628E+04  0.00000000000E+00 0.  1.
         22    1    1    2    0    0 -0.10436765205E+04 -0.11966834424E+04 -0.12908668773E+04  0.20463746568E+04  0.00000000000E+00 0. -1.
<mgrwt>
<rscale>  0 0.32432632E+04</rscale>
<asrwt>0</asrwt>
<pdfrwt beam="1">  1        2 0.64167011E+00 0.32432632E+04</pdfrwt>
<pdfrwt beam="2">  1       -2 0.96998694E-01 0.32432632E+04</pdfrwt>
<totfact> 0.18311456E-01</totfact>
</mgrwt>
</event>
<event>
 6    1  0.1817112E-005  0.1907396E+04  0.7818608E-02  0.8651184E-01
          1   -1    0    0  501    0  0.00000000000E+00  0.00000000000E+00  0.11797552117E+04  0.11797552117E+04  0.00000000000E+00 0. -1.
         -1   -1    0    0    0  501 -0.00000000000E+00 -0.00000000000E+00 -0.77095631778E+03  0.77095631778E+03  0.00000000000E+00 0.  1.
         23    2    1    2    0    0 -0.75829881293E+03  0.48305956230E+03 -0.11389645604E+03  0.91072400105E+03  0.89900906390E+02 0.  0.
         13    1    3    3    0    0 -0.65664401940E+03  0.39609285379E+03 -0.70544315634E+02  0.77009571970E+03  0.00000000000E+00 0. -1.
        -13    1    3    3    0    0 -0.10165479353E+03  0.86966708510E+02 -0.43352140409E+02  0.14062828135E+03  0.00000000000E+00 0.  1.
         22    1    1    2    0    0  0.75829881293E+03 -0.48305956230E+03  0.52269534999E+03  0.10399875284E+04  0.00000000000E+00 0.  1.
<mgrwt>
<rscale>  0 0.19073959E+04</rscale>
<asrwt>0</asrwt>
<pdfrwt beam="1">  1        1 0.18150080E+00 0.19073959E+04</pdfrwt>
<pdfrwt beam="2">  1       -1 0.11860866E+00 0.19073959E+04</pdfrwt>
<totfact> 0.65870242E+00</totfact>
</mgrwt>
</event>
<event>
 6    1  0.1817112E-005  0.2636325E+04  0.7818608E-02  0.8355966E-01
         -2   -1    0    0    0  501 -0.00000000000E+00  0.00000000000E+00  0.57523032053E+03  0.57523032053E+03  0.00000000000E+00 0.  1.
          2   -1    0    0  501    0  0.00000000000E+00 -0.00000000000E+00 -0.30206200574E+04  0.30206200574E+04  0.00000000000E+00 0. -1.
         23    2    1    2    0    0 -0.67601382003E+03  0.27756939934E+03  0.26953031755E+03  0.78429736256E+03  0.91849357732E+02 0.  0.
         11    1    3    3    0    0 -0.30786756203E+03  0.95521791241E+02  0.80845105829E+02  0.33232932385E+03  0.00000000000E+00 0.  1.
        -11    1    3    3    0    0 -0.36814625800E+03  0.18204760810E+03  0.18868521172E+03  0.45196803871E+03  0.00000000000E+00 0. -1.
         22    1    1    2    0    0  0.67601382003E+03 -0.27756939934E+03 -0.27149200544E+04  0.28115530154E+04  0.00000000000E+00 0. -1.
<mgrwt>
<rscale>  0 0.26363249E+04</rscale>
<asrwt>0</asrwt>
<pdfrwt beam="1">  1        2 0.46471078E+00 0.26363249E+04</pdfrwt>
<pdfrwt beam="2">  1       -2 0.88496973E-01 0.26363249E+04</pdfrwt>
<totfact> 0.16371635E+00</totfact>
</mgrwt>
</event>
<event>
 6    1  0.1817112E-005  0.8149351E+03  0.7818608E-02  0.9538647E-01
         -2   -1    0    0    0  501 -0.00000000000E+00  0.00000000000E+00  0.61584434420E+02  0.61584434420E+02  0.00000000000E+00 0.  1.
          2   -1    0    0  501    0  0.00000000000E+00 -0.00000000000E+00 -0.26959701220E+04  0.26959701220E+04  0.00000000000E+00 0. -1.
         23    2    1    2    0    0  0.39842617966E+03 -0.38590217033E+02 -0.11993698489E+04  0.12677548777E+04  0.92096525224E+02 0.  0.
         13    1    3    3    0    0  0.17038271854E+03 -0.40230788156E+02 -0.64437393865E+03  0.66773240142E+03  0.00000000000E+00 0. -1.
        -13    1    3    3    0    0  0.22804346112E+03  0.16405711229E+01 -0.55499591027E+03  0.60002247629E+03  0.00000000000E+00 0.  1.
         22    1    1    2    0    0 -0.39842617966E+03  0.38590217033E+02 -0.14350158386E+04  0.14897996787E+04  0.00000000000E+00 0.  1.
<mgrwt>
<rscale>  0 0.81493508E+03</rscale>
<asrwt>0</asrwt>
<pdfrwt beam="1">  1        2 0.41476458E+00 0.81493508E+03</pdfrwt>
<pdfrwt beam="2">  1       -2 0.94745296E-02 0.81493508E+03</pdfrwt>
<totfact> 0.20758677E+02</totfact>
</mgrwt>
</event>
<event>
 6    1  0.1817112E-005  0.1112839E+04  0.7818608E-02  0.9192768E-01
          2   -1    0    0  501    0  0.00000000000E+00  0.00000000000E+00  0.14637799455E+04  0.14637799455E+04  0.00000000000E+00 0. -1.
         -2   -1    0    0    0  501 -0.00000000000E+00 -0.00000000000E+00 -0.21150898465E+03  0.21150898465E+03  0.00000000000E+00 0.  1.
         23    2    1    2    0    0  0.35251031065E+03  0.39524218282E+03  0.39160982202E+03  0.66473586470E+03  0.89641591444E+02 0.  0.
         13    1    3    3    0    0  0.26627663610E+03  0.34384467634E+03  0.33890960303E+03  0.55135481081E+03  0.00000000000E+00 0. -1.
        -13    1    3    3    0    0  0.86233674545E+02  0.51397506485E+02  0.52700218991E+02  0.11338105389E+03  0.00000000000E+00 0.  1.
         22    1    1    2    0    0 -0.35251031065E+03 -0.39524218282E+03  0.86066113879E+03  0.10105530654E+04  0.00000000000E+00 0. -1.
<mgrwt>
<rscale>  0 0.11128389E+04</rscale>
<asrwt>0</asrwt>
<pdfrwt beam="1">  1        2 0.22519691E+00 0.11128389E+04</pdfrwt>
<pdfrwt beam="2">  1       -2 0.32539845E-01 0.11128389E+04</pdfrwt>
<totfact> 0.11610906E+02</totfact>
</mgrwt>
</event>
<event>
 6    1  0.1817112E-005  0.1589688E+04  0.7818608E-02  0.8826908E-01
          2   -1    0    0  501    0  0.00000000000E+00  0.00000000000E+00  0.63425040048E+03  0.63425040048E+03  0.00000000000E+00 0. -1.
         -2   -1    0    0    0  501 -0.00000000000E+00 -0.00000000000E+00 -0.99609988522E+03  0.99609988522E+03  0.00000000000E+00 0.  1.
         23    2    1    2    0    0 -0.56512818810E+03 -0.49591501125E+03 -0.43808841684E+03  0.87462947606E+03  0.88055051260E+02 0.  0.
         13    1    3    3    0    0 -0.28822809593E+03 -0.28729874724E+03 -0.19541588453E+03  0.45144586982E+03  0.00000000000E+00 0. -1.
        -13    1    3    3    0    0 -0.27690009216E+03 -0.20861626402E+03 -0.24267253231E+03  0.42318360624E+03  0.00000000000E+00 0.  1.
         22    1    1    2    0    0  0.56512818810E+03  0.49591501125E+03  0.76238932102E+02  0.75572080965E+03  0.00000000000E+00 0. -1.
<mgrwt>
<rscale>  0 0.15896877E+04</rscale>
<asrwt>0</asrwt>
<pdfrwt beam="1">  1        2 0.97576985E-01 0.15896877E+04</pdfrwt>
<pdfrwt beam="2">  1       -2 0.15324614E+00 0.15896877E+04</pdfrwt>
<totfact> 0.12578758E+01</totfact>
</mgrwt>
</event>
<event>
 6    1  0.1817112E-005  0.1073422E+04  0.7818608E-02  0.9231491E-01
         -2   -1    0    0    0  501 -0.00000000000E+00  0.00000000000E+00  0.13120276250E+03  0.13120276250E+03  0.00000000000E+00 0.  1.
          2   -1    0    0  501    0  0.00000000000E+00 -0.00000000000E+00 -0.21955211929E+04  0.21955211929E+04  0.00000000000E+00 0. -1.
         23    2    1    2    0    0 -0.76965768450E+02  0.52435939750E+03 -0.11643562495E+04  0.12823062064E+04  0.87790797218E+02 0.  0.
         13    1    3    3    0    0 -0.49005773834E+01  0.27428915764E+03 -0.53414601240E+03  0.60047524530E+03  0.00000000000E+00 0.  1.
        -13    1    3    3    0    0 -0.72065191066E+02  0.25007023986E+03 -0.63021023709E+03  0.68183096114E+03  0.00000000000E+00 0. -1.
         22    1    1    2    0    0  0.76965768450E+02 -0.52435939750E+03 -0.89996218088E+03  0.10444177489E+04  0.00000000000E+00 0. -1.
<mgrwt>
<rscale>  0 0.10734215E+04</rscale>
<asrwt>0</asrwt>
<pdfrwt beam="1">  1        2 0.33777251E+00 0.10734215E+04</pdfrwt>
<pdfrwt beam="2">  1       -2 0.20185039E-01 0.10734215E+04</pdfrwt>
<totfact> 0.10914738E+02</totfact>
</mgrwt>
</event>
<event>
 6    1  0.1817112E-005  0.1877636E+04  0.7818608E-02  0.8666069E-01
          2   -1    0    0  501    0  0.00000000000E+00  0.00000000000E+00  0.11910039991E+04  0.11910039991E+04  0.00000000000E+00 0.  1.
         -2   -1    0    0    0  501 -0.00000000000E+00 -0.00000000000E+00 -0.74003047755E+03  0.74003047755E+03  0.00000000000E+00 0. -1.
         23    2    1    2    0    0 -0.54710575815E+03  0.75104158570E+03  0.34603931629E+03  0.99594123985E+03  0.93635307250E+02 0.  0.
         13    1    3    3    0    0 -0.20438296954E+03  0.25610843508E+03  0.77237663991E+02  0.33664459819E+03  0.00000000000E+00 0. -1.
        -13    1    3    3    0    0 -0.34272278862E+03  0.49493315062E+03  0.26880165230E+03  0.65929664166E+03  0.00000000000E+00 0.  1.
         22    1    1    2    0    0  0.54710575815E+03 -0.75104158570E+03  0.10493420523E+03  0.93509323678E+03  0.00000000000E+00 0.  1.
<mgrwt>
<rscale>  0 0.18776360E+04</rscale>
<asrwt>0</asrwt>
<pdfrwt beam="1">  1        2 0.18323138E+00 0.18776360E+04</pdfrwt>
<pdfrwt beam="2">  1       -2 0.11385084E+00 0.18776360E+04</pdfrwt>
<totfact> 0.10874776E+01</totfact>
</mgrwt>
</event>
<event>
 6    1  0.1817112E-005  0.6303836E+04  0.7818608E-02  0.7653830E-01
          2   -1    0    0  501    0  0.00000000000E+00  0.00000000000E+00  0.32577330850E+04  0.32577330850E+04  0.00000000000E+00 0.  1.
         -2   -1    0    0    0  501 -0.00000000000E+00 -0.00000000000E+00 -0.30495399902E+04  0.30495399902E+04  0.00000000000E+00 0. -1.
         23    2    1    2    0    0  0.20949587584E+04 -0.20072103268E+04  0.13347469793E+04  0.31948995195E+04  0.89933004709E+02 0.  0.
         13    1    3    3    0    0  0.67356835904E+03 -0.66776861071E+03  0.39362013598E+03  0.10269109325E+04  0.00000000000E+00 0. -1.
        -13    1    3    3    0    0  0.14213903993E+04 -0.13394417161E+04  0.94112684335E+03  0.21679885870E+04  0.00000000000E+00 0.  1.
         22    1    1    2    0    0 -0.20949587584E+04  0.20072103268E+04 -0.11265538846E+04  0.31123735557E+04  0.00000000000E+00 0.  1.
<mgrwt>
<rscale>  0 0.63038361E+04</rscale>
<asrwt>0</asrwt>
<pdfrwt beam="1">  1        2 0.50118971E+00 0.63038361E+04</pdfrwt>
<pdfrwt beam="2">  1       -2 0.46916000E+00 0.63038361E+04</pdfrwt>
<totfact> 0.20422845E-03</totfact>
</mgrwt>
</event>
<event>
 6    1  0.1817112E-005  0.1297764E+04  0.7818608E-02  0.9031340E-01
          2   -1    0    0  501    0  0.00000000000E+00  0.00000000000E+00  0.16193014457E+04  0.16193014457E+04  0.00000000000E+00 0. -1.
         -2   -1    0    0    0  501 -0.00000000000E+00 -0.00000000000E+00 -0.26001829401E+03  0.26001829401E+03  0.00000000000E+00 0.  1.
         23    2    1    2    0    0 -0.58114435330E+03 -0.22217588722E+03  0.43331605762E+03  0.76374547346E+03  0.91942689782E+02 0.  0.
         13    1    3    3    0    0 -0.33112815044E+03 -0.14804991597E+03  0.30088993219E+03  0.47127420991E+03  0.00000000000E+00 0.  1.
        -13    1    3    3    0    0 -0.25001620286E+03 -0.74125971254E+02  0.13242612543E+03  0.29247126355E+03  0.00000000000E+00 0. -1.
         22    1    1    2    0    0  0.58114435330E+03  0.22217588722E+03  0.92596709408E+03  0.11155742663E+04  0.00000000000E+00 0. -1.
<mgrwt>
<rscale>  0 0.12977642E+04</rscale>
<asrwt>0</asrwt>
<pdfrwt beam="1">  1        2 0.24912329E+00 0.12977642E+04</pdfrwt>
<pdfrwt beam="2">  1       -2 0.40002815E-01 0.12977642E+04</pdfrwt>
<totfact> 0.63042509E+01</totfact>
</mgrwt>
</event>
<event>
 6    1  0.1817112E-005  0.2759084E+04  0.7818608E-02  0.8316085E-01
          2   -1    0    0  501    0  0.00000000000E+00  0.00000000000E+00  0.20850739143E+04  0.20850739143E+04  0.00000000000E+00 0. -1.
         -2   -1    0    0    0  501 -0.00000000000E+00 -0.00000000000E+00 -0.91274280384E+03  0.91274280384E+03  0.00000000000E+00 0.  1.
         23    2    1    2    0    0  0.91476133329E+03 -0.23328628838E+02  0.17063504065E+04  0.19383314043E+04  0.90357077067E+02 0.  0.
         13    1    3    3    0    0  0.82391394447E+03 -0.37415949627E+02  0.14853055653E+04  0.16989310650E+04  0.00000000000E+00 0. -1.
        -13    1    3    3    0    0  0.90847388824E+02  0.14087320789E+02  0.22104484112E+03  0.23940033928E+03  0.00000000000E+00 0.  1.
         22    1    1    2    0    0 -0.91476133329E+03  0.23328628838E+02 -0.53401929599E+03  0.10594853139E+04  0.00000000000E+00 0.  1.
<mgrwt>
<rscale>  0 0.27590841E+04</rscale>
<asrwt>0</asrwt>
<pdfrwt beam="1">  1        2 0.32078060E+00 0.27590841E+04</pdfrwt>
<pdfrwt beam="2">  1       -2 0.14042197E+00 0.27590841E+04</pdfrwt>
<totfact> 0.18636328E+00</totfact>
</mgrwt>
</event>
<event>
 6    1  0.1817112E-005  0.2853350E+04  0.7818608E-02  0.8286894E-01
          4   -1    0    0  501    0  0.00000000000E+00  0.00000000000E+00  0.11169323660E+04  0.11169323660E+04  0.00000000000E+00 0. -1.
         -4   -1    0    0    0  501 -0.00000000000E+00 -0.00000000000E+00 -0.18223140250E+04  0.18223140250E+04  0.00000000000E+00 0.  1.
         23    2    1    2    0    0 -0.13444226060E+04 -0.24259734233E+03 -0.77132320537E+03  0.15715205774E+04  0.91715996713E+02 0.  0.
         11    1    3    3    0    0 -0.32445894830E+03 -0.98570936122E+02 -0.19527812730E+03  0.39130983323E+03  0.00000000000E+00 0.  1.
        -11    1    3    3    0    0 -0.10199636577E+04 -0.14402640621E+03 -0.57604507807E+03  0.11802107441E+04  0.00000000000E+00 0. -1.
         22    1    1    2    0    0  0.13444226060E+04  0.24259734233E+03  0.65941546378E+02  0.13677258137E+04  0.00000000000E+00 0. -1.
<mgrwt>
<rscale>  0 0.28533500E+04</rscale>
<asrwt>0</asrwt>
<pdfrwt beam="1">  1        4 0.17183575E+00 0.28533500E+04</pdfrwt>
<pdfrwt beam="2">  1       -4 0.28035600E+00 0.28533500E+04</pdfrwt>
<totfact> 0.14466344E-02</totfact>
</mgrwt>
</event>
<event>
 6    1  0.1817112E-005  0.3571603E+04  0.7818608E-02  0.8097027E-01
         -2   -1    0    0    0  501 -0.00000000000E+00  0.00000000000E+00  0.12609974142E+04  0.12609974142E+04  0.00000000000E+00 0.  1.
          2   -1    0    0  501    0  0.00000000000E+00 -0.00000000000E+00 -0.25290199959E+04  0.25290199959E+04  0.00000000000E+00 0. -1.
         23    2    1    2    0    0  0.13515660158E+04  0.11080090191E+04 -0.10174324426E+04  0.20244551486E+04  0.93995700865E+02 0.  0.
         11    1    3    3    0    0  0.97240502197E+03  0.84529678686E+03 -0.72808310352E+03  0.14799335087E+04  0.00000000000E+00 0. -1.
        -11    1    3    3    0    0  0.37916099385E+03  0.26271223223E+03 -0.28934933907E+03  0.54452163983E+03  0.00000000000E+00 0.  1.
         22    1    1    2    0    0 -0.13515660158E+04 -0.11080090191E+04 -0.25059013910E+03  0.17655622615E+04  0.00000000000E+00 0.  1.
<mgrwt>
<rscale>  0 0.35716034E+04</rscale>
<asrwt>0</asrwt>
<pdfrwt beam="1">  1        2 0.38907999E+00 0.35716034E+04</pdfrwt>
<pdfrwt beam="2">  1       -2 0.19399960E+00 0.35716034E+04</pdfrwt>
<totfact> 0.39861392E-01</totfact>
</mgrwt>
</event>
<event>
 6    1  0.1817112E-005  0.2167570E+04  0.7818608E-02  0.8532049E-01
          2   -1    0    0  501    0  0.00000000000E+00  0.00000000000E+00  0.13994434911E+04  0.13994434911E+04  0.00000000000E+00 0.  1.
         -2   -1    0    0    0  501 -0.00000000000E+00 -0.00000000000E+00 -0.83932653749E+03  0.83932653749E+03  0.00000000000E+00 0. -1.
         23    2    1    2    0    0  0.10070885027E+04 -0.28948753716E+03 -0.24051032212E+01  0.10494587359E+04  0.57685070955E+02 0.  0.
         13    1    3    3    0    0  0.51155274553E+03 -0.14871792004E+03  0.27571071942E+02  0.53344483802E+03  0.00000000000E+00 0. -1.
        -13    1    3    3    0    0  0.49553575718E+03 -0.14076961711E+03 -0.29976175163E+02  0.51601389789E+03  0.00000000000E+00 0.  1.
         22    1    1    2    0    0 -0.10070885027E+04  0.28948753716E+03  0.56252205681E+03  0.11893112927E+04  0.00000000000E+00 0. -1.
<mgrwt>
<rscale>  0 0.21675701E+04</rscale>
<asrwt>0</asrwt>
<pdfrwt beam="1">  1        2 0.21529900E+00 0.21675701E+04</pdfrwt>
<pdfrwt beam="2">  1       -2 0.12912716E+00 0.21675701E+04</pdfrwt>
<totfact> 0.58641793E+00</totfact>
</mgrwt>
</event>
<event>
 6    1  0.1817112E-005  0.1530109E+04  0.7818608E-02  0.8864674E-01
         -2   -1    0    0    0  501 -0.00000000000E+00  0.00000000000E+00  0.59929391748E+03  0.59929391748E+03  0.00000000000E+00 0.  1.
          2   -1    0    0  501    0  0.00000000000E+00 -0.00000000000E+00 -0.97666346865E+03  0.97666346865E+03  0.00000000000E+00 0. -1.
         23    2    1    2    0    0 -0.32279050003E+03  0.40884454655E+03  0.38377303118E+03  0.65363119610E+03  0.92760071696E+02 0.  0.
         11    1    3    3    0    0 -0.26772145176E+03  0.27334961006E+03  0.26892916501E+03  0.46767262144E+03  0.00000000000E+00 0. -1.
        -11    1    3    3    0    0 -0.55069048261E+02  0.13549493649E+03  0.11484386618E+03  0.18595857466E+03  0.00000000000E+00 0.  1.
         22    1    1    2    0    0  0.32279050003E+03 -0.40884454655E+03 -0.76114258235E+03  0.92232619003E+03  0.00000000000E+00 0. -1.
<mgrwt>
<rscale>  0 0.15301091E+04</rscale>
<asrwt>0</asrwt>
<pdfrwt beam="1">  1        2 0.15025592E+00 0.15301091E+04</pdfrwt>
<pdfrwt beam="2">  1       -2 0.92199064E-01 0.15301091E+04</pdfrwt>
<totfact> 0.25130681E+01</totfact>
</mgrwt>
</event>
<event>
 6    1  0.1817112E-005  0.1171263E+04  0.7818608E-02  0.9138389E-01
          2   -1    0    0  501    0  0.00000000000E+00  0.00000000000E+00  0.25616268758E+03  0.25616268758E+03  0.00000000000E+00 0. -1.
         -2   -1    0    0    0  501 -0.00000000000E+00 -0.00000000000E+00 -0.13388523922E+04  0.13388523922E+04  0.00000000000E+00 0.  1.
         23    2    1    2    0    0 -0.38083683746E+02 -0.34247990659E+03  0.93951057115E+02  0.36895376992E+03  0.92505296170E+02 0.  0.
         11    1    3    3    0    0  0.15691413458E+01 -0.20384547875E+03  0.94661592201E+02  0.22475822221E+03  0.00000000000E+00 0.  1.
        -11    1    3    3    0    0 -0.39652825091E+02 -0.13863442783E+03 -0.71053508649E+00  0.14419554771E+03  0.00000000000E+00 0. -1.
         22    1    1    2    0    0  0.38083683746E+02  0.34247990659E+03 -0.11766407618E+04  0.12260613099E+04  0.00000000000E+00 0.  1.
<mgrwt>
<rscale>  0 0.11712626E+04</rscale>
<asrwt>0</asrwt>
<pdfrwt beam="1">  1        2 0.39409644E-01 0.11712626E+04</pdfrwt>
<pdfrwt beam="2">  1       -2 0.20597729E+00 0.11712626E+04</pdfrwt>
<totfact> 0.15737433E+01</totfact>
</mgrwt>
</event>
<event>
 6    1  0.1817112E-005  0.1155045E+04  0.7818608E-02  0.9153142E-01
          1   -1    0    0  501    0  0.00000000000E+00  0.00000000000E+00  0.14745311501E+03  0.14745311501E+03  0.00000000000E+00 0. -1.
         -1   -1    0    0    0  501 -0.00000000000E+00 -0.00000000000E+00 -0.22619557547E+04  0.22619557547E+04  0.00000000000E+00 0.  1.
         23    2    1    2    0    0 -0.52721902922E+03 -0.13978650998E+03 -0.14362942513E+04  0.15390831886E+04  0.91300120052E+02 0.  0.
         11    1    3    3    0    0 -0.18993662447E+03 -0.74378577266E+01 -0.52941795218E+03  0.56250743207E+03  0.00000000000E+00 0.  1.
        -11    1    3    3    0    0 -0.33728240475E+03 -0.13234865226E+03 -0.90687629909E+03  0.97657575648E+03  0.00000000000E+00 0. -1.
         22    1    1    2    0    0  0.52721902922E+03  0.13978650998E+03 -0.67820838843E+03  0.87032568116E+03  0.00000000000E+00 0.  1.
<mgrwt>
<rscale>  0 0.11550453E+04</rscale>
<asrwt>0</asrwt>
<pdfrwt beam="1">  1        1 0.22685096E-01 0.11550453E+04</pdfrwt>
<pdfrwt beam="2">  1       -1 0.34799317E+00 0.11550453E+04</pdfrwt>
<totfact> 0.35768814E+00</totfact>
</mgrwt>
</event>
<event>
 6    1  0.1817112E-005  0.3460084E+04  0.7818608E-02  0.8123315E-01
          2   -1    0    0  501    0  0.00000000000E+00  0.00000000000E+00  0.16517106985E+04  0.16517106985E+04  0.00000000000E+00 0. -1.
         -2   -1    0    0    0  501 -0.00000000000E+00 -0.00000000000E+00 -0.18120881051E+04  0.18120881051E+04  0.00000000000E+00 0.  1.
         23    2    1    2    0    0  0.14062671231E+04  0.89952547333E+03  0.36975345267E+03  0.17122931579E+04  0.92178870962E+02 0.  0.
         11    1    3    3    0    0  0.75505962667E+03  0.47805473454E+03  0.15100900658E+03  0.90634159626E+03  0.00000000000E+00 0. -1.
        -11    1    3    3    0    0  0.65120749644E+03  0.42147073879E+03  0.21874444609E+03  0.80595156168E+03  0.00000000000E+00 0.  1.
         22    1    1    2    0    0 -0.14062671231E+04 -0.89952547333E+03 -0.53013085927E+03  0.17515056456E+04  0.00000000000E+00 0.  1.
<mgrwt>
<rscale>  0 0.34600840E+04</rscale>
<asrwt>0</asrwt>
<pdfrwt beam="1">  1        2 0.25410934E+00 0.34600840E+04</pdfrwt>
<pdfrwt beam="2">  1       -2 0.27878278E+00 0.34600840E+04</pdfrwt>
<totfact> 0.36847477E-01</totfact>
</mgrwt>
</event>
<event>
 6    1  0.1817112E-005  0.1107922E+04  0.7818608E-02  0.9197505E-01
         -2   -1    0    0    0  501 -0.00000000000E+00  0.00000000000E+00  0.27739251836E+03  0.27739251836E+03  0.00000000000E+00 0.  1.
          2   -1    0    0  501    0  0.00000000000E+00 -0.00000000000E+00 -0.11062762173E+04  0.11062762173E+04  0.00000000000E+00 0. -1.
         23    2    1    2    0    0 -0.22573585630E+03  0.22980824412E+03  0.13956533594E+03  0.36305027657E+03  0.92512239394E+02 0.  0.
         13    1    3    3    0    0 -0.48688012642E+02  0.10946328349E+03  0.35062437165E+02  0.12482831212E+03  0.00000000000E+00 0. -1.
        -13    1    3    3    0    0 -0.17704784366E+03  0.12034496063E+03  0.10450289877E+03  0.23822196445E+03  0.00000000000E+00 0.  1.
         22    1    1    2    0    0  0.22573585630E+03 -0.22980824412E+03 -0.96844903487E+03  0.10206184591E+04  0.00000000000E+00 0. -1.
<mgrwt>
<rscale>  0 0.11079219E+04</rscale>
<asrwt>0</asrwt>
<pdfrwt beam="1">  1        2 0.17019634E+00 0.11079219E+04</pdfrwt>
<pdfrwt beam="2">  1       -2 0.42675772E-01 0.11079219E+04</pdfrwt>
<totfact> 0.11147206E+02</totfact>
</mgrwt>
</event>
<event>
 6    1  0.1817112E-005  0.4402764E+04  0.7818608E-02  0.7927885E-01
         -2   -1    0    0    0  501 -0.00000000000E+00  0.00000000000E+00  0.32535114108E+04  0.32535114108E+04  0.00000000000E+00 0. -1.
          2   -1    0    0  501    0  0.00000000000E+00 -0.00000000000E+00 -0.14894932407E+04  0.14894932407E+04  0.00000000000E+00 0.  1.
         23    2    1    2    0    0  0.12070025416E+04 -0.18300500162E+04  0.10864745467E+04  0.24484450948E+04  0.92294335776E+02 0.  0.
         13    1    3    3    0    0  0.21634036367E+03 -0.39549018309E+03  0.21986577830E+03  0.50155418286E+03  0.00000000000E+00 0. -1.
        -13    1    3    3    0    0  0.99066217796E+03 -0.14345598331E+04  0.86660876836E+03  0.19468909120E+04  0.00000000000E+00 0.  1.
         22    1    1    2    0    0 -0.12070025416E+04  0.18300500162E+04  0.67754362348E+03  0.22945595567E+04  0.00000000000E+00 0.  1.
<mgrwt>
<rscale>  0 0.44027642E+04</rscale>
<asrwt>0</asrwt>
<pdfrwt beam="1">  1        2 0.22915281E+00 0.44027642E+04</pdfrwt>
<pdfrwt beam="2">  1       -2 0.50054022E+00 0.44027642E+04</pdfrwt>
<totfact> 0.16141812E-02</totfact>
</mgrwt>
</event>
<event>
 6    1  0.1817112E-005  0.4062569E+04  0.7818608E-02  0.7992042E-01
          2   -1    0    0  501    0  0.00000000000E+00  0.00000000000E+00  0.20345599939E+04  0.20345599939E+04  0.00000000000E+00 0. -1.
         -2   -1    0    0    0  501 -0.00000000000E+00 -0.00000000000E+00 -0.20280138219E+04  0.20280138219E+04  0.00000000000E+00 0.  1.
         23    2    1    2    0    0  0.97366488919E+03 -0.63577506173E+03 -0.16610285318E+04  0.20295862018E+04  0.89281137732E+02 0.  0.
         11    1    3    3    0    0  0.20453096363E+03 -0.17628110763E+03 -0.36463875650E+03  0.45372829616E+03  0.00000000000E+00 0.  1.
        -11    1    3    3    0    0  0.76913392556E+03 -0.45949395410E+03 -0.12963897753E+04  0.15758579057E+04  0.00000000000E+00 0. -1.
         22    1    1    2    0    0 -0.97366488919E+03  0.63577506173E+03  0.16675747039E+04  0.20329876140E+04  0.00000000000E+00 0. -1.
<mgrwt>
<rscale>  0 0.40625685E+04</rscale>
<asrwt>0</asrwt>
<pdfrwt beam="1">  1        2 0.31300923E+00 0.40625685E+04</pdfrwt>
<pdfrwt beam="2">  1       -2 0.31200213E+00 0.40625685E+04</pdfrwt>
<totfact> 0.13456706E-01</totfact>
</mgrwt>
</event>
<event>
 6    1  0.1817112E-005  0.2025799E+04  0.7818608E-02  0.8594653E-01
          2   -1    0    0  501    0  0.00000000000E+00  0.00000000000E+00  0.13385364325E+04  0.13385364325E+04  0.00000000000E+00 0.  1.
         -2   -1    0    0    0  501 -0.00000000000E+00 -0.00000000000E+00 -0.76648284588E+03  0.76648284588E+03  0.00000000000E+00 0. -1.
         23    2    1    2    0    0 -0.23354268265E+03  0.47148970281E+03 -0.61020824879E+03  0.81096063522E+03  0.91969127953E+02 0.  0.
         11    1    3    3    0    0 -0.11736139776E+03  0.17175544500E+03 -0.18869474595E+03  0.28085465586E+03  0.00000000000E+00 0. -1.
        -11    1    3    3    0    0 -0.11618128489E+03  0.29973425782E+03 -0.42151350285E+03  0.53010597936E+03  0.00000000000E+00 0.  1.
         22    1    1    2    0    0  0.23354268265E+03 -0.47148970281E+03  0.11822618354E+04  0.12940586431E+04  0.00000000000E+00 0.  1.
<mgrwt>
<rscale>  0 0.20257988E+04</rscale>
<asrwt>0</asrwt>
<pdfrwt beam="1">  1        2 0.20592868E+00 0.20257988E+04</pdfrwt>
<pdfrwt beam="2">  1       -2 0.11792044E+00 0.20257988E+04</pdfrwt>
<totfact> 0.80727679E+00</totfact>
</mgrwt>
</event>
<event>
 6    1  0.1817112E-005  0.2342881E+04  0.7818608E-02  0.8461203E-01
          2   -1    0    0  501    0  0.00000000000E+00  0.00000000000E+00  0.12863181094E+04  0.12863181094E+04  0.00000000000E+00 0. -1.
         -2   -1    0    0    0  501 -0.00000000000E+00 -0.00000000000E+00 -0.10668223374E+04  0.10668223374E+04  0.00000000000E+00 0.  1.
         23    2    1    2    0    0 -0.26981979174E+03 -0.10614962536E+04  0.52214490216E+03  0.12168422850E+04  0.92156558977E+02 0.  0.
         11    1    3    3    0    0 -0.14341736926E+03 -0.38449448713E+03  0.20058666986E+03  0.45677080091E+03  0.00000000000E+00 0.  1.
        -11    1    3    3    0    0 -0.12640242248E+03 -0.67700176645E+03  0.32155823230E+03  0.76007148410E+03  0.00000000000E+00 0. -1.
         22    1    1    2    0    0  0.26981979174E+03  0.10614962536E+04 -0.30264913016E+03  0.11362981617E+04  0.00000000000E+00 0.  1.
<mgrwt>
<rscale>  0 0.23428810E+04</rscale>
<asrwt>0</asrwt>
<pdfrwt beam="1">  1        2 0.19789509E+00 0.23428810E+04</pdfrwt>
<pdfrwt beam="2">  1       -2 0.16412651E+00 0.23428810E+04</pdfrwt>
<totfact> 0.35742515E+00</totfact>
</mgrwt>
</event>
<event>
 6    1  0.1817112E-005  0.2133932E+04  0.7818608E-02  0.8546441E-01
         -2   -1    0    0    0  501 -0.00000000000E+00  0.00000000000E+00  0.12984126742E+04  0.12984126742E+04  0.00000000000E+00 0.  1.
          2   -1    0    0  501    0  0.00000000000E+00 -0.00000000000E+00 -0.87677591258E+03  0.87677591258E+03  0.00000000000E+00 0. -1.
         23    2    1    2    0    0  0.31926322744E+03  0.63962658107E+03 -0.59310563912E+03  0.93391774145E+03  0.96834276193E+02 0.  0.
         11    1    3    3    0    0  0.21635621836E+03  0.43452789506E+03 -0.34221414823E+03  0.59391500070E+03  0.00000000000E+00 0. -1.
        -11    1    3    3    0    0  0.10290700908E+03  0.20509868600E+03 -0.25089149089E+03  0.34000274075E+03  0.00000000000E+00 0.  1.
         22    1    1    2    0    0 -0.31926322744E+03 -0.63962658107E+03  0.10147424007E+04  0.12412708453E+04  0.00000000000E+00 0.  1.
<mgrwt>
<rscale>  0 0.21339325E+04</rscale>
<asrwt>0</asrwt>
<pdfrwt beam="1">  1        2 0.13488860E+00 0.21339325E+04</pdfrwt>
<pdfrwt beam="2">  1       -2 0.19975580E+00 0.21339325E+04</pdfrwt>
<totfact> 0.37293948E+00</totfact>
</mgrwt>
</event>
<event>
 6    1  0.1817112E-005  0.1878348E+04  0.7818608E-02  0.8665710E-01
         -2   -1    0    0    0  501 -0.00000000000E+00  0.00000000000E+00  0.64578570055E+03  0.64578570055E+03  0.00000000000E+00 0. -1.
          2   -1    0    0  501    0  0.00000000000E+00 -0.00000000000E+00 -0.13658521639E+04  0.13658521639E+04  0.00000000000E+00 0.  1.
         23    2    1    2    0    0  0.83173074596E+03  0.13738081316E+03 -0.79875523079E+03  0.11649729699E+04  0.92209436768E+02 0.  0.
         13    1    3    3    0    0  0.39313503611E+02  0.27073866342E+02 -0.51516123672E+02  0.70231451666E+02  0.00000000000E+00 0.  1.
        -13    1    3    3    0    0  0.79241724235E+03  0.11030694682E+03 -0.74723910712E+03  0.10947415182E+04  0.00000000000E+00 0. -1.
         22    1    1    2    0    0 -0.83173074596E+03 -0.13738081316E+03  0.78688767430E+02  0.84666489458E+03  0.00000000000E+00 0. -1.
<mgrwt>
<rscale>  0 0.18783480E+04</rscale>
<asrwt>0</asrwt>
<pdfrwt beam="1">  1        2 0.21013110E+00 0.18783480E+04</pdfrwt>
<pdfrwt beam="2">  1       -2 0.99351647E-01 0.18783480E+04</pdfrwt>
<totfact> 0.11916172E+01</totfact>
</mgrwt>
</event>
<event>
 6    1  0.1817112E-005  0.2313495E+04  0.7818608E-02  0.8472619E-01
         -2   -1    0    0    0  501 -0.00000000000E+00  0.00000000000E+00  0.72893595373E+03  0.72893595373E+03  0.00000000000E+00 0.  1.
          2   -1    0    0  501    0  0.00000000000E+00 -0.00000000000E+00 -0.18356403955E+04  0.18356403955E+04  0.00000000000E+00 0. -1.
         23    2    1    2    0    0 -0.90074896813E+03 -0.57662479279E+03 -0.71511626535E+02  0.10761311806E+04  0.95391561054E+02 0.  0.
         13    1    3    3    0    0 -0.67425722816E+03 -0.41516227220E+03 -0.92402536979E+02  0.79719555369E+03  0.00000000000E+00 0. -1.
        -13    1    3    3    0    0 -0.22649173997E+03 -0.16146252059E+03  0.20890910444E+02  0.27893562693E+03  0.00000000000E+00 0.  1.
         22    1    1    2    0    0  0.90074896813E+03  0.57662479279E+03 -0.10351928152E+04  0.14884451686E+04  0.00000000000E+00 0. -1.
<mgrwt>
<rscale>  0 0.23134946E+04</rscale>
<asrwt>0</asrwt>
<pdfrwt beam="1">  1        2 0.28240621E+00 0.23134946E+04</pdfrwt>
<pdfrwt beam="2">  1       -2 0.11214399E+00 0.23134946E+04</pdfrwt>
<totfact> 0.46810888E+00</totfact>
</mgrwt>
</event>
<event>
 6    1  0.1817112E-005  0.2702422E+04  0.7818608E-02  0.8334220E-01
          2   -1    0    0  501    0  0.00000000000E+00  0.00000000000E+00  0.29746021597E+04  0.29746021597E+04  0.00000000000E+00 0. -1.
         -2   -1    0    0    0  501 -0.00000000000E+00 -0.00000000000E+00 -0.61378660364E+03  0.61378660364E+03  0.00000000000E+00 0.  1.
         23    2    1    2    0    0 -0.91172060867E+03 -0.89238167157E+03  0.59695325340E+03  0.14115126211E+04  0.91843217953E+02 0.  0.
         13    1    3    3    0    0 -0.35932000439E+03 -0.40147376774E+03  0.28284870826E+03  0.60851905764E+03  0.00000000000E+00 0.  1.
        -13    1    3    3    0    0 -0.55240060428E+03 -0.49090790382E+03  0.31410454513E+03  0.80299356344E+03  0.00000000000E+00 0. -1.
         22    1    1    2    0    0  0.91172060867E+03  0.89238167157E+03  0.17638623027E+04  0.21768761423E+04  0.00000000000E+00 0.  1.
<mgrwt>
<rscale>  0 0.27024218E+04</rscale>
<asrwt>0</asrwt>
<pdfrwt beam="1">  1        2 0.45763109E+00 0.27024218E+04</pdfrwt>
<pdfrwt beam="2">  1       -2 0.94428710E-01 0.27024218E+04</pdfrwt>
<totfact> 0.14969479E+00</totfact>
</mgrwt>
</event>
<event>
 6    1  0.1817112E-005  0.1426086E+04  0.7818608E-02  0.8935150E-01
         -4   -1    0    0    0  501 -0.00000000000E+00  0.00000000000E+00  0.14028234990E+03  0.14028234990E+03  0.00000000000E+00 0.  1.
          4   -1    0    0  501    0  0.00000000000E+00 -0.00000000000E+00 -0.36243360139E+04  0.36243360139E+04  0.00000000000E+00 0. -1.
         23    2    1    2    0    0 -0.49880932485E+03  0.82172073745E+02 -0.30662495981E+04  0.31087805563E+04  0.84065196656E+02 0.  0.
         11    1    3    3    0    0 -0.14569177587E+03  0.63186782412E+02 -0.96894708824E+03  0.98187429075E+03  0.00000000000E+00 0. -1.
        -11    1    3    3    0    0 -0.35311754898E+03  0.18985291333E+02 -0.20973025098E+04  0.21269062655E+04  0.00000000000E+00 0.  1.
         22    1    1    2    0    0  0.49880932485E+03 -0.82172073745E+02 -0.41780406595E+03  0.65583780753E+03  0.00000000000E+00 0.  1.
<mgrwt>
<rscale>  0 0.14260861E+04</rscale>
<asrwt>0</asrwt>
<pdfrwt beam="1">  1        4 0.55759012E+00 0.14260861E+04</pdfrwt>
<pdfrwt beam="2">  1       -4 0.21581901E-01 0.14260861E+04</pdfrwt>
<totfact> 0.16090230E-02</totfact>
</mgrwt>
</event>
<event>
 6    1  0.1817112E-005  0.2215207E+04  0.7818608E-02  0.8512125E-01
         -2   -1    0    0    0  501 -0.00000000000E+00  0.00000000000E+00  0.12750842209E+04  0.12750842209E+04  0.00000000000E+00 0.  1.
          2   -1    0    0  501    0  0.00000000000E+00 -0.00000000000E+00 -0.96212119289E+03  0.96212119289E+03  0.00000000000E+00 0. -1.
         23    2    1    2    0    0  0.96407416677E+03 -0.51133986823E+03  0.33670708683E+03  0.11456600687E+04  0.90872828172E+02 0.  0.
         11    1    3    3    0    0  0.33090630700E+03 -0.13126613232E+03  0.91971601848E+02  0.36767996553E+03  0.00000000000E+00 0. -1.
        -11    1    3    3    0    0  0.63316785978E+03 -0.38007373591E+03  0.24473548498E+03  0.77798010321E+03  0.00000000000E+00 0.  1.
         22    1    1    2    0    0 -0.96407416677E+03  0.51133986823E+03 -0.23744058871E+02  0.10915453450E+04  0.00000000000E+00 0. -1.
<mgrwt>
<rscale>  0 0.22152070E+04</rscale>
<asrwt>0</asrwt>
<pdfrwt beam="1">  1        2 0.14801864E+00 0.22152070E+04</pdfrwt>
<pdfrwt beam="2">  1       -2 0.19616680E+00 0.22152070E+04</pdfrwt>
<totfact> 0.34297488E+00</totfact>
</mgrwt>
</event>
<event>
 6    1  0.1817112E-005  0.3164123E+04  0.7818608E-02  0.8198357E-01
         -2   -1    0    0    0  501 -0.00000000000E+00  0.00000000000E+00  0.14318085807E+04  0.14318085807E+04  0.00000000000E+00 0.  1.
          2   -1    0    0  501    0  0.00000000000E+00 -0.00000000000E+00 -0.17480816301E+04  0.17480816301E+04  0.00000000000E+00 0. -1.
         23    2    1    2    0    0 -0.65665406501E+03 -0.14275203857E+04 -0.32374123564E+03  0.16085644055E+04  0.11688475715E+03 0.  0.
         11    1    3    3    0    0 -0.50934592938E+03 -0.10752131942E+04 -0.29401396475E+03  0.12255451441E+04  0.00000000000E+00 0.  1.
        -11    1    3    3    0    0 -0.14730813563E+03 -0.35230719147E+03 -0.29727270890E+02  0.38301926142E+03  0.00000000000E+00 0. -1.
         22    1    1    2    0    0  0.65665406501E+03  0.14275203857E+04  0.74681862281E+01  0.15713258053E+04  0.00000000000E+00 0. -1.
<mgrwt>
<rscale>  0 0.31641228E+04</rscale>
<asrwt>0</asrwt>
<pdfrwt beam="1">  1        2 0.26893563E+00 0.31641228E+04</pdfrwt>
<pdfrwt beam="2">  1       -2 0.22027824E+00 0.31641228E+04</pdfrwt>
<totfact> 0.76665499E-01</totfact>
</mgrwt>
</event>
<event>
 6    1  0.1817112E-005  0.2511013E+04  0.7818608E-02  0.8399073E-01
         -2   -1    0    0    0  501 -0.00000000000E+00  0.00000000000E+00  0.46679413455E+03  0.46679413455E+03  0.00000000000E+00 0.  1.
          2   -1    0    0  501    0  0.00000000000E+00 -0.00000000000E+00 -0.33768546759E+04  0.33768546759E+04  0.00000000000E+00 0. -1.
         23    2    1    2    0    0 -0.96040818723E+02  0.66268090866E+03  0.16527535101E+03  0.69625930858E+03  0.95348086351E+02 0.  0.
         13    1    3    3    0    0 -0.54678151343E+02  0.38090691172E+03  0.46201586382E+02  0.38757497625E+03  0.00000000000E+00 0.  1.
        -13    1    3    3    0    0 -0.41362667380E+02  0.28177399694E+03  0.11907376463E+03  0.30868433233E+03  0.00000000000E+00 0. -1.
         22    1    1    2    0    0  0.96040818723E+02 -0.66268090866E+03 -0.30753358924E+04  0.31473895019E+04  0.00000000000E+00 0. -1.
<mgrwt>
<rscale>  0 0.25110125E+04</rscale>
<asrwt>0</asrwt>
<pdfrwt beam="1">  1        2 0.51951608E+00 0.25110125E+04</pdfrwt>
<pdfrwt beam="2">  1       -2 0.71814486E-01 0.25110125E+04</pdfrwt>
<totfact> 0.15496710E+00</totfact>
</mgrwt>
</event>
<event>
 6    1  0.1817112E-005  0.1719493E+04  0.7818608E-02  0.8750324E-01
          2   -1    0    0  501    0  0.00000000000E+00  0.00000000000E+00  0.13853097812E+04  0.13853097812E+04  0.00000000000E+00 0. -1.
         -2   -1    0    0    0  501 -0.00000000000E+00 -0.00000000000E+00 -0.53357336167E+03  0.53357336167E+03  0.00000000000E+00 0.  1.
         23    2    1    2    0    0 -0.67093605222E+03  0.37775950725E+03  0.84772598873E+03  0.11489003411E+04  0.92060904991E+02 0.  0.
         13    1    3    3    0    0 -0.25956019862E+03  0.99435184743E+02  0.27912311843E+03  0.39391441699E+03  0.00000000000E+00 0. -1.
        -13    1    3    3    0    0 -0.41137585361E+03  0.27832432251E+03  0.56860287029E+03  0.75498592407E+03  0.00000000000E+00 0.  1.
         22    1    1    2    0    0  0.67093605222E+03 -0.37775950725E+03  0.40104307876E+01  0.76998280179E+03  0.00000000000E+00 0. -1.
<mgrwt>
<rscale>  0 0.17194934E+04</rscale>
<asrwt>0</asrwt>
<pdfrwt beam="1">  1        2 0.21312458E+00 0.17194934E+04</pdfrwt>
<pdfrwt beam="2">  1       -2 0.82088210E-01 0.17194934E+04</pdfrwt>
<totfact> 0.18282843E+01</totfact>
</mgrwt>
</event>
<event>
 6    1  0.1817112E-005  0.1151341E+04  0.7818608E-02  0.9156547E-01
         -2   -1    0    0    0  501 -0.00000000000E+00  0.00000000000E+00  0.16033117165E+03  0.16033117165E+03  0.00000000000E+00 0.  1.
          2   -1    0    0  501    0  0.00000000000E+00 -0.00000000000E+00 -0.20669499818E+04  0.20669499818E+04  0.00000000000E+00 0. -1.
         23    2    1    2    0    0  0.53992370125E+03 -0.16575865289E+03 -0.78981011256E+03  0.97577997439E+03  0.96710962880E+02 0.  0.
         11    1    3    3    0    0  0.17761987654E+03 -0.73139006747E+02 -0.34304284812E+03  0.39316221906E+03  0.00000000000E+00 0.  1.
        -11    1    3    3    0    0  0.36230382471E+03 -0.92619646145E+02 -0.44676726444E+03  0.58261775534E+03  0.00000000000E+00 0. -1.
         22    1    1    2    0    0 -0.53992370125E+03  0.16575865289E+03 -0.11168086975E+04  0.12515011790E+04  0.00000000000E+00 0. -1.
<mgrwt>
<rscale>  0 0.11513410E+04</rscale>
<asrwt>0</asrwt>
<pdfrwt beam="1">  1        2 0.31799229E+00 0.11513410E+04</pdfrwt>
<pdfrwt beam="2">  1       -2 0.24666335E-01 0.11513410E+04</pdfrwt>
<totfact> 0.89410446E+01</totfact>
</mgrwt>
</event>
<event>
 6    1  0.1817112E-005  0.1183909E+04  0.7818608E-02  0.9127059E-01
          2   -1    0    0  501    0  0.00000000000E+00  0.00000000000E+00  0.26730343649E+04  0.26730343649E+04  0.00000000000E+00 0. -1.
         -2   -1    0    0    0  501 -0.00000000000E+00 -0.00000000000E+00 -0.13109067038E+03  0.13109067038E+03  0.00000000000E+00 0.  1.
         23    2    1    2    0    0 -0.36085683090E+03  0.46433541539E+03  0.12337720037E+04  0.13698523265E+04  0.92070673863E+02 0.  0.
         13    1    3    3    0    0 -0.15666647159E+02  0.35131759977E+02  0.41975045062E+02  0.56934952360E+02  0.00000000000E+00 0.  1.
        -13    1    3    3    0    0 -0.34519018374E+03  0.42920365541E+03  0.11917969586E+04  0.13129173742E+04  0.00000000000E+00 0. -1.
         22    1    1    2    0    0  0.36085683090E+03 -0.46433541539E+03  0.13081716908E+04  0.14342727087E+04  0.00000000000E+00 0. -1.
<mgrwt>
<rscale>  0 0.11839086E+04</rscale>
<asrwt>0</asrwt>
<pdfrwt beam="1">  1        2 0.41123602E+00 0.11839086E+04</pdfrwt>
<pdfrwt beam="2">  1       -2 0.20167797E-01 0.11839086E+04</pdfrwt>
<totfact> 0.57863499E+01</totfact>
</mgrwt>
</event>
<event>
 6    1  0.1817112E-005  0.2235993E+04  0.7818608E-02  0.8503595E-01
          2   -1    0    0  501    0  0.00000000000E+00  0.00000000000E+00  0.32337491782E+04  0.32337491782E+04  0.00000000000E+00 0. -1.
         -2   -1    0    0    0  501 -0.00000000000E+00 -0.00000000000E+00 -0.38652239198E+03  0.38652239198E+03  0.00000000000E+00 0.  1.
         23    2    1    2    0    0  0.98150557259E+03 -0.33025459083E+03  0.75161635476E+03  0.12827505833E+04  0.90003502118E+02 0.  0.
         11    1    3    3    0    0  0.77760315949E+03 -0.22738262308E+03  0.60845789334E+03  0.10132080432E+04  0.00000000000E+00 0. -1.
        -11    1    3    3    0    0  0.20390241309E+03 -0.10287196775E+03  0.14315846142E+03  0.26954254004E+03  0.00000000000E+00 0.  1.
         22    1    1    2    0    0 -0.98150557259E+03  0.33025459083E+03  0.20956104315E+04  0.23375209869E+04  0.00000000000E+00 0. -1.
<mgrwt>
<rscale>  0 0.22359933E+04</rscale>
<asrwt>0</asrwt>
<pdfrwt beam="1">  1        2 0.49749986E+00 0.22359933E+04</pdfrwt>
<pdfrwt beam="2">  1       -2 0.59464986E-01 0.22359933E+04</pdfrwt>
<totfact> 0.29700992E+00</totfact>
</mgrwt>
</event>
<event>
 6    1  0.1817112E-005  0.2004775E+04  0.7818608E-02  0.8604391E-01
          2   -1    0    0  501    0  0.00000000000E+00  0.00000000000E+00  0.18096152549E+04  0.18096152549E+04  0.00000000000E+00 0. -1.
         -2   -1    0    0    0  501 -0.00000000000E+00 -0.00000000000E+00 -0.55524567230E+03  0.55524567230E+03  0.00000000000E+00 0.  1.
         23    2    1    2    0    0  0.56865916648E+03  0.80547031957E+03  0.82731279577E+03  0.12903688693E+04  0.91922105459E+02 0.  0.
         13    1    3    3    0    0  0.55796157025E+03  0.75702900795E+03  0.77984200070E+03  0.12217068301E+04  0.00000000000E+00 0. -1.
        -13    1    3    3    0    0  0.10697596230E+02  0.48441311611E+02  0.47470795069E+02  0.68662039150E+02  0.00000000000E+00 0.  1.
         22    1    1    2    0    0 -0.56865916648E+03 -0.80547031957E+03  0.42705678682E+03  0.10744920579E+04  0.00000000000E+00 0. -1.
<mgrwt>
<rscale>  0 0.20047753E+04</rscale>
<asrwt>0</asrwt>
<pdfrwt beam="1">  1        2 0.27840234E+00 0.20047753E+04</pdfrwt>
<pdfrwt beam="2">  1       -2 0.85422412E-01 0.20047753E+04</pdfrwt>
<totfact> 0.94299097E+00</totfact>
</mgrwt>
</event>
<event>
 6    1  0.1817112E-005  0.2801517E+04  0.7818608E-02  0.8302797E-01
         -2   -1    0    0    0  501 -0.00000000000E+00  0.00000000000E+00  0.18578068466E+04  0.18578068466E+04  0.00000000000E+00 0.  1.
          2   -1    0    0  501    0  0.00000000000E+00 -0.00000000000E+00 -0.10561512148E+04  0.10561512148E+04  0.00000000000E+00 0. -1.
         23    2    1    2    0    0 -0.57431068288E+03 -0.12145070276E+04  0.80825487995E+03  0.15704910426E+04  0.91137716285E+02 0.  0.
         11    1    3    3    0    0 -0.51948695112E+02 -0.11918922688E+03  0.11088775703E+03  0.17088251340E+03  0.00000000000E+00 0. -1.
        -11    1    3    3    0    0 -0.52236198777E+03 -0.10953178007E+04  0.69736712293E+03  0.13996085292E+04  0.00000000000E+00 0.  1.
         22    1    1    2    0    0  0.57431068288E+03  0.12145070276E+04 -0.65992481002E+01  0.13434670188E+04  0.00000000000E+00 0.  1.
<mgrwt>
<rscale>  0 0.28015174E+04</rscale>
<asrwt>0</asrwt>
<pdfrwt beam="1">  1        2 0.16248480E+00 0.28015174E+04</pdfrwt>
<pdfrwt beam="2">  1       -2 0.28581644E+00 0.28015174E+04</pdfrwt>
<totfact> 0.78333963E-01</totfact>
</mgrwt>
</event>
<event>
 6    1  0.1817112E-005  0.3267747E+04  0.7818608E-02  0.8171151E-01
          2   -1    0    0  501    0  0.00000000000E+00  0.00000000000E+00  0.25980856895E+04  0.25980856895E+04  0.00000000000E+00 0. -1.
         -2   -1    0    0    0  501 -0.00000000000E+00 -0.00000000000E+00 -0.10275035430E+04  0.10275035430E+04  0.00000000000E+00 0.  1.
         23    2    1    2    0    0  0.85498269344E+03 -0.13641036811E+04  0.10869661731E+04  0.19446196705E+04  0.90972207624E+02 0.  0.
         11    1    3    3    0    0  0.17016983638E+03 -0.25594672327E+03  0.25050282340E+03  0.39650745630E+03  0.00000000000E+00 0. -1.
        -11    1    3    3    0    0  0.68481285706E+03 -0.11081569578E+04  0.83646334973E+03  0.15481122142E+04  0.00000000000E+00 0.  1.
         22    1    1    2    0    0 -0.85498269344E+03  0.13641036811E+04  0.48361597334E+03  0.16809695620E+04  0.00000000000E+00 0.  1.
<mgrwt>
<rscale>  0 0.32677468E+04</rscale>
<asrwt>0</asrwt>
<pdfrwt beam="1">  1        2 0.39970549E+00 0.32677468E+04</pdfrwt>
<pdfrwt beam="2">  1       -2 0.15807747E+00 0.32677468E+04</pdfrwt>
<totfact> 0.66492475E-01</totfact>
</mgrwt>
</event>
<event>
 6    1  0.1817112E-005  0.5524469E+04  0.7818608E-02  0.7752331E-01
         -2   -1    0    0    0  501 -0.00000000000E+00  0.00000000000E+00  0.38631523327E+04  0.38631523327E+04  0.00000000000E+00 0.  1.
          2   -1    0    0  501    0  0.00000000000E+00 -0.00000000000E+00 -0.19750555642E+04  0.19750555642E+04  0.00000000000E+00 0. -1.
         23    2    1    2    0    0 -0.70905338190E+03  0.22581776035E+04  0.24467044388E+04  0.34063022004E+04  0.12003867069E+03 0.  0.
         11    1    3    3    0    0 -0.23179677940E+03  0.75390748364E+03  0.73531143087E+03  0.10783270103E+04  0.00000000000E+00 0.  1.
        -11    1    3    3    0    0 -0.47725660250E+03  0.15042701198E+04  0.17113930080E+04  0.23279751901E+04  0.00000000000E+00 0. -1.
         22    1    1    2    0    0  0.70905338190E+03 -0.22581776035E+04 -0.55860767040E+03  0.24319056965E+04  0.00000000000E+00 0.  1.
<mgrwt>
<rscale>  0 0.55244694E+04</rscale>
<asrwt>0</asrwt>
<pdfrwt beam="1">  1        2 0.30385470E+00 0.55244694E+04</pdfrwt>
<pdfrwt beam="2">  1       -2 0.59433113E+00 0.55244694E+04</pdfrwt>
<totfact> 0.26189932E-03</totfact>
</mgrwt>
</event>
<event>
 6    1  0.1817112E-005  0.4191215E+04  0.7818608E-02  0.7967045E-01
         -2   -1    0    0    0  501 -0.00000000000E+00  0.00000000000E+00  0.12093954131E+04  0.12093954131E+04  0.00000000000E+00 0.  1.
          2   -1    0    0  501    0  0.00000000000E+00 -0.00000000000E+00 -0.36312118900E+04  0.36312118900E+04  0.00000000000E+00 0. -1.
         23    2    1    2    0    0 -0.13716549370E+04  0.11409097025E+04 -0.24790978070E+04  0.30555601424E+04  0.86079218596E+02 0.  0.
         11    1    3    3    0    0 -0.13156588106E+04  0.11002977569E+04 -0.23530479464E+04  0.29117774465E+04  0.00000000000E+00 0. -1.
        -11    1    3    3    0    0 -0.55996126341E+02  0.40611945614E+02 -0.12604986062E+03  0.14378269595E+03  0.00000000000E+00 0.  1.
         22    1    1    2    0    0  0.13716549370E+04 -0.11409097025E+04  0.57281330079E+02  0.17850471608E+04  0.00000000000E+00 0.  1.
<mgrwt>
<rscale>  0 0.41912151E+04</rscale>
<asrwt>0</asrwt>
<pdfrwt beam="1">  1        2 0.55864797E+00 0.41912151E+04</pdfrwt>
<pdfrwt beam="2">  1       -2 0.18606084E+00 0.41912151E+04</pdfrwt>
<totfact> 0.83715747E-02</totfact>
</mgrwt>
</event>
<event>
 6    1  0.1817112E-005  0.1856423E+04  0.7818608E-02  0.8676857E-01
         -2   -1    0    0    0  501 -0.00000000000E+00  0.00000000000E+00  0.44475457433E+03  0.44475457433E+03  0.00000000000E+00 0.  1.
          2   -1    0    0  501    0  0.00000000000E+00 -0.00000000000E+00 -0.19371948233E+04  0.19371948233E+04  0.00000000000E+00 0. -1.
         23    2    1    2    0    0 -0.30657969648E+03 -0.57057228066E+03 -0.15971422651E+04  0.17258195706E+04  0.89699150255E+02 0.  0.
         11    1    3    3    0    0 -0.22658826380E+03 -0.49126896848E+03 -0.13398177305E+04  0.14449217943E+04  0.00000000000E+00 0. -1.
        -11    1    3    3    0    0 -0.79991432675E+02 -0.79303312178E+02 -0.25732453464E+03  0.28089777633E+03  0.00000000000E+00 0.  1.
         22    1    1    2    0    0  0.30657969648E+03  0.57057228066E+03  0.10470201612E+03  0.65612982704E+03  0.00000000000E+00 0.  1.
<mgrwt>
<rscale>  0 0.18564226E+04</rscale>
<asrwt>0</asrwt>
<pdfrwt beam="1">  1        2 0.29802997E+00 0.18564226E+04</pdfrwt>
<pdfrwt beam="2">  1       -2 0.68423782E-01 0.18564226E+04</pdfrwt>
<totfact> 0.13293151E+01</totfact>
</mgrwt>
</event>
<event>
 6    1  0.1817112E-005  0.2425780E+04  0.7818608E-02  0.8429914E-01
          2   -1    0    0  501    0  0.00000000000E+00  0.00000000000E+00  0.10707275468E+04  0.10707275468E+04  0.00000000000E+00 0. -1.
         -2   -1    0    0    0  501 -0.00000000000E+00 -0.00000000000E+00 -0.13739281243E+04  0.13739281243E+04  0.00000000000E+00 0.  1.
         23    2    1    2    0    0 -0.48902049293E+03  0.50183292260E+03 -0.11473614590E+04  0.13475754923E+04  0.92434111555E+02 0.  0.
         13    1    3    3    0    0 -0.46692428790E+03  0.44247417547E+03 -0.10524015630E+04  0.12334304749E+04  0.00000000000E+00 0.  1.
        -13    1    3    3    0    0 -0.22096205033E+02  0.59358747130E+02 -0.94959896063E+02  0.11414501740E+03  0.00000000000E+00 0. -1.
         22    1    1    2    0    0  0.48902049293E+03 -0.50183292260E+03  0.84416088154E+03  0.10970801788E+04  0.00000000000E+00 0. -1.
<mgrwt>
<rscale>  0 0.24257804E+04</rscale>
<asrwt>0</asrwt>
<pdfrwt beam="1">  1        2 0.16472732E+00 0.24257804E+04</pdfrwt>
<pdfrwt beam="2">  1       -2 0.21137356E+00 0.24257804E+04</pdfrwt>
<totfact> 0.22869448E+00</totfact>
</mgrwt>
</event>
<event>
 6    1  0.1817112E-005  0.4034861E+04  0.7818608E-02  0.7997551E-01
         -2   -1    0    0    0  501 -0.00000000000E+00  0.00000000000E+00  0.18293728338E+04  0.18293728338E+04  0.00000000000E+00 0. -1.
          2   -1    0    0  501    0  0.00000000000E+00 -0.00000000000E+00 -0.22248206806E+04  0.22248206806E+04  0.00000000000E+00 0.  1.
         23    2    1    2    0    0 -0.98184283654E+03  0.17271619506E+04 -0.54383317456E+03  0.20619279787E+04  0.93213241401E+02 0.  0.
         11    1    3    3    0    0 -0.47440262692E+03  0.81947692336E+03 -0.30685957708E+03  0.99537082557E+03  0.00000000000E+00 0. -1.
        -11    1    3    3    0    0 -0.50744020963E+03  0.90768502724E+03 -0.23697359748E+03  0.10665571531E+04  0.00000000000E+00 0.  1.
         22    1    1    2    0    0  0.98184283654E+03 -0.17271619506E+04  0.14838532782E+03  0.19922655357E+04  0.00000000000E+00 0.  1.
<mgrwt>
<rscale>  0 0.40348613E+04</rscale>
<asrwt>0</asrwt>
<pdfrwt beam="1">  1        2 0.34228010E+00 0.40348613E+04</pdfrwt>
<pdfrwt beam="2">  1       -2 0.28144197E+00 0.40348613E+04</pdfrwt>
<totfact> 0.16233712E-01</totfact>
</mgrwt>
</event>
<event>
 6    1  0.1817112E-005  0.3949289E+04  0.7818608E-02  0.8014855E-01
          2   -1    0    0  501    0  0.00000000000E+00  0.00000000000E+00  0.24972787788E+04  0.24972787788E+04  0.00000000000E+00 0. -1.
         -2   -1    0    0    0  501 -0.00000000000E+00 -0.00000000000E+00 -0.15613878289E+04  0.15613878289E+04  0.00000000000E+00 0.  1.
         23    2    1    2    0    0 -0.97499327563E+03  0.15576810220E+04  0.12078570914E+04  0.22009939680E+04  0.92052376404E+02 0.  0.
         11    1    3    3    0    0 -0.23110993199E+03  0.41698069150E+03  0.35119969296E+03  0.59213674272E+03  0.00000000000E+00 0. -1.
        -11    1    3    3    0    0 -0.74388334364E+03  0.11407003305E+04  0.85665739847E+03  0.16088572253E+04  0.00000000000E+00 0.  1.
         22    1    1    2    0    0  0.97499327563E+03 -0.15576810220E+04 -0.27196614155E+03  0.18576726396E+04  0.00000000000E+00 0.  1.
<mgrwt>
<rscale>  0 0.39492889E+04</rscale>
<asrwt>0</asrwt>
<pdfrwt beam="1">  1        2 0.38419673E+00 0.39492889E+04</pdfrwt>
<pdfrwt beam="2">  1       -2 0.24021351E+00 0.39492889E+04</pdfrwt>
<totfact> 0.20437856E-01</totfact>
</mgrwt>
</event>
<event>
 6    1  0.1817112E-005  0.2690952E+04  0.7818608E-02  0.8337947E-01
          2   -1    0    0  501    0  0.00000000000E+00  0.00000000000E+00  0.11754858400E+04  0.11754858400E+04  0.00000000000E+00 0. -1.
         -2   -1    0    0    0  501 -0.00000000000E+00 -0.00000000000E+00 -0.15400487514E+04  0.15400487514E+04  0.00000000000E+00 0.  1.
         23    2    1    2    0    0 -0.13405357244E+04  0.93161257833E+02 -0.20197485774E+03  0.13619652641E+04  0.91872135051E+02 0.  0.
         11    1    3    3    0    0 -0.80578355307E+03  0.71852286001E+02 -0.78900052118E+02  0.81281923183E+03  0.00000000000E+00 0. -1.
        -11    1    3    3    0    0 -0.53475217132E+03  0.21308971832E+02 -0.12307480562E+03  0.54914603230E+03  0.00000000000E+00 0.  1.
         22    1    1    2    0    0  0.13405357244E+04 -0.93161257833E+02 -0.16258805369E+03  0.13535693272E+04  0.00000000000E+00 0. -1.
<mgrwt>
<rscale>  0 0.26909519E+04</rscale>
<asrwt>0</asrwt>
<pdfrwt beam="1">  1        2 0.18084398E+00 0.26909519E+04</pdfrwt>
<pdfrwt beam="2">  1       -2 0.23693058E+00 0.26909519E+04</pdfrwt>
<totfact> 0.13313668E+00</totfact>
</mgrwt>
</event>
<event>
 6    1  0.1817112E-005  0.6075317E+04  0.7818608E-02  0.7681133E-01
         -2   -1    0    0    0  501 -0.00000000000E+00  0.00000000000E+00  0.22203197726E+04  0.22203197726E+04  0.00000000000E+00 0.  1.
          2   -1    0    0  501    0  0.00000000000E+00 -0.00000000000E+00 -0.41558745703E+04  0.41558745703E+04  0.00000000000E+00 0. -1.
         23    2    1    2    0    0  0.25774907662E+04  0.10414105089E+04  0.31538620180E+03  0.27992221762E+04  0.90453508581E+02 0.  0.
         11    1    3    3    0    0  0.20687375112E+04  0.87415284140E+03  0.25143599577E+03  0.22598756914E+04  0.00000000000E+00 0. -1.
        -11    1    3    3    0    0  0.50875325498E+03  0.16725766754E+03  0.63950206025E+02  0.53934648479E+03  0.00000000000E+00 0.  1.
         22    1    1    2    0    0 -0.25774907662E+04 -0.10414105089E+04 -0.22509409995E+04  0.35769721667E+04  0.00000000000E+00 0. -1.
<mgrwt>
<rscale>  0 0.60753174E+04</rscale>
<asrwt>0</asrwt>
<pdfrwt beam="1">  1        2 0.63936532E+00 0.60753174E+04</pdfrwt>
<pdfrwt beam="2">  1       -2 0.34158766E+00 0.60753174E+04</pdfrwt>
<totfact> 0.29639989E-03</totfact>
</mgrwt>
</event>
<event>
 6    1  0.1817112E-005  0.2837236E+04  0.7818608E-02  0.8291800E-01
         -1   -1    0    0    0  501 -0.00000000000E+00  0.00000000000E+00  0.11867287098E+04  0.11867287098E+04  0.00000000000E+00 0.  1.
          1   -1    0    0  501    0  0.00000000000E+00 -0.00000000000E+00 -0.16958193712E+04  0.16958193712E+04  0.00000000000E+00 0. -1.
         23    2    1    2    0    0 -0.85246186718E+03  0.97616787222E+03 -0.83815610554E+03  0.15454321487E+04  0.79119651833E+02 0.  0.
         11    1    3    3    0    0 -0.75338116573E+03  0.89814573226E+03 -0.75510630002E+03  0.13944297980E+04  0.00000000000E+00 0.  1.
        -11    1    3    3    0    0 -0.99080701452E+02  0.78022139962E+02 -0.83049805516E+02  0.15100235071E+03  0.00000000000E+00 0. -1.
         22    1    1    2    0    0  0.85246186718E+03 -0.97616787222E+03  0.32906544421E+03  0.13371159323E+04  0.00000000000E+00 0.  1.
<mgrwt>
<rscale>  0 0.28372364E+04</rscale>
<asrwt>0</asrwt>
<pdfrwt beam="1">  1        1 0.26089528E+00 0.28372364E+04</pdfrwt>
<pdfrwt beam="2">  1       -1 0.18257365E+00 0.28372364E+04</pdfrwt>
<totfact> 0.82579440E-01</totfact>
</mgrwt>
</event>
<event>
 6    1  0.1817112E-005  0.1681159E+04  0.7818608E-02  0.8772183E-01
          2   -1    0    0  501    0  0.00000000000E+00  0.00000000000E+00  0.52913683581E+03  0.52913683581E+03  0.00000000000E+00 0. -1.
         -2   -1    0    0    0  501 -0.00000000000E+00 -0.00000000000E+00 -0.13353338075E+04  0.13353338075E+04  0.00000000000E+00 0.  1.
         23    2    1    2    0    0 -0.64546063552E+03 -0.53380479029E+03 -0.43729432624E+03  0.94923507366E+03  0.90851038347E+02 0.  0.
         13    1    3    3    0    0 -0.49387405974E+02 -0.13605677838E+02 -0.30740329121E+02  0.59742766698E+02  0.00000000000E+00 0.  1.
        -13    1    3    3    0    0 -0.59607322955E+03 -0.52019911245E+03 -0.40655399712E+03  0.88949230697E+03  0.00000000000E+00 0. -1.
         22    1    1    2    0    0  0.64546063552E+03  0.53380479029E+03 -0.36890264546E+03  0.91523556966E+03  0.00000000000E+00 0. -1.
<mgrwt>
<rscale>  0 0.16811595E+04</rscale>
<asrwt>0</asrwt>
<pdfrwt beam="1">  1        2 0.81405669E-01 0.16811595E+04</pdfrwt>
<pdfrwt beam="2">  1       -2 0.20543597E+00 0.16811595E+04</pdfrwt>
<totfact> 0.67243747E+00</totfact>
</mgrwt>
</event>
<event>
 6    1  0.1817112E-005  0.3140645E+04  0.7818608E-02  0.8204671E-01
          2   -1    0    0  501    0  0.00000000000E+00  0.00000000000E+00  0.32041146492E+04  0.32041146492E+04  0.00000000000E+00 0. -1.
         -2   -1    0    0    0  501 -0.00000000000E+00 -0.00000000000E+00 -0.76960815685E+03  0.76960815685E+03  0.00000000000E+00 0.  1.
         23    2    1    2    0    0  0.28867589648E+03 -0.14215902282E+04  0.19762317386E+04  0.24524508711E+04  0.69071271004E+02 0.  0.
         13    1    3    3    0    0  0.10116553008E+03 -0.59074721851E+03  0.76824290817E+03  0.97437872853E+03  0.00000000000E+00 0. -1.
        -13    1    3    3    0    0  0.18751036641E+03 -0.83084300966E+03  0.12079888304E+04  0.14780721426E+04  0.00000000000E+00 0.  1.
         22    1    1    2    0    0 -0.28867589648E+03  0.14215902282E+04  0.45827475371E+03  0.15212719349E+04  0.00000000000E+00 0.  1.
<mgrwt>
<rscale>  0 0.31406450E+04</rscale>
<asrwt>0</asrwt>
<pdfrwt beam="1">  1        2 0.49294071E+00 0.31406450E+04</pdfrwt>
<pdfrwt beam="2">  1       -2 0.11840126E+00 0.31406450E+04</pdfrwt>
<totfact> 0.59816150E-01</totfact>
</mgrwt>
</event>
<event>
 6    1  0.1817112E-005  0.3122779E+04  0.7818608E-02  0.8209514E-01
         -2   -1    0    0    0  501 -0.00000000000E+00  0.00000000000E+00  0.10181787137E+04  0.10181787137E+04  0.00000000000E+00 0.  1.
          2   -1    0    0  501    0  0.00000000000E+00 -0.00000000000E+00 -0.23944091703E+04  0.23944091703E+04  0.00000000000E+00 0. -1.
         23    2    1    2    0    0  0.14471646536E+04 -0.55788284918E+03 -0.50408228654E+03  0.16332168607E+04  0.88201783742E+02 0.  0.
         11    1    3    3    0    0  0.40191073690E+03 -0.11306940338E+03 -0.13420282365E+03  0.43855139755E+03  0.00000000000E+00 0.  1.
        -11    1    3    3    0    0  0.10452539167E+04 -0.44481344580E+03 -0.36987946289E+03  0.11946654632E+04  0.00000000000E+00 0. -1.
         22    1    1    2    0    0 -0.14471646536E+04  0.55788284918E+03 -0.87214817009E+03  0.17793710233E+04  0.00000000000E+00 0.  1.
<mgrwt>
<rscale>  0 0.31227785E+04</rscale>
<asrwt>0</asrwt>
<pdfrwt beam="1">  1        2 0.36837064E+00 0.31227785E+04</pdfrwt>
<pdfrwt beam="2">  1       -2 0.15664288E+00 0.31227785E+04</pdfrwt>
<totfact> 0.90545745E-01</totfact>
</mgrwt>
</event>
<event>
 6    1  0.1817112E-005  0.2143845E+04  0.7818608E-02  0.8542171E-01
         -2   -1    0    0    0  501 -0.00000000000E+00  0.00000000000E+00  0.15965701216E+04  0.15965701216E+04  0.00000000000E+00 0.  1.
          2   -1    0    0  501    0  0.00000000000E+00 -0.00000000000E+00 -0.71967897707E+03  0.71967897707E+03  0.00000000000E+00 0. -1.
         23    2    1    2    0    0  0.77821035208E+03 -0.66588463222E+03  0.10479577437E+03  0.10336170563E+04  0.91478790859E+02 0.  0.
         11    1    3    3    0    0  0.54977126754E+03 -0.51934969262E+03  0.92711391478E+02  0.76195009807E+03  0.00000000000E+00 0. -1.
        -11    1    3    3    0    0  0.22843908454E+03 -0.14653493960E+03  0.12084382896E+02  0.27166695820E+03  0.00000000000E+00 0.  1.
         22    1    1    2    0    0 -0.77821035208E+03  0.66588463222E+03  0.77209537012E+03  0.12826320424E+04  0.00000000000E+00 0. -1.
<mgrwt>
<rscale>  0 0.21438451E+04</rscale>
<asrwt>0</asrwt>
<pdfrwt beam="1">  1        2 0.11071984E+00 0.21438451E+04</pdfrwt>
<pdfrwt beam="2">  1       -2 0.24562617E+00 0.21438451E+04</pdfrwt>
<totfact> 0.24826179E+00</totfact>
</mgrwt>
</event>
<event>
 6    1  0.1817112E-005  0.1207225E+04  0.7818608E-02  0.9106556E-01
         -2   -1    0    0    0  501 -0.00000000000E+00  0.00000000000E+00  0.18167754882E+03  0.18167754882E+03  0.00000000000E+00 0.  1.
          2   -1    0    0  501    0  0.00000000000E+00 -0.00000000000E+00 -0.20054659241E+04  0.20054659241E+04  0.00000000000E+00 0. -1.
         23    2    1    2    0    0 -0.52714513152E+03 -0.28509763341E+03 -0.98145809154E+03  0.11533722424E+04  0.88571404617E+02 0.  0.
         13    1    3    3    0    0 -0.12054475185E+03 -0.64634127846E+02 -0.30078074612E+03  0.33042043659E+03  0.00000000000E+00 0. -1.
        -13    1    3    3    0    0 -0.40660037968E+03 -0.22046350556E+03 -0.68067734542E+03  0.82295180576E+03  0.00000000000E+00 0.  1.
         22    1    1    2    0    0  0.52714513152E+03  0.28509763341E+03 -0.84233028374E+03  0.10337712306E+04  0.00000000000E+00 0.  1.
<mgrwt>
<rscale>  0 0.12072251E+04</rscale>
<asrwt>0</asrwt>
<pdfrwt beam="1">  1        2 0.30853320E+00 0.12072251E+04</pdfrwt>
<pdfrwt beam="2">  1       -2 0.27950393E-01 0.12072251E+04</pdfrwt>
<totfact> 0.76632638E+01</totfact>
</mgrwt>
</event>
<event>
 6    1  0.1817112E-005  0.6182010E+04  0.7818608E-02  0.7668235E-01
         -2   -1    0    0    0  501 -0.00000000000E+00  0.00000000000E+00  0.23543534256E+04  0.23543534256E+04  0.00000000000E+00 0. -1.
          2   -1    0    0  501    0  0.00000000000E+00 -0.00000000000E+00 -0.40581474010E+04  0.40581474010E+04  0.00000000000E+00 0.  1.
         23    2    1    2    0    0 -0.15039848482E+04  0.63669909680E+03 -0.35734477035E+04  0.39299696130E+04  0.88184496335E+02 0.  0.
         11    1    3    3    0    0 -0.10579103354E+04  0.47640033233E+03 -0.24632373775E+04  0.27228055260E+04  0.00000000000E+00 0.  1.
        -11    1    3    3    0    0 -0.44607451288E+03  0.16029876447E+03 -0.11102103260E+04  0.12071640870E+04  0.00000000000E+00 0. -1.
         22    1    1    2    0    0  0.15039848482E+04 -0.63669909680E+03  0.18696537282E+04  0.24825312137E+04  0.00000000000E+00 0. -1.
<mgrwt>
<rscale>  0 0.61820104E+04</rscale>
<asrwt>0</asrwt>
<pdfrwt beam="1">  1        2 0.62433036E+00 0.61820104E+04</pdfrwt>
<pdfrwt beam="2">  1       -2 0.36220822E+00 0.61820104E+04</pdfrwt>
<totfact> 0.26343852E-03</totfact>
</mgrwt>
</event>
<event>
 6    1  0.1817112E-005  0.3505225E+04  0.7818608E-02  0.8112553E-01
         -2   -1    0    0    0  501 -0.00000000000E+00  0.00000000000E+00  0.22968996964E+04  0.22968996964E+04  0.00000000000E+00 0.  1.
          2   -1    0    0  501    0  0.00000000000E+00 -0.00000000000E+00 -0.13373029927E+04  0.13373029927E+04  0.00000000000E+00 0. -1.
         23    2    1    2    0    0  0.69449827325E+03 -0.66295624862E+03 -0.10381025994E+04  0.14177547776E+04  0.10262925257E+03 0.  0.
         13    1    3    3    0    0  0.53538293408E+03 -0.45245644196E+03 -0.72878181067E+03  0.10111748838E+04  0.00000000000E+00 0.  1.
        -13    1    3    3    0    0  0.15911533917E+03 -0.21049980666E+03 -0.30932078870E+03  0.40657989386E+03  0.00000000000E+00 0. -1.
         22    1    1    2    0    0 -0.69449827325E+03  0.66295624862E+03  0.19976993031E+04  0.22164479116E+04  0.00000000000E+00 0.  1.
<mgrwt>
<rscale>  0 0.35052252E+04</rscale>
<asrwt>0</asrwt>
<pdfrwt beam="1">  1        2 0.20573892E+00 0.35052252E+04</pdfrwt>
<pdfrwt beam="2">  1       -2 0.35336919E+00 0.35052252E+04</pdfrwt>
<totfact> 0.19126273E-01</totfact>
</mgrwt>
</event>
<event>
 6    1  0.1817112E-005  0.4381769E+04  0.7818608E-02  0.7931669E-01
         -2   -1    0    0    0  501 -0.00000000000E+00  0.00000000000E+00  0.13979662295E+04  0.13979662295E+04  0.00000000000E+00 0.  1.
          2   -1    0    0  501    0  0.00000000000E+00 -0.00000000000E+00 -0.34335421291E+04  0.34335421291E+04  0.00000000000E+00 0. -1.
         23    2    1    2    0    0 -0.11086291308E+04  0.14518095045E+04 -0.23500662457E+04  0.29779405651E+04  0.92245667189E+02 0.  0.
         11    1    3    3    0    0 -0.64470590557E+03  0.77286290789E+03 -0.13178643382E+04  0.16582307418E+04  0.00000000000E+00 0. -1.
        -11    1    3    3    0    0 -0.46392322527E+03  0.67894659660E+03 -0.10322019076E+04  0.13197098234E+04  0.00000000000E+00 0.  1.
         22    1    1    2    0    0  0.11086291308E+04 -0.14518095045E+04  0.31449034621E+03  0.18535677935E+04  0.00000000000E+00 0.  1.
<mgrwt>
<rscale>  0 0.43817695E+04</rscale>
<asrwt>0</asrwt>
<pdfrwt beam="1">  1        2 0.52823724E+00 0.43817695E+04</pdfrwt>
<pdfrwt beam="2">  1       -2 0.21507173E+00 0.43817695E+04</pdfrwt>
<totfact> 0.73360394E-02</totfact>
</mgrwt>
</event>
<event>
 6    1  0.1817112E-005  0.2220031E+04  0.7818608E-02  0.8510137E-01
          2   -1    0    0  501    0  0.00000000000E+00  0.00000000000E+00  0.14940442647E+04  0.14940442647E+04  0.00000000000E+00 0. -1.
         -2   -1    0    0    0  501 -0.00000000000E+00 -0.00000000000E+00 -0.82469712130E+03  0.82469712130E+03  0.00000000000E+00 0.  1.
         23    2    1    2    0    0  0.48535168057E+02  0.32012139642E+03 -0.77152119382E+03  0.84194250456E+03  0.93748906572E+02 0.  0.
         13    1    3    3    0    0  0.52831725161E+02  0.88913020394E+02 -0.28697628013E+03  0.30504442584E+03  0.00000000000E+00 0. -1.
        -13    1    3    3    0    0 -0.42965571041E+01  0.23120837603E+03 -0.48454491369E+03  0.53689807872E+03  0.00000000000E+00 0.  1.
         22    1    1    2    0    0 -0.48535168057E+02 -0.32012139642E+03  0.14408683373E+04  0.14767988815E+04  0.00000000000E+00 0. -1.
<mgrwt>
<rscale>  0 0.22200306E+04</rscale>
<asrwt>0</asrwt>
<pdfrwt beam="1">  1        2 0.22985296E+00 0.22200306E+04</pdfrwt>
<pdfrwt beam="2">  1       -2 0.12687648E+00 0.22200306E+04</pdfrwt>
<totfact> 0.53923186E+00</totfact>
</mgrwt>
</event>
<event>
 6    1  0.1817112E-005  0.1952758E+04  0.7818608E-02  0.8629032E-01
         -2   -1    0    0    0  501 -0.00000000000E+00  0.00000000000E+00  0.40715870055E+03  0.40715870055E+03  0.00000000000E+00 0.  1.
          2   -1    0    0  501    0  0.00000000000E+00 -0.00000000000E+00 -0.23413872867E+04  0.23413872867E+04  0.00000000000E+00 0. -1.
         23    2    1    2    0    0  0.47340070564E+03 -0.69402509930E+03 -0.27470841384E+03  0.88849591566E+03  0.90450057689E+02 0.  0.
         13    1    3    3    0    0  0.32105075994E+03 -0.49709307760E+03 -0.15225309145E+03  0.61102874082E+03  0.00000000000E+00 0.  1.
        -13    1    3    3    0    0  0.15234994570E+03 -0.19693202171E+03 -0.12245532239E+03  0.27746717483E+03  0.00000000000E+00 0. -1.
         22    1    1    2    0    0 -0.47340070564E+03  0.69402509930E+03 -0.16595201724E+04  0.18600500716E+04  0.00000000000E+00 0. -1.
<mgrwt>
<rscale>  0 0.19527583E+04</rscale>
<asrwt>0</asrwt>
<pdfrwt beam="1">  1        2 0.36021343E+00 0.19527583E+04</pdfrwt>
<pdfrwt beam="2">  1       -2 0.62639800E-01 0.19527583E+04</pdfrwt>
<totfact> 0.94679620E+00</totfact>
</mgrwt>
</event>
<event>
 6    1  0.1817112E-005  0.3371731E+04  0.7818608E-02  0.8144879E-01
          2   -1    0    0  501    0  0.00000000000E+00  0.00000000000E+00  0.16591745754E+04  0.16591745754E+04  0.00000000000E+00 0. -1.
         -2   -1    0    0    0  501 -0.00000000000E+00 -0.00000000000E+00 -0.17129858330E+04  0.17129858330E+04  0.00000000000E+00 0.  1.
         23    2    1    2    0    0  0.14907396242E+04 -0.61718777708E+02  0.75549697663E+03  0.16747819436E+04  0.89470901654E+02 0.  0.
         13    1    3    3    0    0  0.73153519407E+03 -0.93163086366E+01  0.41460120198E+03  0.84090706410E+03  0.00000000000E+00 0.  1.
        -13    1    3    3    0    0  0.75920443011E+03 -0.52402469071E+02  0.34089577465E+03  0.83387487948E+03  0.00000000000E+00 0. -1.
         22    1    1    2    0    0 -0.14907396242E+04  0.61718777708E+02 -0.80930823424E+03  0.16973784648E+04  0.00000000000E+00 0.  1.
<mgrwt>
<rscale>  0 0.33717310E+04</rscale>
<asrwt>0</asrwt>
<pdfrwt beam="1">  1        2 0.25525763E+00 0.33717310E+04</pdfrwt>
<pdfrwt beam="2">  1       -2 0.26353628E+00 0.33717310E+04</pdfrwt>
<totfact> 0.45550911E-01</totfact>
</mgrwt>
</event>
<event>
 6    1  0.1817112E-005  0.3352559E+04  0.7818608E-02  0.8149649E-01
         -1   -1    0    0    0  501 -0.00000000000E+00  0.00000000000E+00  0.15590155265E+04  0.15590155265E+04  0.00000000000E+00 0.  1.
          1   -1    0    0  501    0  0.00000000000E+00 -0.00000000000E+00 -0.18023636679E+04  0.18023636679E+04  0.00000000000E+00 0. -1.
         23    2    1    2    0    0  0.78213797622E+03  0.10709657951E+04  0.90418784528E+03  0.16076556162E+04  0.91067956415E+02 0.  0.
         11    1    3    3    0    0  0.43513933736E+03  0.52815218167E+03  0.43926234565E+03  0.81316811191E+03  0.00000000000E+00 0. -1.
        -11    1    3    3    0    0  0.34699863886E+03  0.54281361344E+03  0.46492549963E+03  0.79448750432E+03  0.00000000000E+00 0.  1.
         22    1    1    2    0    0 -0.78213797622E+03 -0.10709657951E+04 -0.11475359867E+04  0.17537235782E+04  0.00000000000E+00 0. -1.
<mgrwt>
<rscale>  0 0.33525590E+04</rscale>
<asrwt>0</asrwt>
<pdfrwt beam="1">  1        1 0.27728672E+00 0.33525590E+04</pdfrwt>
<pdfrwt beam="2">  1       -1 0.23984854E+00 0.33525590E+04</pdfrwt>
<totfact> 0.27244823E-01</totfact>
</mgrwt>
</event>
<event>
 6    1  0.1817112E-005  0.4392601E+04  0.7818608E-02  0.7929714E-01
          2   -1    0    0  501    0  0.00000000000E+00  0.00000000000E+00  0.33711491550E+04  0.33711491550E+04  0.00000000000E+00 0.  1.
         -2   -1    0    0    0  501 -0.00000000000E+00 -0.00000000000E+00 -0.14308879891E+04  0.14308879891E+04  0.00000000000E+00 0. -1.
         23    2    1    2    0    0 -0.11548116522E+04 -0.87519703093E+03  0.27730722751E+04  0.31307699187E+04  0.11059225208E+03 0.  0.
         11    1    3    3    0    0 -0.89094521623E+03 -0.72897731490E+03  0.22250940862E+04  0.25052415046E+04  0.00000000000E+00 0. -1.
        -11    1    3    3    0    0 -0.26386643602E+03 -0.14621971603E+03  0.54797818887E+03  0.62552841413E+03  0.00000000000E+00 0.  1.
         22    1    1    2    0    0  0.11548116522E+04  0.87519703093E+03 -0.83281110913E+03  0.16712672254E+04  0.00000000000E+00 0. -1.
<mgrwt>
<rscale>  0 0.43926014E+04</rscale>
<asrwt>0</asrwt>
<pdfrwt beam="1">  1        2 0.51863833E+00 0.43926014E+04</pdfrwt>
<pdfrwt beam="2">  1       -2 0.22013661E+00 0.43926014E+04</pdfrwt>
<totfact> 0.75093760E-02</totfact>
</mgrwt>
</event>
<event>
 6    1  0.1817112E-005  0.1766019E+04  0.7818608E-02  0.8724582E-01
         -2   -1    0    0    0  501 -0.00000000000E+00  0.00000000000E+00  0.19285887643E+03  0.19285887643E+03  0.00000000000E+00 0.  1.
          2   -1    0    0  501    0  0.00000000000E+00 -0.00000000000E+00 -0.40428828780E+04  0.40428828780E+04  0.00000000000E+00 0. -1.
         23    2    1    2    0    0 -0.67212283989E+03 -0.50075490457E+03 -0.25782717020E+04  0.27126335843E+04  0.91604623757E+02 0.  0.
         11    1    3    3    0    0 -0.30356845479E+03 -0.21702586771E+03 -0.10047908884E+04  0.10718482931E+04  0.00000000000E+00 0. -1.
        -11    1    3    3    0    0 -0.36855438510E+03 -0.28372903686E+03 -0.15734808136E+04  0.16407852912E+04  0.00000000000E+00 0.  1.
         22    1    1    2    0    0  0.67212283989E+03  0.50075490457E+03 -0.12717522995E+04  0.15231081700E+04  0.00000000000E+00 0. -1.
<mgrwt>
<rscale>  0 0.17660191E+04</rscale>
<asrwt>0</asrwt>
<pdfrwt beam="1">  1        2 0.62198189E+00 0.17660191E+04</pdfrwt>
<pdfrwt beam="2">  1       -2 0.29670601E-01 0.17660191E+04</pdfrwt>
<totfact> 0.31786755E+00</totfact>
</mgrwt>
</event>
<event>
 6    1  0.1817112E-005  0.1542562E+04  0.7818608E-02  0.8856633E-01
          2   -1    0    0  501    0  0.00000000000E+00  0.00000000000E+00  0.13701642736E+04  0.13701642736E+04  0.00000000000E+00 0. -1.
         -2   -1    0    0    0  501 -0.00000000000E+00 -0.00000000000E+00 -0.43416284714E+03  0.43416284714E+03  0.00000000000E+00 0.  1.
         23    2    1    2    0    0 -0.61822931329E+03 -0.30678865442E+03  0.86665348417E+03  0.11106875174E+04  0.78814575855E+02 0.  0.
         11    1    3    3    0    0 -0.16958371466E+03 -0.12141199385E+03  0.28279172934E+03  0.35138393633E+03  0.00000000000E+00 0.  1.
        -11    1    3    3    0    0 -0.44864559862E+03 -0.18537666057E+03  0.58386175483E+03  0.75930358105E+03  0.00000000000E+00 0. -1.
         22    1    1    2    0    0  0.61822931329E+03  0.30678865442E+03  0.69347942317E+02  0.69363960339E+03  0.00000000000E+00 0.  1.
<mgrwt>
<rscale>  0 0.15425621E+04</rscale>
<asrwt>0</asrwt>
<pdfrwt beam="1">  1        2 0.21079450E+00 0.15425621E+04</pdfrwt>
<pdfrwt beam="2">  1       -2 0.66794285E-01 0.15425621E+04</pdfrwt>
<totfact> 0.29843080E+01</totfact>
</mgrwt>
</event>
<event>
 6    1  0.1817112E-005  0.1980762E+04  0.7818608E-02  0.8615668E-01
          2   -1    0    0  501    0  0.00000000000E+00  0.00000000000E+00  0.19926465896E+04  0.19926465896E+04  0.00000000000E+00 0. -1.
         -2   -1    0    0    0  501 -0.00000000000E+00 -0.00000000000E+00 -0.49223703310E+03  0.49223703310E+03  0.00000000000E+00 0.  1.
         23    2    1    2    0    0  0.46415294919E+03  0.57585901571E+03  0.15741181348E+04  0.17415905979E+04  0.90765313107E+02 0.  0.
         11    1    3    3    0    0  0.11876747868E+03  0.19638599180E+03  0.55512776976E+03  0.60069960257E+03  0.00000000000E+00 0. -1.
        -11    1    3    3    0    0  0.34538547051E+03  0.37947302391E+03  0.10189903651E+04  0.11408909953E+04  0.00000000000E+00 0.  1.
         22    1    1    2    0    0 -0.46415294919E+03 -0.57585901571E+03 -0.73708578328E+02  0.74329302481E+03  0.00000000000E+00 0.  1.
<mgrwt>
<rscale>  0 0.19807619E+04</rscale>
<asrwt>0</asrwt>
<pdfrwt beam="1">  1        2 0.30656101E+00 0.19807619E+04</pdfrwt>
<pdfrwt beam="2">  1       -2 0.75728775E-01 0.19807619E+04</pdfrwt>
<totfact> 0.98073866E+00</totfact>
</mgrwt>
</event>
<event>
 6    1  0.1817112E-005  0.2438086E+04  0.7818608E-02  0.8425381E-01
          2   -1    0    0  501    0  0.00000000000E+00  0.00000000000E+00  0.14755453635E+04  0.14755453635E+04  0.00000000000E+00 0. -1.
         -2   -1    0    0    0  501 -0.00000000000E+00 -0.00000000000E+00 -0.10071296634E+04  0.10071296634E+04  0.00000000000E+00 0.  1.
         23    2    1    2    0    0 -0.63130026104E+02 -0.75816947677E+03  0.12022941848E+04  0.14256111754E+04  0.89719345372E+02 0.  0.
         13    1    3    3    0    0 -0.16398268472E+02 -0.23236327155E+03  0.44813982102E+03  0.50506523574E+03  0.00000000000E+00 0. -1.
        -13    1    3    3    0    0 -0.46731757633E+02 -0.52580620521E+03  0.75415436383E+03  0.92054593970E+03  0.00000000000E+00 0.  1.
         22    1    1    2    0    0  0.63130026104E+02  0.75816947677E+03 -0.73387848480E+03  0.10570638515E+04  0.00000000000E+00 0.  1.
<mgrwt>
<rscale>  0 0.24380857E+04</rscale>
<asrwt>0</asrwt>
<pdfrwt beam="1">  1        2 0.22700698E+00 0.24380857E+04</pdfrwt>
<pdfrwt beam="2">  1       -2 0.15494303E+00 0.24380857E+04</pdfrwt>
<totfact> 0.32287212E+00</totfact>
</mgrwt>
</event>
<event>
 6    1  0.1817112E-005  0.1658978E+04  0.7818608E-02  0.8785113E-01
          2   -1    0    0  501    0  0.00000000000E+00  0.00000000000E+00  0.14796249578E+04  0.14796249578E+04  0.00000000000E+00 0.  1.
         -2   -1    0    0    0  501 -0.00000000000E+00 -0.00000000000E+00 -0.46501758044E+03  0.46501758044E+03  0.00000000000E+00 0. -1.
         23    2    1    2    0    0  0.80173132206E+02 -0.64012255910E+03  0.11160498157E+04  0.12915918586E+04  0.80359916871E+02 0.  0.
         11    1    3    3    0    0 -0.13256091737E+02 -0.13024864989E+03  0.19977032762E+03  0.23884852640E+03  0.00000000000E+00 0. -1.
        -11    1    3    3    0    0  0.93429223943E+02 -0.50987390921E+03  0.91627948813E+03  0.10527433322E+04  0.00000000000E+00 0.  1.
         22    1    1    2    0    0 -0.80173132206E+02  0.64012255910E+03 -0.10144243842E+03  0.65305067959E+03  0.00000000000E+00 0. -1.
<mgrwt>
<rscale>  0 0.16589775E+04</rscale>
<asrwt>0</asrwt>
<pdfrwt beam="1">  1        2 0.22763461E+00 0.16589775E+04</pdfrwt>
<pdfrwt beam="2">  1       -2 0.71541167E-01 0.16589775E+04</pdfrwt>
<totfact> 0.22052136E+01</totfact>
</mgrwt>
</event>
<event>
 6    1  0.1817112E-005  0.1387263E+04  0.7818608E-02  0.8963090E-01
         -2   -1    0    0    0  501 -0.00000000000E+00  0.00000000000E+00  0.51099145555E+03  0.51099145555E+03  0.00000000000E+00 0.  1.
          2   -1    0    0  501    0  0.00000000000E+00 -0.00000000000E+00 -0.94155146348E+03  0.94155146348E+03  0.00000000000E+00 0. -1.
         23    2    1    2    0    0  0.71222123418E+01  0.60503829498E+03 -0.56506151065E+03  0.83269397087E+03  0.89233816489E+02 0.  0.
         11    1    3    3    0    0  0.34763051578E+02  0.46611662763E+03 -0.40012026775E+03  0.61527994358E+03  0.00000000000E+00 0.  1.
        -11    1    3    3    0    0 -0.27640839236E+02  0.13892166735E+03 -0.16494124290E+03  0.21741402729E+03  0.00000000000E+00 0. -1.
         22    1    1    2    0    0 -0.71222123418E+01 -0.60503829498E+03  0.13450150271E+03  0.61984894816E+03  0.00000000000E+00 0.  1.
<mgrwt>
<rscale>  0 0.13872631E+04</rscale>
<asrwt>0</asrwt>
<pdfrwt beam="1">  1        2 0.14485407E+00 0.13872631E+04</pdfrwt>
<pdfrwt beam="2">  1       -2 0.78614071E-01 0.13872631E+04</pdfrwt>
<totfact> 0.38528714E+01</totfact>
</mgrwt>
</event>
<event>
 6    1  0.1817112E-005  0.2490490E+04  0.7818608E-02  0.8406381E-01
         -2   -1    0    0    0  501 -0.00000000000E+00  0.00000000000E+00  0.70083520025E+03  0.70083520025E+03  0.00000000000E+00 0.  1.
          2   -1    0    0  501    0  0.00000000000E+00 -0.00000000000E+00 -0.22125538277E+04  0.22125538277E+04  0.00000000000E+00 0. -1.
         23    2    1    2    0    0  0.20785288498E+03 -0.18352158844E+03 -0.21747667628E+04  0.21946986740E+04  0.10103861598E+03 0.  0.
         13    1    3    3    0    0  0.24863749001E+02 -0.80578716972E+02 -0.55145678448E+03  0.55786711751E+03  0.00000000000E+00 0. -1.
        -13    1    3    3    0    0  0.18298913598E+03 -0.10294287147E+03 -0.16233099783E+04  0.16368315565E+04  0.00000000000E+00 0.  1.
         22    1    1    2    0    0 -0.20785288498E+03  0.18352158844E+03  0.66304813529E+03  0.71869035400E+03  0.00000000000E+00 0.  1.
<mgrwt>
<rscale>  0 0.24904904E+04</rscale>
<asrwt>0</asrwt>
<pdfrwt beam="1">  1        2 0.34039289E+00 0.24904904E+04</pdfrwt>
<pdfrwt beam="2">  1       -2 0.10782080E+00 0.24904904E+04</pdfrwt>
<totfact> 0.31267501E+00</totfact>
</mgrwt>
</event>
<event>
 6    1  0.1817112E-005  0.5673845E+04  0.7818608E-02  0.7732211E-01
         -2   -1    0    0    0  501 -0.00000000000E+00  0.00000000000E+00  0.17613050302E+04  0.17613050302E+04  0.00000000000E+00 0. -1.
          2   -1    0    0  501    0  0.00000000000E+00 -0.00000000000E+00 -0.45694122032E+04  0.45694122032E+04  0.00000000000E+00 0.  1.
         23    2    1    2    0    0 -0.13456614137E+04 -0.97146048394E+03  0.11617314807E+04  0.20279089588E+04  0.90854828763E+02 0.  0.
         13    1    3    3    0    0 -0.96803898858E+03 -0.72571307691E+03  0.88745645156E+03  0.15004459027E+04  0.00000000000E+00 0. -1.
        -13    1    3    3    0    0 -0.37762242511E+03 -0.24574740703E+03  0.27427502909E+03  0.52746305614E+03  0.00000000000E+00 0.  1.
         22    1    1    2    0    0  0.13456614137E+04  0.97146048394E+03 -0.39698386536E+04  0.43028082746E+04  0.00000000000E+00 0.  1.
<mgrwt>
<rscale>  0 0.56738448E+04</rscale>
<asrwt>0</asrwt>
<pdfrwt beam="1">  1        2 0.70298650E+00 0.56738448E+04</pdfrwt>
<pdfrwt beam="2">  1       -2 0.27097000E+00 0.56738448E+04</pdfrwt>
<totfact> 0.34224859E-03</totfact>
</mgrwt>
</event>
<event>
 6    1  0.1817112E-005  0.4521743E+03  0.7818608E-02  0.1027076E+00
          2   -1    0    0  501    0  0.00000000000E+00  0.00000000000E+00  0.59875977270E+03  0.59875977270E+03  0.00000000000E+00 0. -1.
         -2   -1    0    0    0  501 -0.00000000000E+00 -0.00000000000E+00 -0.85368779761E+02  0.85368779761E+02  0.00000000000E+00 0.  1.
         23    2    1    2    0    0 -0.13748055169E+03  0.12207184065E+03  0.10156232888E+03  0.23312380203E+03  0.10114031862E+03 0.  0.
         13    1    3    3    0    0 -0.92988725952E+02  0.16709038559E+02  0.57236728215E+02  0.11046328884E+03  0.00000000000E+00 0. -1.
        -13    1    3    3    0    0 -0.44491825742E+02  0.10536280209E+03  0.44325600666E+02  0.12266051319E+03  0.00000000000E+00 0.  1.
         22    1    1    2    0    0  0.13748055169E+03 -0.12207184065E+03  0.41182866406E+03  0.45100475043E+03  0.00000000000E+00 0. -1.
<mgrwt>
<rscale>  0 0.45217426E+03</rscale>
<asrwt>0</asrwt>
<pdfrwt beam="1">  1        2 0.92116885E-01 0.45217426E+03</pdfrwt>
<pdfrwt beam="2">  1       -2 0.13133659E-01 0.45217426E+03</pdfrwt>
<totfact> 0.21691786E+03</totfact>
</mgrwt>
</event>
<event>
 6    1  0.1817112E-005  0.2096595E+04  0.7818608E-02  0.8562745E-01
         -2   -1    0    0    0  501 -0.00000000000E+00  0.00000000000E+00  0.56139618879E+03  0.56139618879E+03  0.00000000000E+00 0.  1.
          2   -1    0    0  501    0  0.00000000000E+00 -0.00000000000E+00 -0.19574901910E+04  0.19574901910E+04  0.00000000000E+00 0. -1.
         23    2    1    2    0    0  0.81367754153E+03 -0.52719045120E+03 -0.22690691299E+03  0.10000054223E+04  0.92321091991E+02 0.  0.
         13    1    3    3    0    0  0.42949546883E+03 -0.33128792598E+03 -0.13780422445E+03  0.55964993694E+03  0.00000000000E+00 0.  1.
        -13    1    3    3    0    0  0.38418207270E+03 -0.19590252523E+03 -0.89102688534E+02  0.44035548535E+03  0.00000000000E+00 0. -1.
         22    1    1    2    0    0 -0.81367754153E+03  0.52719045120E+03 -0.11691870892E+04  0.15188809575E+04  0.00000000000E+00 0. -1.
<mgrwt>
<rscale>  0 0.20965949E+04</rscale>
<asrwt>0</asrwt>
<pdfrwt beam="1">  1        2 0.30115233E+00 0.20965949E+04</pdfrwt>
<pdfrwt beam="2">  1       -2 0.86368647E-01 0.20965949E+04</pdfrwt>
<totfact> 0.75546776E+00</totfact>
</mgrwt>
</event>
<event>
 6    1  0.1817112E-005  0.1992194E+04  0.7818608E-02  0.8610279E-01
          2   -1    0    0  501    0  0.00000000000E+00  0.00000000000E+00  0.29483666084E+04  0.29483666084E+04  0.00000000000E+00 0. -1.
         -2   -1    0    0    0  501 -0.00000000000E+00 -0.00000000000E+00 -0.33652838855E+03  0.33652838855E+03  0.00000000000E+00 0.  1.
         23    2    1    2    0    0  0.13540637700E+02 -0.46221096699E+03 -0.14099912724E+03  0.49349108736E+03  0.99148235232E+02 0.  0.
         11    1    3    3    0    0  0.45040341305E+02 -0.37068627231E+03 -0.90092435606E+02  0.38412705161E+03  0.00000000000E+00 0. -1.
        -11    1    3    3    0    0 -0.31499703606E+02 -0.91524694682E+02 -0.50906691636E+02  0.10936403576E+03  0.00000000000E+00 0.  1.
         22    1    1    2    0    0 -0.13540637700E+02  0.46221096699E+03  0.27528373471E+04  0.27914039096E+04  0.00000000000E+00 0. -1.
<mgrwt>
<rscale>  0 0.19921938E+04</rscale>
<asrwt>0</asrwt>
<pdfrwt beam="1">  1        2 0.45359485E+00 0.19921938E+04</pdfrwt>
<pdfrwt beam="2">  1       -2 0.51773600E-01 0.19921938E+04</pdfrwt>
<totfact> 0.61558421E+00</totfact>
</mgrwt>
</event>
<event>
 6    1  0.1817112E-005  0.8883834E+03  0.7818608E-02  0.9440220E-01
          2   -1    0    0  501    0  0.00000000000E+00  0.00000000000E+00  0.60483264750E+03  0.60483264750E+03  0.00000000000E+00 0. -1.
         -2   -1    0    0    0  501 -0.00000000000E+00 -0.00000000000E+00 -0.32621630249E+03  0.32621630249E+03  0.00000000000E+00 0.  1.
         23    2    1    2    0    0 -0.31835184279E+03  0.23594971500E+03  0.33974686521E+03  0.53010368650E+03  0.92530115166E+02 0.  0.
         13    1    3    3    0    0 -0.80043319034E+02  0.25436689887E+02  0.10712778838E+03  0.13612612224E+03  0.00000000000E+00 0. -1.
        -13    1    3    3    0    0 -0.23830852375E+03  0.21051302511E+03  0.23261907683E+03  0.39397756426E+03  0.00000000000E+00 0.  1.
         22    1    1    2    0    0  0.31835184279E+03 -0.23594971500E+03 -0.61130520200E+02  0.40094526349E+03  0.00000000000E+00 0.  1.
<mgrwt>
<rscale>  0 0.88838341E+03</rscale>
<asrwt>0</asrwt>
<pdfrwt beam="1">  1        2 0.93051177E-01 0.88838341E+03</pdfrwt>
<pdfrwt beam="2">  1       -2 0.50187123E-01 0.88838341E+03</pdfrwt>
<totfact> 0.18516143E+02</totfact>
</mgrwt>
</event>
<event>
 6    1  0.1817112E-005  0.2628697E+04  0.7818608E-02  0.8358518E-01
         -2   -1    0    0    0  501 -0.00000000000E+00  0.00000000000E+00  0.41849254039E+03  0.41849254039E+03  0.00000000000E+00 0.  1.
          2   -1    0    0  501    0  0.00000000000E+00 -0.00000000000E+00 -0.41279384157E+04  0.41279384157E+04  0.00000000000E+00 0. -1.
         23    2    1    2    0    0 -0.11178050283E+04 -0.67980120718E+03 -0.16686353807E+04  0.21222764153E+04  0.89974366044E+02 0.  0.
         11    1    3    3    0    0 -0.10445774417E+04 -0.65927240361E+03 -0.15655526848E+04  0.19941758555E+04  0.00000000000E+00 0. -1.
        -11    1    3    3    0    0 -0.73227586650E+02 -0.20528803576E+02 -0.10308269583E+03  0.12810055973E+03  0.00000000000E+00 0.  1.
         22    1    1    2    0    0  0.11178050283E+04  0.67980120718E+03 -0.20408104947E+04  0.24241545408E+04  0.00000000000E+00 0. -1.
<mgrwt>
<rscale>  0 0.26286966E+04</rscale>
<asrwt>0</asrwt>
<pdfrwt beam="1">  1        2 0.63506747E+00 0.26286966E+04</pdfrwt>
<pdfrwt beam="2">  1       -2 0.64383465E-01 0.26286966E+04</pdfrwt>
<totfact> 0.52850378E-01</totfact>
</mgrwt>
</event>
<event>
 6    1  0.1817112E-005  0.3353609E+04  0.7818608E-02  0.8149387E-01
          2   -1    0    0  501    0  0.00000000000E+00  0.00000000000E+00  0.36709258528E+04  0.36709258528E+04  0.00000000000E+00 0. -1.
         -2   -1    0    0    0  501 -0.00000000000E+00 -0.00000000000E+00 -0.76593043007E+03  0.76593043007E+03  0.00000000000E+00 0.  1.
         23    2    1    2    0    0 -0.10483936650E+04 -0.12154810614E+04  0.20897085225E+04  0.26365184764E+04  0.88456089952E+02 0.  0.
         13    1    3    3    0    0 -0.34699235777E+03 -0.34437376528E+03  0.61122498590E+03  0.78268318620E+03  0.00000000000E+00 0. -1.
        -13    1    3    3    0    0 -0.70140130726E+03 -0.87110729617E+03  0.14784835366E+04  0.18538352902E+04  0.00000000000E+00 0.  1.
         22    1    1    2    0    0  0.10483936650E+04  0.12154810614E+04  0.81528690021E+03  0.18003378064E+04  0.00000000000E+00 0.  1.
<mgrwt>
<rscale>  0 0.33536093E+04</rscale>
<asrwt>0</asrwt>
<pdfrwt beam="1">  1        2 0.56475781E+00 0.33536093E+04</pdfrwt>
<pdfrwt beam="2">  1       -2 0.11783545E+00 0.33536093E+04</pdfrwt>
<totfact> 0.28276205E-01</totfact>
</mgrwt>
</event>
<event>
 6    1  0.1817112E-005  0.3499149E+04  0.7818608E-02  0.8113992E-01
          2   -1    0    0  501    0  0.00000000000E+00  0.00000000000E+00  0.27585187576E+04  0.27585187576E+04  0.00000000000E+00 0. -1.
         -2   -1    0    0    0  501 -0.00000000000E+00 -0.00000000000E+00 -0.11096575961E+04  0.11096575961E+04  0.00000000000E+00 0.  1.
         23    2    1    2    0    0  0.10082509492E+04 -0.12915331633E+04  0.15057115865E+03  0.16479284349E+04  0.91479856790E+02 0.  0.
         11    1    3    3    0    0  0.59385511733E+03 -0.70314197694E+03  0.11299657364E+03  0.92727599223E+03  0.00000000000E+00 0. -1.
        -11    1    3    3    0    0  0.41439583190E+03 -0.58839118634E+03  0.37574585005E+02  0.72065244265E+03  0.00000000000E+00 0.  1.
         22    1    1    2    0    0 -0.10082509492E+04  0.12915331633E+04  0.14982900028E+04  0.22202479188E+04  0.00000000000E+00 0. -1.
<mgrwt>
<rscale>  0 0.34991492E+04</rscale>
<asrwt>0</asrwt>
<pdfrwt beam="1">  1        2 0.42438750E+00 0.34991492E+04</pdfrwt>
<pdfrwt beam="2">  1       -2 0.17071655E+00 0.34991492E+04</pdfrwt>
<totfact> 0.42388327E-01</totfact>
</mgrwt>
</event>
<event>
 6    1  0.1817112E-005  0.2076889E+04  0.7818608E-02  0.8571493E-01
          1   -1    0    0  501    0  0.00000000000E+00  0.00000000000E+00  0.92550694208E+03  0.92550694208E+03  0.00000000000E+00 0. -1.
         -1   -1    0    0    0  501 -0.00000000000E+00 -0.00000000000E+00 -0.11651630764E+04  0.11651630764E+04  0.00000000000E+00 0.  1.
         23    2    1    2    0    0  0.48665842264E+03  0.86220559846E+03 -0.42950164947E+03  0.10825647492E+04  0.85087336940E+02 0.  0.
         11    1    3    3    0    0  0.25765487101E+03  0.51147234707E+03 -0.28298565385E+03  0.63880425379E+03  0.00000000000E+00 0. -1.
        -11    1    3    3    0    0  0.22900355163E+03  0.35073325138E+03 -0.14651599562E+03  0.44376049538E+03  0.00000000000E+00 0.  1.
         22    1    1    2    0    0 -0.48665842264E+03 -0.86220559846E+03  0.18984551518E+03  0.10081052693E+04  0.00000000000E+00 0. -1.
<mgrwt>
<rscale>  0 0.20768886E+04</rscale>
<asrwt>0</asrwt>
<pdfrwt beam="1">  1        1 0.14238568E+00 0.20768886E+04</pdfrwt>
<pdfrwt beam="2">  1       -1 0.17925586E+00 0.20768886E+04</pdfrwt>
<totfact> 0.33676507E+00</totfact>
</mgrwt>
</event>
<event>
 6    1  0.1817112E-005  0.2928135E+03  0.7818608E-02  0.1088889E+00
          4   -1    0    0  501    0  0.00000000000E+00  0.00000000000E+00  0.29710628954E+03  0.29710628954E+03  0.00000000000E+00 0. -1.
         -4   -1    0    0    0  501 -0.00000000000E+00 -0.00000000000E+00 -0.72145661503E+02  0.72145661503E+02  0.00000000000E+00 0.  1.
         23    2    1    2    0    0  0.25894283551E+01  0.73074650649E+02 -0.18155009802E+02  0.11537831502E+03  0.87383874306E+02 0.  0.
         11    1    3    3    0    0  0.41189779992E+02  0.20086447268E+02 -0.19511276203E+02  0.49807160516E+02  0.00000000000E+00 0. -1.
        -11    1    3    3    0    0 -0.38600351637E+02  0.52988203381E+02  0.13562664011E+01  0.65571154501E+02  0.00000000000E+00 0.  1.
         22    1    1    2    0    0 -0.25894283551E+01 -0.73074650649E+02  0.24311563784E+03  0.25387363603E+03  0.00000000000E+00 0. -1.
<mgrwt>
<rscale>  0 0.29281345E+03</rscale>
<asrwt>0</asrwt>
<pdfrwt beam="1">  1        4 0.45708659E-01 0.29281345E+03</pdfrwt>
<pdfrwt beam="2">  1       -4 0.11099333E-01 0.29281345E+03</pdfrwt>
<totfact> 0.55884288E+02</totfact>
</mgrwt>
</event>
<event>
 6    1  0.1817112E-005  0.1953231E+04  0.7818608E-02  0.8628804E-01
         -1   -1    0    0    0  501 -0.00000000000E+00  0.00000000000E+00  0.59756965399E+03  0.59756965399E+03  0.00000000000E+00 0.  1.
          1   -1    0    0  501    0  0.00000000000E+00 -0.00000000000E+00 -0.15960943479E+04  0.15960943479E+04  0.00000000000E+00 0. -1.
         23    2    1    2    0    0  0.61812785054E+03  0.12506740247E+03 -0.13345134341E+04  0.14790925721E+04  0.95209433819E+02 0.  0.
         13    1    3    3    0    0  0.26325212644E+03  0.33265976189E+02 -0.66141154194E+03  0.71265246443E+03  0.00000000000E+00 0.  1.
        -13    1    3    3    0    0  0.35487572410E+03  0.91801426284E+02 -0.67310189217E+03  0.76644010769E+03  0.00000000000E+00 0. -1.
         22    1    1    2    0    0 -0.61812785054E+03 -0.12506740247E+03  0.33598874017E+03  0.71457142981E+03  0.00000000000E+00 0.  1.
<mgrwt>
<rscale>  0 0.19532307E+04</rscale>
<asrwt>0</asrwt>
<pdfrwt beam="1">  1        1 0.24555298E+00 0.19532307E+04</pdfrwt>
<pdfrwt beam="2">  1       -1 0.91933792E-01 0.19532307E+04</pdfrwt>
<totfact> 0.60254760E+00</totfact>
</mgrwt>
</event>
<event>
 6    1  0.1817112E-005  0.1259802E+04  0.7818608E-02  0.9062064E-01
          2   -1    0    0  501    0  0.00000000000E+00  0.00000000000E+00  0.17826296573E+04  0.17826296573E+04  0.00000000000E+00 0. -1.
         -2   -1    0    0    0  501 -0.00000000000E+00 -0.00000000000E+00 -0.22257855595E+03  0.22257855595E+03  0.00000000000E+00 0.  1.
         23    2    1    2    0    0  0.10356268247E+03  0.27967419959E+03  0.16611590254E+04  0.16903023552E+04  0.93433704022E+02 0.  0.
         11    1    3    3    0    0  0.94570703434E+02  0.16832299433E+03  0.12219459826E+04  0.12371047784E+04  0.00000000000E+00 0. -1.
        -11    1    3    3    0    0  0.89919790365E+01  0.11135120527E+03  0.43921304280E+03  0.45319757674E+03  0.00000000000E+00 0.  1.
         22    1    1    2    0    0 -0.10356268247E+03 -0.27967419959E+03 -0.10110792410E+03  0.31490585805E+03  0.00000000000E+00 0.  1.
<mgrwt>
<rscale>  0 0.12598018E+04</rscale>
<asrwt>0</asrwt>
<pdfrwt beam="1">  1        2 0.27425071E+00 0.12598018E+04</pdfrwt>
<pdfrwt beam="2">  1       -2 0.34242856E-01 0.12598018E+04</pdfrwt>
<totfact> 0.69270588E+01</totfact>
</mgrwt>
</event>
<event>
 6    1  0.1817112E-005  0.3027640E+04  0.7818608E-02  0.8235882E-01
          2   -1    0    0  501    0  0.00000000000E+00  0.00000000000E+00  0.31982033029E+04  0.31982033029E+04  0.00000000000E+00 0. -1.
         -2   -1    0    0    0  501 -0.00000000000E+00 -0.00000000000E+00 -0.71654340854E+03  0.71654340854E+03  0.00000000000E+00 0.  1.
         23    2    1    2    0    0 -0.12544846027E+04  0.71105163925E+03  0.65202145773E+03  0.15851753215E+04  0.91229196347E+02 0.  0.
         11    1    3    3    0    0 -0.11677695711E+04  0.65829651241E+03  0.63054054910E+03  0.14814254802E+04  0.00000000000E+00 0. -1.
        -11    1    3    3    0    0 -0.86715031649E+02  0.52755126840E+02  0.21480908633E+02  0.10374984124E+03  0.00000000000E+00 0.  1.
         22    1    1    2    0    0  0.12544846027E+04 -0.71105163925E+03  0.18296384367E+04  0.23295713900E+04  0.00000000000E+00 0. -1.
<mgrwt>
<rscale>  0 0.30276403E+04</rscale>
<asrwt>0</asrwt>
<pdfrwt beam="1">  1        2 0.49203127E+00 0.30276403E+04</pdfrwt>
<pdfrwt beam="2">  1       -2 0.11023745E+00 0.30276403E+04</pdfrwt>
<totfact> 0.72528564E-01</totfact>
</mgrwt>
</event>
<event>
 6    1  0.1817112E-005  0.1074136E+04  0.7818608E-02  0.9230773E-01
          2   -1    0    0  501    0  0.00000000000E+00  0.00000000000E+00  0.27174150750E+04  0.27174150750E+04  0.00000000000E+00 0. -1.
         -2   -1    0    0    0  501 -0.00000000000E+00 -0.00000000000E+00 -0.10614582829E+03  0.10614582829E+03  0.00000000000E+00 0.  1.
         23    2    1    2    0    0  0.51152968670E+03 -0.15142730297E+03  0.13523275684E+04  0.14562544278E+04  0.85406427551E+02 0.  0.
         13    1    3    3    0    0  0.24556487243E+03 -0.97413888622E+02  0.76294674733E+03  0.80739043314E+03  0.00000000000E+00 0.  1.
        -13    1    3    3    0    0  0.26596481427E+03 -0.54013414351E+02  0.58938082104E+03  0.64886399466E+03  0.00000000000E+00 0. -1.
         22    1    1    2    0    0 -0.51152968670E+03  0.15142730297E+03  0.12589416784E+04  0.13673064755E+04  0.00000000000E+00 0. -1.
<mgrwt>
<rscale>  0 0.10741364E+04</rscale>
<asrwt>0</asrwt>
<pdfrwt beam="1">  1        2 0.41806381E+00 0.10741364E+04</pdfrwt>
<pdfrwt beam="2">  1       -2 0.16330129E-01 0.10741364E+04</pdfrwt>
<totfact> 0.79416226E+01</totfact>
</mgrwt>
</event>
<event>
 6    1  0.1817112E-005  0.1718446E+04  0.7818608E-02  0.8750913E-01
          2   -1    0    0  501    0  0.00000000000E+00  0.00000000000E+00  0.22628025155E+04  0.22628025155E+04  0.00000000000E+00 0. -1.
         -2   -1    0    0    0  501 -0.00000000000E+00 -0.00000000000E+00 -0.32626093170E+03  0.32626093170E+03  0.00000000000E+00 0.  1.
         23    2    1    2    0    0 -0.68951181125E+02 -0.19377652915E+03  0.22241413691E+04  0.22354856692E+04  0.91037018340E+02 0.  0.
         13    1    3    3    0    0 -0.69465260051E+02 -0.10842660708E+03  0.16522420347E+04  0.16572523926E+04  0.00000000000E+00 0.  1.
        -13    1    3    3    0    0  0.51407892624E+00 -0.85349922064E+02  0.57189933437E+03  0.57823327657E+03  0.00000000000E+00 0. -1.
         22    1    1    2    0    0  0.68951181125E+02  0.19377652915E+03 -0.28759978529E+03  0.35357777804E+03  0.00000000000E+00 0.  1.
<mgrwt>
<rscale>  0 0.17184459E+04</rscale>
<asrwt>0</asrwt>
<pdfrwt beam="1">  1        2 0.34812345E+00 0.17184459E+04</pdfrwt>
<pdfrwt beam="2">  1       -2 0.50193991E-01 0.17184459E+04</pdfrwt>
<totfact> 0.16988524E+01</totfact>
</mgrwt>
</event>
<event>
 6    1  0.1962693E-005  0.3120723E+04  0.7818608E-02  0.8210073E-01
         -2   -1    0    0    0  501 -0.00000000000E+00  0.00000000000E+00  0.22382956747E+04  0.22382956747E+04  0.00000000000E+00 0.  1.
          2   -1    0    0  501    0  0.00000000000E+00 -0.00000000000E+00 -0.10877601195E+04  0.10877601195E+04  0.00000000000E+00 0. -1.
         23    2    1    2    0    0 -0.22124506318E+03 -0.13196479258E+04 -0.27683696098E+03  0.13695762195E+04  0.93168083705E+02 0.  0.
         13    1    3    3    0    0 -0.18422673334E+03 -0.86557215012E+03 -0.16082486473E+03  0.89945498690E+03  0.00000000000E+00 0. -1.
        -13    1    3    3    0    0 -0.37018329841E+02 -0.45407577572E+03 -0.11601209625E+03  0.47012123257E+03  0.00000000000E+00 0.  1.
         22    1    1    2    0    0  0.22124506318E+03  0.13196479258E+04  0.14273725162E+04  0.19564795747E+04  0.00000000000E+00 0.  1.
<mgrwt>
<rscale>  0 0.31207235E+04</rscale>
<asrwt>0</asrwt>
<pdfrwt beam="1">  1        2 0.16734771E+00 0.31207235E+04</pdfrwt>
<pdfrwt beam="2">  1       -2 0.34435318E+00 0.31207235E+04</pdfrwt>
<totfact> 0.31718072E-01</totfact>
</mgrwt>
</event>
<event>
 6    1  0.1817112E-005  0.2447143E+04  0.7818608E-02  0.8422062E-01
          2   -1    0    0  501    0  0.00000000000E+00  0.00000000000E+00  0.16901545043E+04  0.16901545043E+04  0.00000000000E+00 0. -1.
         -2   -1    0    0    0  501 -0.00000000000E+00 -0.00000000000E+00 -0.88579328355E+03  0.88579328355E+03  0.00000000000E+00 0.  1.
         23    2    1    2    0    0  0.43642804309E+03 -0.59773582574E+03  0.14260732807E+04  0.16093644032E+04  0.92796692742E+02 0.  0.
         11    1    3    3    0    0  0.43097714659E+02 -0.57465633910E+02  0.87210093580E+02  0.11298368250E+03  0.00000000000E+00 0. -1.
        -11    1    3    3    0    0  0.39333032843E+03 -0.54027019183E+03  0.13388631871E+04  0.14963807207E+04  0.00000000000E+00 0.  1.
         22    1    1    2    0    0 -0.43642804309E+03  0.59773582574E+03 -0.62171205990E+03  0.96658338471E+03  0.00000000000E+00 0.  1.
<mgrwt>
<rscale>  0 0.24471432E+04</rscale>
<asrwt>0</asrwt>
<pdfrwt beam="1">  1        2 0.26002377E+00 0.24471432E+04</pdfrwt>
<pdfrwt beam="2">  1       -2 0.13627589E+00 0.24471432E+04</pdfrwt>
<totfact> 0.34266679E+00</totfact>
</mgrwt>
</event>
<event>
 6    1  0.1817112E-005  0.8319186E+03  0.7818608E-02  0.9514932E-01
         -2   -1    0    0    0  501 -0.00000000000E+00  0.00000000000E+00  0.15075721730E+03  0.15075721730E+03  0.00000000000E+00 0. -1.
          2   -1    0    0  501    0  0.00000000000E+00 -0.00000000000E+00 -0.11476872179E+04  0.11476872179E+04  0.00000000000E+00 0.  1.
         23    2    1    2    0    0 -0.15606078827E+03 -0.34585583348E+03 -0.25930162216E+03  0.46894648351E+03  0.93285829295E+02 0.  0.
         11    1    3    3    0    0 -0.16398403363E+03 -0.28063609717E+03 -0.21606614668E+03  0.39029727397E+03  0.00000000000E+00 0. -1.
        -11    1    3    3    0    0  0.79232453614E+01 -0.65219736311E+02 -0.43235475473E+02  0.78649209538E+02  0.00000000000E+00 0.  1.
         22    1    1    2    0    0  0.15606078827E+03  0.34585583348E+03 -0.73762837844E+03  0.82949795170E+03  0.00000000000E+00 0.  1.
<mgrwt>
<rscale>  0 0.83191858E+03</rscale>
<asrwt>0</asrwt>
<pdfrwt beam="1">  1        2 0.17656727E+00 0.83191858E+03</pdfrwt>
<pdfrwt beam="2">  1       -2 0.23193418E-01 0.83191858E+03</pdfrwt>
<totfact> 0.33566776E+02</totfact>
</mgrwt>
</event>
<event>
 6    1  0.1817112E-005  0.2771395E+04  0.7818608E-02  0.8312204E-01
          1   -1    0    0  501    0  0.00000000000E+00  0.00000000000E+00  0.18913223799E+04  0.18913223799E+04  0.00000000000E+00 0. -1.
         -1   -1    0    0    0  501 -0.00000000000E+00 -0.00000000000E+00 -0.10152461362E+04  0.10152461362E+04  0.00000000000E+00 0.  1.
         23    2    1    2    0    0  0.10939391360E+04 -0.82064970709E+03  0.66280710801E+03  0.15224975283E+04  0.92285894908E+02 0.  0.
         11    1    3    3    0    0  0.45868635631E+03 -0.39159709676E+03  0.26348019711E+03  0.65815140653E+03  0.00000000000E+00 0.  1.
        -11    1    3    3    0    0  0.63525277969E+03 -0.42905261033E+03  0.39932691090E+03  0.86434612182E+03  0.00000000000E+00 0. -1.
         22    1    1    2    0    0 -0.10939391360E+04  0.82064970709E+03  0.21326913573E+03  0.13840709878E+04  0.00000000000E+00 0. -1.
<mgrwt>
<rscale>  0 0.27713951E+04</rscale>
<asrwt>0</asrwt>
<pdfrwt beam="1">  1        1 0.29097267E+00 0.27713951E+04</pdfrwt>
<pdfrwt beam="2">  1       -1 0.15619171E+00 0.27713951E+04</pdfrwt>
<totfact> 0.95764336E-01</totfact>
</mgrwt>
</event>
<event>
 6    1  0.1817112E-005  0.2690091E+04  0.7818608E-02  0.8338227E-01
         -2   -1    0    0    0  501 -0.00000000000E+00  0.00000000000E+00  0.22654128330E+04  0.22654128330E+04  0.00000000000E+00 0.  1.
          2   -1    0    0  501    0  0.00000000000E+00 -0.00000000000E+00 -0.79859477151E+03  0.79859477151E+03  0.00000000000E+00 0. -1.
         23    2    1    2    0    0 -0.66237973224E+03 -0.21117740158E+03 -0.57529554880E+03  0.90679393824E+03  0.89260704284E+02 0.  0.
         13    1    3    3    0    0 -0.33695981761E+03 -0.10699564830E+03 -0.35019808733E+03  0.49762303786E+03  0.00000000000E+00 0. -1.
        -13    1    3    3    0    0 -0.32541991463E+03 -0.10418175329E+03 -0.22509746148E+03  0.40917090038E+03  0.00000000000E+00 0.  1.
         22    1    1    2    0    0  0.66237973224E+03  0.21117740158E+03  0.20421136103E+04  0.21572136663E+04  0.00000000000E+00 0.  1.
<mgrwt>
<rscale>  0 0.26900906E+04</rscale>
<asrwt>0</asrwt>
<pdfrwt beam="1">  1        2 0.12286073E+00 0.26900906E+04</pdfrwt>
<pdfrwt beam="2">  1       -2 0.34852505E+00 0.26900906E+04</pdfrwt>
<totfact> 0.48190198E-01</totfact>
</mgrwt>
</event>
<event>
 6    1  0.1817112E-005  0.1614104E+04  0.7818608E-02  0.8811930E-01
          2   -1    0    0  501    0  0.00000000000E+00  0.00000000000E+00  0.12139175018E+04  0.12139175018E+04  0.00000000000E+00 0. -1.
         -2   -1    0    0    0  501 -0.00000000000E+00 -0.00000000000E+00 -0.53655433160E+03  0.53655433160E+03  0.00000000000E+00 0.  1.
         23    2    1    2    0    0 -0.37035875339E+03  0.13886014277E+03 -0.41987702187E+03  0.58411691978E+03  0.91913638921E+02 0.  0.
         11    1    3    3    0    0 -0.16316492114E+03  0.85573220029E+02 -0.25203991042E+03  0.31220135156E+03  0.00000000000E+00 0. -1.
        -11    1    3    3    0    0 -0.20719383225E+03  0.53286922740E+02 -0.16783711145E+03  0.27191556822E+03  0.00000000000E+00 0.  1.
         22    1    1    2    0    0  0.37035875339E+03 -0.13886014277E+03  0.10972401921E+04  0.11663549136E+04  0.00000000000E+00 0. -1.
<mgrwt>
<rscale>  0 0.16141037E+04</rscale>
<asrwt>0</asrwt>
<pdfrwt beam="1">  1        2 0.18675654E+00 0.16141037E+04</pdfrwt>
<pdfrwt beam="2">  1       -2 0.82546821E-01 0.16141037E+04</pdfrwt>
<totfact> 0.22925472E+01</totfact>
</mgrwt>
</event>
<event>
 6    1  0.1817112E-005  0.9012805E+03  0.7818608E-02  0.9423982E-01
         -2   -1    0    0    0  501 -0.00000000000E+00  0.00000000000E+00  0.15952462390E+03  0.15952462390E+03  0.00000000000E+00 0.  1.
          2   -1    0    0  501    0  0.00000000000E+00 -0.00000000000E+00 -0.12730112354E+04  0.12730112354E+04  0.00000000000E+00 0. -1.
         23    2    1    2    0    0  0.25376478591E+03  0.35769479863E+03 -0.69146944791E+03  0.82389752507E+03  0.91296215068E+02 0.  0.
         11    1    3    3    0    0  0.12413579391E+03  0.23929539292E+03 -0.46304053137E+03  0.53579708294E+03  0.00000000000E+00 0.  1.
        -11    1    3    3    0    0  0.12962899200E+03  0.11839940571E+03 -0.22842891654E+03  0.28810044213E+03  0.00000000000E+00 0. -1.
         22    1    1    2    0    0 -0.25376478591E+03 -0.35769479863E+03 -0.42201716358E+03  0.60863833423E+03  0.00000000000E+00 0.  1.
<mgrwt>
<rscale>  0 0.90128051E+03</rscale>
<asrwt>0</asrwt>
<pdfrwt beam="1">  1        2 0.19584787E+00 0.90128051E+03</pdfrwt>
<pdfrwt beam="2">  1       -2 0.24542251E-01 0.90128051E+03</pdfrwt>
<totfact> 0.25464199E+02</totfact>
</mgrwt>
</event>
<event>
 6    1  0.1817112E-005  0.3326740E+04  0.7818608E-02  0.8156125E-01
         -2   -1    0    0    0  501 -0.00000000000E+00  0.00000000000E+00  0.23201400544E+04  0.23201400544E+04  0.00000000000E+00 0.  1.
          2   -1    0    0  501    0  0.00000000000E+00 -0.00000000000E+00 -0.11925138245E+04  0.11925138245E+04  0.00000000000E+00 0. -1.
         23    2    1    2    0    0 -0.24392165210E+03  0.16204010686E+04  0.85812761113E+03  0.18519832611E+04  0.90893381956E+02 0.  0.
         11    1    3    3    0    0 -0.80406815659E+02  0.76724822680E+03  0.37067880998E+03  0.85588426653E+03  0.00000000000E+00 0. -1.
        -11    1    3    3    0    0 -0.16351483644E+03  0.85315284176E+03  0.48744880115E+03  0.99609899452E+03  0.00000000000E+00 0.  1.
         22    1    1    2    0    0  0.24392165210E+03 -0.16204010686E+04  0.26949861883E+03  0.16606706178E+04  0.00000000000E+00 0. -1.
<mgrwt>
<rscale>  0 0.33267396E+04</rscale>
<asrwt>0</asrwt>
<pdfrwt beam="1">  1        2 0.18346367E+00 0.33267396E+04</pdfrwt>
<pdfrwt beam="2">  1       -2 0.35694462E+00 0.33267396E+04</pdfrwt>
<totfact> 0.22416517E-01</totfact>
</mgrwt>
</event>
<event>
 6    1  0.1817112E-005  0.3434965E+04  0.7818608E-02  0.8129378E-01
          2   -1    0    0  501    0  0.00000000000E+00  0.00000000000E+00  0.23297315509E+04  0.23297315509E+04  0.00000000000E+00 0. -1.
         -2   -1    0    0    0  501 -0.00000000000E+00 -0.00000000000E+00 -0.12661315062E+04  0.12661315062E+04  0.00000000000E+00 0.  1.
         23    2    1    2    0    0  0.70797631605E+03 -0.27588495745E+03  0.21431498262E+04  0.22757226461E+04  0.92083716174E+02 0.  0.
         13    1    3    3    0    0  0.45096320129E+03 -0.22253039305E+03  0.14155852120E+04  0.15022546646E+04  0.00000000000E+00 0. -1.
        -13    1    3    3    0    0  0.25701311476E+03 -0.53354564401E+02  0.72756461417E+03  0.77346798155E+03  0.00000000000E+00 0.  1.
         22    1    1    2    0    0 -0.70797631605E+03  0.27588495745E+03 -0.10795497815E+04  0.13201404110E+04  0.00000000000E+00 0.  1.
<mgrwt>
<rscale>  0 0.34349652E+04</rscale>
<asrwt>0</asrwt>
<pdfrwt beam="1">  1        2 0.35842024E+00 0.34349652E+04</pdfrwt>
<pdfrwt beam="2">  1       -2 0.19478946E+00 0.34349652E+04</pdfrwt>
<totfact> 0.51863053E-01</totfact>
</mgrwt>
</event>
<event>
 6    1  0.1817112E-005  0.4136693E+04  0.7818608E-02  0.7977525E-01
          2   -1    0    0  501    0  0.00000000000E+00  0.00000000000E+00  0.28304434449E+04  0.28304434449E+04  0.00000000000E+00 0. -1.
         -2   -1    0    0    0  501 -0.00000000000E+00 -0.00000000000E+00 -0.15114443085E+04  0.15114443085E+04  0.00000000000E+00 0.  1.
         23    2    1    2    0    0  0.15890071395E+04  0.13208695224E+04  0.58981400476E+03  0.21506892364E+04  0.89127137105E+02 0.  0.
         11    1    3    3    0    0  0.63967740345E+03  0.48033744507E+03  0.20952855229E+03  0.82693013964E+03  0.00000000000E+00 0. -1.
        -11    1    3    3    0    0  0.94932973607E+03  0.84053207738E+03  0.38028545247E+03  0.13237590968E+04  0.00000000000E+00 0.  1.
         22    1    1    2    0    0 -0.15890071395E+04 -0.13208695224E+04  0.72918513155E+03  0.21911985170E+04  0.00000000000E+00 0.  1.
<mgrwt>
<rscale>  0 0.41366932E+04</rscale>
<asrwt>0</asrwt>
<pdfrwt beam="1">  1        2 0.43545284E+00 0.41366932E+04</pdfrwt>
<pdfrwt beam="2">  1       -2 0.23252989E+00 0.41366932E+04</pdfrwt>
<totfact> 0.14250034E-01</totfact>
</mgrwt>
</event>
<event>
 6    1  0.1817112E-005  0.2855768E+04  0.7818608E-02  0.8286161E-01
         -2   -1    0    0    0  501 -0.00000000000E+00  0.00000000000E+00  0.12005762818E+04  0.12005762818E+04  0.00000000000E+00 0. -1.
          2   -1    0    0  501    0  0.00000000000E+00 -0.00000000000E+00 -0.16982288134E+04  0.16982288134E+04  0.00000000000E+00 0.  1.
         23    2    1    2    0    0 -0.21526590567E+03  0.81017287607E+03  0.92248658641E+03  0.12497100058E+04  0.89855979956E+02 0.  0.
         11    1    3    3    0    0 -0.11845799143E+03  0.55844688481E+03  0.58048266271E+03  0.81415928453E+03  0.00000000000E+00 0. -1.
        -11    1    3    3    0    0 -0.96807914246E+02  0.25172599126E+03  0.34200392370E+03  0.43555072123E+03  0.00000000000E+00 0.  1.
         22    1    1    2    0    0  0.21526590567E+03 -0.81017287607E+03 -0.14201391181E+04  0.16490950894E+04  0.00000000000E+00 0.  1.
<mgrwt>
<rscale>  0 0.28557684E+04</rscale>
<asrwt>0</asrwt>
<pdfrwt beam="1">  1        2 0.26126597E+00 0.28557684E+04</pdfrwt>
<pdfrwt beam="2">  1       -2 0.18470404E+00 0.28557684E+04</pdfrwt>
<totfact> 0.14333797E+00</totfact>
</mgrwt>
</event>
<event>
 6    1  0.1817112E-005  0.5011559E+04  0.7818608E-02  0.7826727E-01
          2   -1    0    0  501    0  0.00000000000E+00  0.00000000000E+00  0.29567522142E+04  0.29567522142E+04  0.00000000000E+00 0. -1.
         -2   -1    0    0    0  501 -0.00000000000E+00 -0.00000000000E+00 -0.21235902076E+04  0.21235902076E+04  0.00000000000E+00 0.  1.
         23    2    1    2    0    0 -0.13391360715E+04 -0.17342519629E+04  0.16474167421E+04  0.27428381837E+04  0.90907047462E+02 0.  0.
         11    1    3    3    0    0 -0.30568577124E+03 -0.38129962918E+03  0.41418181221E+03  0.64060890684E+03  0.00000000000E+00 0. -1.
        -11    1    3    3    0    0 -0.10334503002E+04 -0.13529523337E+04  0.12332349299E+04  0.21022292769E+04  0.00000000000E+00 0.  1.
         22    1    1    2    0    0  0.13391360715E+04  0.17342519629E+04 -0.81425473556E+03  0.23375042381E+04  0.00000000000E+00 0.  1.
<mgrwt>
<rscale>  0 0.50115587E+04</rscale>
<asrwt>0</asrwt>
<pdfrwt beam="1">  1        2 0.45488496E+00 0.50115587E+04</pdfrwt>
<pdfrwt beam="2">  1       -2 0.32670619E+00 0.50115587E+04</pdfrwt>
<totfact> 0.29315374E-02</totfact>
</mgrwt>
</event>
<event>
 6    1  0.1817112E-005  0.2536655E+04  0.7818608E-02  0.8390042E-01
          2   -1    0    0  501    0  0.00000000000E+00  0.00000000000E+00  0.23539721924E+04  0.23539721924E+04  0.00000000000E+00 0. -1.
         -2   -1    0    0    0  501 -0.00000000000E+00 -0.00000000000E+00 -0.68337904105E+03  0.68337904105E+03  0.00000000000E+00 0.  1.
         23    2    1    2    0    0 -0.97656578168E+03  0.10546897318E+03 -0.12130540781E+03  0.99389708017E+03  0.91170026639E+02 0.  0.
         11    1    3    3    0    0 -0.20694642244E+03  0.58400938779E+02 -0.37875311132E+02  0.21833925576E+03  0.00000000000E+00 0. -1.
        -11    1    3    3    0    0 -0.76961935924E+03  0.47068034401E+02 -0.83430096680E+02  0.77555782441E+03  0.00000000000E+00 0.  1.
         22    1    1    2    0    0  0.97656578168E+03 -0.10546897318E+03  0.17918985592E+04  0.20434541533E+04  0.00000000000E+00 0. -1.
<mgrwt>
<rscale>  0 0.25366555E+04</rscale>
<asrwt>0</asrwt>
<pdfrwt beam="1">  1        2 0.36214957E+00 0.25366555E+04</pdfrwt>
<pdfrwt beam="2">  1       -2 0.10513524E+00 0.25366555E+04</pdfrwt>
<totfact> 0.27519236E+00</totfact>
</mgrwt>
</event>
<event>
 6    1  0.1817112E-005  0.2031940E+04  0.7818608E-02  0.8591832E-01
          1   -1    0    0  501    0  0.00000000000E+00  0.00000000000E+00  0.23235196353E+04  0.23235196353E+04  0.00000000000E+00 0. -1.
         -1   -1    0    0    0  501 -0.00000000000E+00 -0.00000000000E+00 -0.44423760946E+03  0.44423760946E+03  0.00000000000E+00 0.  1.
         23    2    1    2    0    0 -0.76658644002E+02 -0.95504847743E+03  0.13960237981E+04  0.16946623484E+04  0.70738166530E+02 0.  0.
         11    1    3    3    0    0 -0.23550272434E+02 -0.63614623936E+03  0.89170743006E+03  0.10956179964E+04  0.00000000000E+00 0. -1.
        -11    1    3    3    0    0 -0.53108371568E+02 -0.31890223807E+03  0.50431636809E+03  0.59904435203E+03  0.00000000000E+00 0.  1.
         22    1    1    2    0    0  0.76658644002E+02  0.95504847743E+03  0.48325822770E+03  0.10730948964E+04  0.00000000000E+00 0.  1.
<mgrwt>
<rscale>  0 0.20319398E+04</rscale>
<asrwt>0</asrwt>
<pdfrwt beam="1">  1        1 0.35746455E+00 0.20319398E+04</pdfrwt>
<pdfrwt beam="2">  1       -1 0.68344249E-01 0.20319398E+04</pdfrwt>
<totfact> 0.35956436E+00</totfact>
</mgrwt>
</event>
<event>
 6    1  0.1817112E-005  0.1312580E+04  0.7818608E-02  0.9019648E-01
         -2   -1    0    0    0  501 -0.00000000000E+00  0.00000000000E+00  0.16289140517E+03  0.16289140517E+03  0.00000000000E+00 0.  1.
          2   -1    0    0  501    0  0.00000000000E+00 -0.00000000000E+00 -0.26441953138E+04  0.26441953138E+04  0.00000000000E+00 0. -1.
         23    2    1    2    0    0 -0.16702838481E+03  0.48549680045E+03 -0.38498909324E+03  0.64881393043E+03  0.95589172075E+02 0.  0.
         13    1    3    3    0    0 -0.96587539515E+02  0.27134016292E+03 -0.15634384176E+03  0.32771639211E+03  0.00000000000E+00 0. -1.
        -13    1    3    3    0    0 -0.70440845299E+02  0.21415663753E+03 -0.22864525148E+03  0.32109753831E+03  0.00000000000E+00 0.  1.
         22    1    1    2    0    0  0.16702838481E+03 -0.48549680045E+03 -0.20963148154E+04  0.21582727886E+04  0.00000000000E+00 0. -1.
<mgrwt>
<rscale>  0 0.13125802E+04</rscale>
<asrwt>0</asrwt>
<pdfrwt beam="1">  1        2 0.40679929E+00 0.13125802E+04</pdfrwt>
<pdfrwt beam="2">  1       -2 0.25060215E-01 0.13125802E+04</pdfrwt>
<totfact> 0.40340958E+01</totfact>
</mgrwt>
</event>
<event>
 6    1  0.1817112E-005  0.5109806E+04  0.7818608E-02  0.7811788E-01
          2   -1    0    0  501    0  0.00000000000E+00  0.00000000000E+00  0.16950937766E+04  0.16950937766E+04  0.00000000000E+00 0. -1.
         -2   -1    0    0    0  501 -0.00000000000E+00 -0.00000000000E+00 -0.38508374461E+04  0.38508374461E+04  0.00000000000E+00 0.  1.
         23    2    1    2    0    0 -0.13069111730E+04 -0.12585790318E+04 -0.30292549020E+04  0.35322133013E+04  0.90041944276E+02 0.  0.
         13    1    3    3    0    0 -0.78456025046E+03 -0.79327602385E+03 -0.19281963936E+04  0.22277259636E+04  0.00000000000E+00 0.  1.
        -13    1    3    3    0    0 -0.52235092256E+03 -0.46530300796E+03 -0.11010585083E+04  0.13044873377E+04  0.00000000000E+00 0. -1.
         22    1    1    2    0    0  0.13069111730E+04  0.12585790318E+04  0.87351123242E+03  0.20137179213E+04  0.00000000000E+00 0. -1.
<mgrwt>
<rscale>  0 0.51098065E+04</rscale>
<asrwt>0</asrwt>
<pdfrwt beam="1">  1        2 0.26078366E+00 0.51098065E+04</pdfrwt>
<pdfrwt beam="2">  1       -2 0.59243652E+00 0.51098065E+04</pdfrwt>
<totfact> 0.39234084E-03</totfact>
</mgrwt>
</event>
<event>
 6    1  0.1817112E-005  0.3266121E+04  0.7818608E-02  0.8171570E-01
         -2   -1    0    0    0  501 -0.00000000000E+00  0.00000000000E+00  0.12878399112E+04  0.12878399112E+04  0.00000000000E+00 0.  1.
          2   -1    0    0  501    0  0.00000000000E+00 -0.00000000000E+00 -0.20708217323E+04  0.20708217323E+04  0.00000000000E+00 0. -1.
         23    2    1    2    0    0 -0.70226025685E+03  0.14414591943E+04 -0.70340718693E+03  0.17532625655E+04  0.90409488751E+02 0.  0.
         13    1    3    3    0    0 -0.29779467333E+03  0.51228959379E+03 -0.26489844158E+03  0.64907124395E+03  0.00000000000E+00 0.  1.
        -13    1    3    3    0    0 -0.40446558352E+03  0.92916960055E+03 -0.43850874534E+03  0.11041913216E+04  0.00000000000E+00 0. -1.
         22    1    1    2    0    0  0.70226025685E+03 -0.14414591943E+04 -0.79574634235E+02  0.16053990780E+04  0.00000000000E+00 0.  1.
<mgrwt>
<rscale>  0 0.32661212E+04</rscale>
<asrwt>0</asrwt>
<pdfrwt beam="1">  1        2 0.31858795E+00 0.32661212E+04</pdfrwt>
<pdfrwt beam="2">  1       -2 0.19812922E+00 0.32661212E+04</pdfrwt>
<totfact> 0.69914319E-01</totfact>
</mgrwt>
</event>
<event>
 6    1  0.1817112E-005  0.1577946E+04  0.7818608E-02  0.8834212E-01
          2   -1    0    0  501    0  0.00000000000E+00  0.00000000000E+00  0.75945503548E+03  0.75945503548E+03  0.00000000000E+00 0. -1.
         -2   -1    0    0    0  501 -0.00000000000E+00 -0.00000000000E+00 -0.81963867518E+03  0.81963867518E+03  0.00000000000E+00 0.  1.
         23    2    1    2    0    0  0.51511542661E+03 -0.49518586633E+03  0.29848436024E+03  0.77959656925E+03  0.90138518590E+02 0.  0.
         11    1    3    3    0    0  0.31484667296E+02 -0.64354509453E+02  0.18645413654E+02  0.74029984547E+02  0.00000000000E+00 0. -1.
        -11    1    3    3    0    0  0.48363075931E+03 -0.43083135688E+03  0.27983894659E+03  0.70556658470E+03  0.00000000000E+00 0.  1.
         22    1    1    2    0    0 -0.51511542661E+03  0.49518586633E+03 -0.35866799994E+03  0.79949714141E+03  0.00000000000E+00 0. -1.
<mgrwt>
<rscale>  0 0.15779464E+04</rscale>
<asrwt>0</asrwt>
<pdfrwt beam="1">  1        2 0.11683924E+00 0.15779464E+04</pdfrwt>
<pdfrwt beam="2">  1       -2 0.12609826E+00 0.15779464E+04</pdfrwt>
<totfact> 0.16618932E+01</totfact>
</mgrwt>
</event>
<event>
 6    1  0.1817112E-005  0.2835913E+04  0.7818608E-02  0.8292205E-01
          2   -1    0    0  501    0  0.00000000000E+00  0.00000000000E+00  0.29598173335E+04  0.29598173335E+04  0.00000000000E+00 0.  1.
         -2   -1    0    0    0  501 -0.00000000000E+00 -0.00000000000E+00 -0.67929887758E+03  0.67929887758E+03  0.00000000000E+00 0. -1.
         23    2    1    2    0    0 -0.86514776741E+03  0.56885742487E+03  0.23818813625E+04  0.25987538376E+04  0.89906920040E+02 0.  0.
         13    1    3    3    0    0 -0.32815392828E+03  0.24091977332E+03  0.10335703643E+04  0.11108532918E+04  0.00000000000E+00 0.  1.
        -13    1    3    3    0    0 -0.53699383913E+03  0.32793765155E+03  0.13483109982E+04  0.14879005459E+04  0.00000000000E+00 0. -1.
         22    1    1    2    0    0  0.86514776741E+03 -0.56885742487E+03 -0.10136290656E+03  0.10403623735E+04  0.00000000000E+00 0. -1.
<mgrwt>
<rscale>  0 0.28359130E+04</rscale>
<asrwt>0</asrwt>
<pdfrwt beam="1">  1        2 0.45535651E+00 0.28359130E+04</pdfrwt>
<pdfrwt beam="2">  1       -2 0.10450752E+00 0.28359130E+04</pdfrwt>
<totfact> 0.11893686E+00</totfact>
</mgrwt>
</event>
<event>
 6    1  0.1817112E-005  0.2650577E+04  0.7818608E-02  0.8351221E-01
          2   -1    0    0  501    0  0.00000000000E+00  0.00000000000E+00  0.86416307415E+03  0.86416307415E+03  0.00000000000E+00 0.  1.
         -2   -1    0    0    0  501 -0.00000000000E+00 -0.00000000000E+00 -0.20324747089E+04  0.20324747089E+04  0.00000000000E+00 0. -1.
         23    2    1    2    0    0 -0.31272022665E+03 -0.14219455006E+03  0.81221772756E+03  0.88653584902E+03  0.90746594503E+02 0.  0.
         11    1    3    3    0    0 -0.21343261138E+03 -0.11651959260E+03  0.46852920353E+03  0.52787300520E+03  0.00000000000E+00 0. -1.
        -11    1    3    3    0    0 -0.99287615270E+02 -0.25674957459E+02  0.34368852404E+03  0.35866284382E+03  0.00000000000E+00 0.  1.
         22    1    1    2    0    0  0.31272022665E+03  0.14219455006E+03 -0.19805293623E+04  0.20101019340E+04  0.00000000000E+00 0. -1.
<mgrwt>
<rscale>  0 0.26505770E+04</rscale>
<asrwt>0</asrwt>
<pdfrwt beam="1">  1        2 0.13294817E+00 0.26505770E+04</pdfrwt>
<pdfrwt beam="2">  1       -2 0.31268841E+00 0.26505770E+04</pdfrwt>
<totfact> 0.72608295E-01</totfact>
</mgrwt>
</event>
<event>
 6    1  0.1907861E-005  0.4727888E+04  0.7818608E-02  0.7871911E-01
         -2   -1    0    0    0  501 -0.00000000000E+00  0.00000000000E+00  0.18756104452E+04  0.18756104452E+04  0.00000000000E+00 0.  1.
          2   -1    0    0  501    0  0.00000000000E+00 -0.00000000000E+00 -0.29794201852E+04  0.29794201852E+04  0.00000000000E+00 0. -1.
         23    2    1    2    0    0 -0.91738693851E+03 -0.21739311245E+04 -0.41934408950E+03  0.23981894561E+04  0.88813697605E+02 0.  0.
         13    1    3    3    0    0 -0.70844808821E+03 -0.17004364559E+04 -0.36355793908E+03  0.18776467211E+04  0.00000000000E+00 0. -1.
        -13    1    3    3    0    0 -0.20893885029E+03 -0.47349466861E+03 -0.55786150420E+02  0.52054273498E+03  0.00000000000E+00 0.  1.
         22    1    1    2    0    0  0.91738693851E+03  0.21739311245E+04 -0.68446565047E+03  0.24568411743E+04  0.00000000000E+00 0.  1.
<mgrwt>
<rscale>  0 0.47278882E+04</rscale>
<asrwt>0</asrwt>
<pdfrwt beam="1">  1        2 0.45837233E+00 0.47278882E+04</pdfrwt>
<pdfrwt beam="2">  1       -2 0.28855546E+00 0.47278882E+04</pdfrwt>
<totfact> 0.49799166E-02</totfact>
</mgrwt>
</event>
<event>
 6    1  0.1817112E-005  0.1899228E+04  0.7818608E-02  0.8655241E-01
         -1   -1    0    0    0  501 -0.00000000000E+00  0.00000000000E+00  0.55423592444E+03  0.55423592444E+03  0.00000000000E+00 0.  1.
          1   -1    0    0  501    0  0.00000000000E+00 -0.00000000000E+00 -0.16270443734E+04  0.16270443734E+04  0.00000000000E+00 0. -1.
         23    2    1    2    0    0 -0.79366767518E+03  0.16651334518E+03 -0.11003833969E+04  0.13698645902E+04  0.89723479400E+02 0.  0.
         11    1    3    3    0    0 -0.95901164991E+02  0.10912405569E+02 -0.18218062592E+03  0.20616957705E+03  0.00000000000E+00 0. -1.
        -11    1    3    3    0    0 -0.69776651019E+03  0.15560093961E+03 -0.91820277093E+03  0.11636950132E+04  0.00000000000E+00 0.  1.
         22    1    1    2    0    0  0.79366767518E+03 -0.16651334518E+03  0.27574947924E+02  0.81141570758E+03  0.00000000000E+00 0.  1.
<mgrwt>
<rscale>  0 0.18992277E+04</rscale>
<asrwt>0</asrwt>
<pdfrwt beam="1">  1        1 0.25031452E+00 0.18992277E+04</pdfrwt>
<pdfrwt beam="2">  1       -1 0.85267065E-01 0.18992277E+04</pdfrwt>
<totfact> 0.68020156E+00</totfact>
</mgrwt>
</event>
<event>
 6    1  0.1817112E-005  0.2482109E+04  0.7818608E-02  0.8409387E-01
          2   -1    0    0  501    0  0.00000000000E+00  0.00000000000E+00  0.58209098775E+03  0.58209098775E+03  0.00000000000E+00 0. -1.
         -2   -1    0    0    0  501 -0.00000000000E+00 -0.00000000000E+00 -0.26460059895E+04  0.26460059895E+04  0.00000000000E+00 0.  1.
         23    2    1    2    0    0 -0.92889495509E+03  0.53033496502E+03 -0.21911770848E+03  0.10956387559E+04  0.91163043489E+02 0.  0.
         11    1    3    3    0    0 -0.41802203958E+03  0.18683681020E+03 -0.90774932951E+02  0.46678743308E+03  0.00000000000E+00 0.  1.
        -11    1    3    3    0    0 -0.51087291550E+03  0.34349815481E+03 -0.12834277553E+03  0.62885132280E+03  0.00000000000E+00 0. -1.
         22    1    1    2    0    0  0.92889495509E+03 -0.53033496502E+03 -0.18447972933E+04  0.21324582214E+04  0.00000000000E+00 0.  1.
<mgrwt>
<rscale>  0 0.24821090E+04</rscale>
<asrwt>0</asrwt>
<pdfrwt beam="1">  1        2 0.89552459E-01 0.24821090E+04</pdfrwt>
<pdfrwt beam="2">  1       -2 0.40707785E+00 0.24821090E+04</pdfrwt>
<totfact> 0.30659345E-01</totfact>
</mgrwt>
</event>
<event>
 6    1  0.1817112E-005  0.2371901E+04  0.7818608E-02  0.8450099E-01
         -2   -1    0    0    0  501 -0.00000000000E+00  0.00000000000E+00  0.16965993682E+04  0.16965993682E+04  0.00000000000E+00 0.  1.
          2   -1    0    0  501    0  0.00000000000E+00 -0.00000000000E+00 -0.82899833874E+03  0.82899833874E+03  0.00000000000E+00 0. -1.
         23    2    1    2    0    0  0.11436384137E+04 -0.30429216467E+03  0.48093437666E+03  0.12806022679E+04  0.90231652092E+02 0.  0.
         13    1    3    3    0    0  0.69661890530E+03 -0.15622097293E+03  0.32632683771E+03  0.78496630285E+03  0.00000000000E+00 0. -1.
        -13    1    3    3    0    0  0.44701950842E+03 -0.14807119174E+03  0.15460753895E+03  0.49563596503E+03  0.00000000000E+00 0.  1.
         22    1    1    2    0    0 -0.11436384137E+04  0.30429216467E+03  0.38666665275E+03  0.12449954390E+04  0.00000000000E+00 0.  1.
<mgrwt>
<rscale>  0 0.23719006E+04</rscale>
<asrwt>0</asrwt>
<pdfrwt beam="1">  1        2 0.12753821E+00 0.23719006E+04</pdfrwt>
<pdfrwt beam="2">  1       -2 0.26101529E+00 0.23719006E+04</pdfrwt>
<totfact> 0.16276783E+00</totfact>
</mgrwt>
</event>
<event>
 6    1  0.1817112E-005  0.1418487E+04  0.7818608E-02  0.8940544E-01
          2   -1    0    0  501    0  0.00000000000E+00  0.00000000000E+00  0.12707152572E+04  0.12707152572E+04  0.00000000000E+00 0. -1.
         -2   -1    0    0    0  501 -0.00000000000E+00 -0.00000000000E+00 -0.39586070202E+03  0.39586070202E+03  0.00000000000E+00 0.  1.
         23    2    1    2    0    0 -0.33620371431E+03  0.50679945781E+02 -0.28817143748E+03  0.45487019707E+03  0.90899529037E+02 0.  0.
         11    1    3    3    0    0 -0.87202601937E+02  0.39854521602E+02 -0.42389937513E+02  0.10483121424E+03  0.00000000000E+00 0.  1.
        -11    1    3    3    0    0 -0.24900111237E+03  0.10825424179E+02 -0.24578149996E+03  0.35003898283E+03  0.00000000000E+00 0. -1.
         22    1    1    2    0    0  0.33620371431E+03 -0.50679945781E+02  0.11630259926E+04  0.12117057621E+04  0.00000000000E+00 0. -1.
<mgrwt>
<rscale>  0 0.14184868E+04</rscale>
<asrwt>0</asrwt>
<pdfrwt beam="1">  1        2 0.19549465E+00 0.14184868E+04</pdfrwt>
<pdfrwt beam="2">  1       -2 0.60901647E-01 0.14184868E+04</pdfrwt>
<totfact> 0.41944346E+01</totfact>
</mgrwt>
</event>
<event>
 6    1  0.1817112E-005  0.2974844E+04  0.7818608E-02  0.8250951E-01
          2   -1    0    0  501    0  0.00000000000E+00  0.00000000000E+00  0.11637391702E+04  0.11637391702E+04  0.00000000000E+00 0. -1.
         -2   -1    0    0    0  501 -0.00000000000E+00 -0.00000000000E+00 -0.19011342863E+04  0.19011342863E+04  0.00000000000E+00 0.  1.
         23    2    1    2    0    0  0.40438087041E+03 -0.14173002891E+04 -0.56305540268E+03  0.15807379055E+04  0.97143922422E+02 0.  0.
         11    1    3    3    0    0  0.67962525819E+02 -0.18119881022E+03 -0.10550270577E+03  0.22041491480E+03  0.00000000000E+00 0. -1.
        -11    1    3    3    0    0  0.33641834459E+03 -0.12361014789E+04 -0.45755269691E+03  0.13603229908E+04  0.00000000000E+00 0.  1.
         22    1    1    2    0    0 -0.40438087041E+03  0.14173002891E+04 -0.17433971342E+03  0.14841355509E+04  0.00000000000E+00 0. -1.
<mgrwt>
<rscale>  0 0.29748442E+04</rscale>
<asrwt>0</asrwt>
<pdfrwt beam="1">  1        2 0.17903680E+00 0.29748442E+04</pdfrwt>
<pdfrwt beam="2">  1       -2 0.29248219E+00 0.29748442E+04</pdfrwt>
<totfact> 0.60362049E-01</totfact>
</mgrwt>
</event>
<event>
 6    1  0.1817112E-005  0.5507817E+04  0.7818608E-02  0.7754615E-01
         -2   -1    0    0    0  501 -0.00000000000E+00  0.00000000000E+00  0.23597171681E+04  0.23597171681E+04  0.00000000000E+00 0.  1.
          2   -1    0    0  501    0  0.00000000000E+00 -0.00000000000E+00 -0.32139492787E+04  0.32139492787E+04  0.00000000000E+00 0. -1.
         23    2    1    2    0    0 -0.24955589418E+04  0.11483347383E+04 -0.24269031928E+03  0.27593334058E+04  0.92385876371E+02 0.  0.
         11    1    3    3    0    0 -0.18259537342E+04  0.80763025627E+03 -0.14757141933E+03  0.20020367115E+04  0.00000000000E+00 0.  1.
        -11    1    3    3    0    0 -0.66960520758E+03  0.34070448208E+03 -0.95118899948E+02  0.75729669433E+03  0.00000000000E+00 0. -1.
         22    1    1    2    0    0  0.24955589418E+04 -0.11483347383E+04 -0.61154179125E+03  0.28143330410E+04  0.00000000000E+00 0.  1.
<mgrwt>
<rscale>  0 0.55078167E+04</rscale>
<asrwt>0</asrwt>
<pdfrwt beam="1">  1        2 0.49445374E+00 0.55078167E+04</pdfrwt>
<pdfrwt beam="2">  1       -2 0.36303341E+00 0.55078167E+04</pdfrwt>
<totfact> 0.11414590E-02</totfact>
</mgrwt>
</event>
<event>
 6    1  0.1817112E-005  0.9850119E+03  0.7818608E-02  0.9325138E-01
          4   -1    0    0  501    0  0.00000000000E+00  0.00000000000E+00  0.11242452601E+04  0.11242452601E+04  0.00000000000E+00 0. -1.
         -4   -1    0    0    0  501 -0.00000000000E+00 -0.00000000000E+00 -0.21575548936E+03  0.21575548936E+03  0.00000000000E+00 0.  1.
         23    2    1    2    0    0  0.19405889438E+03 -0.24210498905E+03  0.97090960417E+03  0.10235044370E+04  0.92855763457E+02 0.  0.
         13    1    3    3    0    0  0.10080756792E+03 -0.87506706637E+02  0.54093555863E+03  0.55716323286E+03  0.00000000000E+00 0. -1.
        -13    1    3    3    0    0  0.93251326460E+02 -0.15459828242E+03  0.42997404554E+03  0.46634120411E+03  0.00000000000E+00 0.  1.
         22    1    1    2    0    0 -0.19405889438E+03  0.24210498905E+03 -0.62419833433E+02  0.31649631249E+03  0.00000000000E+00 0.  1.
<mgrwt>
<rscale>  0 0.98501185E+03</rscale>
<asrwt>0</asrwt>
<pdfrwt beam="1">  1        4 0.17296081E+00 0.98501185E+03</pdfrwt>
<pdfrwt beam="2">  1       -4 0.33193153E-01 0.98501185E+03</pdfrwt>
<totfact> 0.35417797E+00</totfact>
</mgrwt>
</event>
<event>
 6    1  0.1817112E-005  0.2853824E+04  0.7818608E-02  0.8286750E-01
         -2   -1    0    0    0  501 -0.00000000000E+00  0.00000000000E+00  0.79797496266E+03  0.79797496266E+03  0.00000000000E+00 0.  1.
          2   -1    0    0  501    0  0.00000000000E+00 -0.00000000000E+00 -0.25515552555E+04  0.25515552555E+04  0.00000000000E+00 0. -1.
         23    2    1    2    0    0  0.76495237023E+03 -0.10017013207E+04 -0.96043259121E+02  0.12672270023E+04  0.89901630158E+02 0.  0.
         11    1    3    3    0    0  0.43362578009E+03 -0.49643860521E+03 -0.61945644206E+02  0.66205730019E+03  0.00000000000E+00 0. -1.
        -11    1    3    3    0    0  0.33132659014E+03 -0.50526271549E+03 -0.34097614915E+02  0.60516970211E+03  0.00000000000E+00 0.  1.
         22    1    1    2    0    0 -0.76495237023E+03  0.10017013207E+04 -0.16575370337E+04  0.20823032159E+04  0.00000000000E+00 0. -1.
<mgrwt>
<rscale>  0 0.28538235E+04</rscale>
<asrwt>0</asrwt>
<pdfrwt beam="1">  1        2 0.39254696E+00 0.28538235E+04</pdfrwt>
<pdfrwt beam="2">  1       -2 0.12276538E+00 0.28538235E+04</pdfrwt>
<totfact> 0.14115516E+00</totfact>
</mgrwt>
</event>
<event>
 6    1  0.1817112E-005  0.1452630E+04  0.7818608E-02  0.8916579E-01
          2   -1    0    0  501    0  0.00000000000E+00  0.00000000000E+00  0.24080073524E+04  0.24080073524E+04  0.00000000000E+00 0. -1.
         -2   -1    0    0    0  501 -0.00000000000E+00 -0.00000000000E+00 -0.21907482835E+03  0.21907482835E+03  0.00000000000E+00 0.  1.
         23    2    1    2    0    0 -0.17277266778E+03 -0.64857300127E+03  0.60989996420E+03  0.91131962207E+03  0.89599969421E+02 0.  0.
         13    1    3    3    0    0 -0.11488729993E+03 -0.48255495812E+03  0.39798549991E+03  0.63596449385E+03  0.00000000000E+00 0.  1.
        -13    1    3    3    0    0 -0.57885367852E+02 -0.16601804315E+03  0.21191446429E+03  0.27535512822E+03  0.00000000000E+00 0. -1.
         22    1    1    2    0    0  0.17277266778E+03  0.64857300127E+03  0.15790325599E+04  0.17157625587E+04  0.00000000000E+00 0. -1.
<mgrwt>
<rscale>  0 0.14526304E+04</rscale>
<asrwt>0</asrwt>
<pdfrwt beam="1">  1        2 0.37046265E+00 0.14526304E+04</pdfrwt>
<pdfrwt beam="2">  1       -2 0.33703821E-01 0.14526304E+04</pdfrwt>
<totfact> 0.31481336E+01</totfact>
</mgrwt>
</event>
<event>
 6    1  0.1817112E-005  0.1991682E+04  0.7818608E-02  0.8610519E-01
         -1   -1    0    0    0  501 -0.00000000000E+00  0.00000000000E+00  0.95610952251E+03  0.95610952251E+03  0.00000000000E+00 0.  1.
          1   -1    0    0  501    0  0.00000000000E+00 -0.00000000000E+00 -0.10372239903E+04  0.10372239903E+04  0.00000000000E+00 0. -1.
         23    2    1    2    0    0  0.21861804295E+03  0.45290359012E+03 -0.89861936640E+03  0.10335263604E+04  0.88002621206E+02 0.  0.
         11    1    3    3    0    0  0.19615812816E+02  0.72151322329E+02 -0.19831789324E+03  0.21194475744E+03  0.00000000000E+00 0.  1.
        -11    1    3    3    0    0  0.19900223013E+03  0.38075226779E+03 -0.70030147315E+03  0.82158160296E+03  0.00000000000E+00 0. -1.
         22    1    1    2    0    0 -0.21861804295E+03 -0.45290359012E+03  0.81750489859E+03  0.95980715243E+03  0.00000000000E+00 0.  1.
<mgrwt>
<rscale>  0 0.19916824E+04</rscale>
<asrwt>0</asrwt>
<pdfrwt beam="1">  1        1 0.15957292E+00 0.19916824E+04</pdfrwt>
<pdfrwt beam="2">  1       -1 0.14709377E+00 0.19916824E+04</pdfrwt>
<totfact> 0.48330155E+00</totfact>
</mgrwt>
</event>
<event>
 6    1  0.1817112E-005  0.1842633E+04  0.7818608E-02  0.8683951E-01
         -2   -1    0    0    0  501 -0.00000000000E+00  0.00000000000E+00  0.29301100573E+03  0.29301100573E+03  0.00000000000E+00 0.  1.
          2   -1    0    0  501    0  0.00000000000E+00 -0.00000000000E+00 -0.28969015015E+04  0.28969015015E+04  0.00000000000E+00 0. -1.
         23    2    1    2    0    0  0.27338150825E+03 -0.69607790923E+03 -0.37846277402E+03  0.84219224077E+03  0.82412343250E+02 0.  0.
         11    1    3    3    0    0  0.94511898808E+02 -0.18489122746E+03 -0.14003776886E+03  0.25045526889E+03  0.00000000000E+00 0.  1.
        -11    1    3    3    0    0  0.17886960944E+03 -0.51118668178E+03 -0.23842500517E+03  0.59173697189E+03  0.00000000000E+00 0. -1.
         22    1    1    2    0    0 -0.27338150825E+03  0.69607790923E+03 -0.22254277217E+04  0.23477202664E+04  0.00000000000E+00 0. -1.
<mgrwt>
<rscale>  0 0.18426329E+04</rscale>
<asrwt>0</asrwt>
<pdfrwt beam="1">  1        2 0.44567715E+00 0.18426329E+04</pdfrwt>
<pdfrwt beam="2">  1       -2 0.45078617E-01 0.18426329E+04</pdfrwt>
<totfact> 0.88855124E+00</totfact>
</mgrwt>
</event>
<event>
 6    1  0.1817112E-005  0.4846183E+04  0.7818608E-02  0.7852683E-01
         -2   -1    0    0    0  501 -0.00000000000E+00  0.00000000000E+00  0.30324195429E+04  0.30324195429E+04  0.00000000000E+00 0.  1.
          2   -1    0    0  501    0  0.00000000000E+00 -0.00000000000E+00 -0.19362006488E+04  0.19362006488E+04  0.00000000000E+00 0. -1.
         23    2    1    2    0    0  0.32725569361E+03 -0.11012223548E+04 -0.16379556717E+04  0.20028997869E+04  0.94455336112E+02 0.  0.
         11    1    3    3    0    0  0.40184633792E+02 -0.27017812564E+03 -0.36851544329E+03  0.45870977351E+03  0.00000000000E+00 0.  1.
        -11    1    3    3    0    0  0.28707105982E+03 -0.83104422912E+03 -0.12694402284E+04  0.15441900134E+04  0.00000000000E+00 0. -1.
         22    1    1    2    0    0 -0.32725569361E+03  0.11012223548E+04  0.27341745657E+04  0.29657204048E+04  0.00000000000E+00 0.  1.
<mgrwt>
<rscale>  0 0.48461831E+04</rscale>
<asrwt>0</asrwt>
<pdfrwt beam="1">  1        2 0.29787702E+00 0.48461831E+04</pdfrwt>
<pdfrwt beam="2">  1       -2 0.46652608E+00 0.48461831E+04</pdfrwt>
<totfact> 0.14483056E-02</totfact>
</mgrwt>
</event>
<event>
 6    1  0.1817112E-005  0.1288246E+04  0.7818608E-02  0.9038939E-01
         -2   -1    0    0    0  501 -0.00000000000E+00  0.00000000000E+00  0.46235907192E+03  0.46235907192E+03  0.00000000000E+00 0.  1.
          2   -1    0    0  501    0  0.00000000000E+00 -0.00000000000E+00 -0.89734187361E+03  0.89734187361E+03  0.00000000000E+00 0. -1.
         23    2    1    2    0    0  0.73249574155E+02  0.21597189751E+03  0.41337065843E+03  0.48122900293E+03  0.93256052779E+02 0.  0.
         13    1    3    3    0    0  0.63976737664E+02  0.54933703219E+02  0.16019766577E+03  0.18103598214E+03  0.00000000000E+00 0. -1.
        -13    1    3    3    0    0  0.92728364914E+01  0.16103819429E+03  0.25317299266E+03  0.30019302079E+03  0.00000000000E+00 0.  1.
         22    1    1    2    0    0 -0.73249574155E+02 -0.21597189751E+03 -0.84835346013E+03  0.87847194260E+03  0.00000000000E+00 0. -1.
<mgrwt>
<rscale>  0 0.12882456E+04</rscale>
<asrwt>0</asrwt>
<pdfrwt beam="1">  1        2 0.13805259E+00 0.12882456E+04</pdfrwt>
<pdfrwt beam="2">  1       -2 0.71132166E-01 0.12882456E+04</pdfrwt>
<totfact> 0.51854795E+01</totfact>
</mgrwt>
</event>
<event>
 6    1  0.1817112E-005  0.2535803E+03  0.7818608E-02  0.1111063E+00
          4   -1    0    0  501    0  0.00000000000E+00  0.00000000000E+00  0.57154710519E+02  0.57154710519E+02  0.00000000000E+00 0. -1.
         -4   -1    0    0    0  501 -0.00000000000E+00 -0.00000000000E+00 -0.28126716664E+03  0.28126716664E+03  0.00000000000E+00 0.  1.
         23    2    1    2    0    0 -0.82728752033E+02 -0.32561588444E+02 -0.38465411287E+02  0.13258425011E+03  0.90524538417E+02 0.  0.
         11    1    3    3    0    0 -0.30742652747E+02  0.27500150121E+02 -0.33245445322E+02  0.52977623477E+02  0.00000000000E+00 0. -1.
        -11    1    3    3    0    0 -0.51986099286E+02 -0.60061738566E+02 -0.52199659648E+01  0.79606626629E+02  0.00000000000E+00 0.  1.
         22    1    1    2    0    0  0.82728752033E+02  0.32561588444E+02 -0.18564704484E+03  0.20583762706E+03  0.00000000000E+00 0. -1.
<mgrwt>
<rscale>  0 0.25358031E+03</rscale>
<asrwt>0</asrwt>
<pdfrwt beam="1">  1        4 0.87930322E-02 0.25358031E+03</pdfrwt>
<pdfrwt beam="2">  1       -4 0.43271873E-01 0.25358031E+03</pdfrwt>
<totfact> 0.90893702E+02</totfact>
</mgrwt>
</event>
<event>
 6    1  0.1817112E-005  0.7297190E+03  0.7818608E-02  0.9667716E-01
         -2   -1    0    0    0  501 -0.00000000000E+00  0.00000000000E+00  0.11307391426E+03  0.11307391426E+03  0.00000000000E+00 0.  1.
          2   -1    0    0  501    0  0.00000000000E+00 -0.00000000000E+00 -0.11773046804E+04  0.11773046804E+04  0.00000000000E+00 0. -1.
         23    2    1    2    0    0 -0.26286492590E+03  0.10372696652E+03 -0.93240001030E+03  0.97855075589E+03  0.91293755481E+02 0.  0.
         11    1    3    3    0    0 -0.20748448288E+03  0.11934598414E+03 -0.74315783925E+03  0.78075402567E+03  0.00000000000E+00 0.  1.
        -11    1    3    3    0    0 -0.55380443018E+02 -0.15619017613E+02 -0.18924217105E+03  0.19779673022E+03  0.00000000000E+00 0. -1.
         22    1    1    2    0    0  0.26286492590E+03 -0.10372696652E+03 -0.13183075585E+03  0.31182783878E+03  0.00000000000E+00 0.  1.
<mgrwt>
<rscale>  0 0.72971898E+03</rscale>
<asrwt>0</asrwt>
<pdfrwt beam="1">  1        2 0.18112379E+00 0.72971898E+03</pdfrwt>
<pdfrwt beam="2">  1       -2 0.17395987E-01 0.72971898E+03</pdfrwt>
<totfact> 0.53598189E+02</totfact>
</mgrwt>
</event>
<event>
 6    1  0.1817112E-005  0.3025585E+04  0.7818608E-02  0.8236462E-01
         -2   -1    0    0    0  501 -0.00000000000E+00  0.00000000000E+00  0.18289326922E+04  0.18289326922E+04  0.00000000000E+00 0.  1.
          2   -1    0    0  501    0  0.00000000000E+00 -0.00000000000E+00 -0.12512986834E+04  0.12512986834E+04  0.00000000000E+00 0. -1.
         23    2    1    2    0    0  0.83593359360E+01 -0.12131321840E+04 -0.62858582889E+03  0.13694637493E+04  0.92472925193E+02 0.  0.
         11    1    3    3    0    0  0.16664680898E+02 -0.40750476705E+03 -0.16515239317E+03  0.44001495398E+03  0.00000000000E+00 0. -1.
        -11    1    3    3    0    0 -0.83053449617E+01 -0.80562741700E+03 -0.46343343572E+03  0.92944879532E+03  0.00000000000E+00 0.  1.
         22    1    1    2    0    0 -0.83593359360E+01  0.12131321840E+04  0.12062198376E+04  0.17107676263E+04  0.00000000000E+00 0.  1.
<mgrwt>
<rscale>  0 0.30255849E+04</rscale>
<asrwt>0</asrwt>
<pdfrwt beam="1">  1        2 0.19250749E+00 0.30255849E+04</pdfrwt>
<pdfrwt beam="2">  1       -2 0.28137426E+00 0.30255849E+04</pdfrwt>
<totfact> 0.62299622E-01</totfact>
</mgrwt>
</event>
<event>
 6    1  0.1817112E-005  0.1770123E+04  0.7818608E-02  0.8722351E-01
         -2   -1    0    0    0  501 -0.00000000000E+00  0.00000000000E+00  0.12221356377E+04  0.12221356377E+04  0.00000000000E+00 0.  1.
          2   -1    0    0  501    0  0.00000000000E+00 -0.00000000000E+00 -0.64095487030E+03  0.64095487030E+03  0.00000000000E+00 0. -1.
         23    2    1    2    0    0  0.36679304318E+03 -0.61731984154E+03  0.83253653963E+03  0.11023010183E+04  0.79558292422E+02 0.  0.
         13    1    3    3    0    0  0.88208227986E+02 -0.20696368363E+03  0.29333460328E+03  0.36967532689E+03  0.00000000000E+00 0.  1.
        -13    1    3    3    0    0  0.27858481520E+03 -0.41035615791E+03  0.53920193635E+03  0.73262569144E+03  0.00000000000E+00 0. -1.
         22    1    1    2    0    0 -0.36679304318E+03  0.61731984154E+03 -0.25135577227E+03  0.76078948964E+03  0.00000000000E+00 0. -1.
<mgrwt>
<rscale>  0 0.17701229E+04</rscale>
<asrwt>0</asrwt>
<pdfrwt beam="1">  1        2 0.98608442E-01 0.17701229E+04</pdfrwt>
<pdfrwt beam="2">  1       -2 0.18802087E+00 0.17701229E+04</pdfrwt>
<totfact> 0.69137419E+00</totfact>
</mgrwt>
</event>
<event>
 6    1  0.1817112E-005  0.1558082E+04  0.7818608E-02  0.8846722E-01
          2   -1    0    0  501    0  0.00000000000E+00  0.00000000000E+00  0.14036347788E+04  0.14036347788E+04  0.00000000000E+00 0. -1.
         -2   -1    0    0    0  501 -0.00000000000E+00 -0.00000000000E+00 -0.43238087335E+03  0.43238087335E+03  0.00000000000E+00 0.  1.
         23    2    1    2    0    0 -0.68507138035E+03  0.11551651898E+03  0.89548049078E+03  0.11371533819E+04  0.92550755585E+02 0.  0.
         13    1    3    3    0    0 -0.17976843143E+03  0.63511025899E+02  0.28627266536E+03  0.34395112775E+03  0.00000000000E+00 0.  1.
        -13    1    3    3    0    0 -0.50530294892E+03  0.52005493083E+02  0.60920782542E+03  0.79320225419E+03  0.00000000000E+00 0. -1.
         22    1    1    2    0    0  0.68507138035E+03 -0.11551651898E+03  0.75773414660E+02  0.69886227020E+03  0.00000000000E+00 0.  1.
<mgrwt>
<rscale>  0 0.15580819E+04</rscale>
<asrwt>0</asrwt>
<pdfrwt beam="1">  1        2 0.21594381E+00 0.15580819E+04</pdfrwt>
<pdfrwt beam="2">  1       -2 0.66520135E-01 0.15580819E+04</pdfrwt>
<totfact> 0.28772103E+01</totfact>
</mgrwt>
</event>
<event>
 6    1  0.1817112E-005  0.7667527E+03  0.7818608E-02  0.9609428E-01
          2   -1    0    0  501    0  0.00000000000E+00  0.00000000000E+00  0.12272466894E+04  0.12272466894E+04  0.00000000000E+00 0.  1.
         -2   -1    0    0    0  501 -0.00000000000E+00 -0.00000000000E+00 -0.11976193561E+03  0.11976193561E+03  0.00000000000E+00 0. -1.
         23    2    1    2    0    0  0.99226514999E+02 -0.27836706257E+03  0.14775339124E+03  0.34280824109E+03  0.91390933555E+02 0.  0.
         13    1    3    3    0    0  0.40241112826E+02 -0.69370836575E+02  0.84778902299E+02  0.11670099573E+03  0.00000000000E+00 0.  1.
        -13    1    3    3    0    0  0.58985402172E+02 -0.20899622600E+03  0.62974488937E+02  0.22610724537E+03  0.00000000000E+00 0. -1.
         22    1    1    2    0    0 -0.99226514999E+02  0.27836706257E+03  0.95973136250E+03  0.10042003839E+04  0.00000000000E+00 0.  1.
<mgrwt>
<rscale>  0 0.76675273E+03</rscale>
<asrwt>0</asrwt>
<pdfrwt beam="1">  1        2 0.18880717E+00 0.76675273E+03</pdfrwt>
<pdfrwt beam="2">  1       -2 0.18424914E-01 0.76675273E+03</pdfrwt>
<totfact> 0.45269600E+02</totfact>
</mgrwt>
</event>
<event>
 6    1  0.1817112E-005  0.2001625E+04  0.7818608E-02  0.8605861E-01
         -2   -1    0    0    0  501 -0.00000000000E+00  0.00000000000E+00  0.39351779192E+03  0.39351779192E+03  0.00000000000E+00 0.  1.
          2   -1    0    0  501    0  0.00000000000E+00 -0.00000000000E+00 -0.25453130410E+04  0.25453130410E+04  0.00000000000E+00 0. -1.
         23    2    1    2    0    0  0.49034570471E+03  0.19495708648E+03 -0.23229374123E+04  0.23840905191E+04  0.96964974008E+02 0.  0.
         11    1    3    3    0    0  0.36505816884E+03  0.98047447651E+02 -0.16131036693E+04  0.16567993893E+04  0.00000000000E+00 0. -1.
        -11    1    3    3    0    0  0.12528753587E+03  0.96909638832E+02 -0.70983374298E+03  0.72729112975E+03  0.00000000000E+00 0.  1.
         22    1    1    2    0    0 -0.49034570471E+03 -0.19495708648E+03  0.17114216323E+03  0.55474031378E+03  0.00000000000E+00 0.  1.
<mgrwt>
<rscale>  0 0.20016253E+04</rscale>
<asrwt>0</asrwt>
<pdfrwt beam="1">  1        2 0.39158663E+00 0.20016253E+04</pdfrwt>
<pdfrwt beam="2">  1       -2 0.60541198E-01 0.20016253E+04</pdfrwt>
<totfact> 0.77385162E+00</totfact>
</mgrwt>
</event>
<event>
 6    1  0.1817112E-005  0.3557074E+04  0.7818608E-02  0.8100396E-01
         -2   -1    0    0    0  501 -0.00000000000E+00  0.00000000000E+00  0.12232491251E+04  0.12232491251E+04  0.00000000000E+00 0. -1.
          2   -1    0    0  501    0  0.00000000000E+00 -0.00000000000E+00 -0.25858946351E+04  0.25858946351E+04  0.00000000000E+00 0.  1.
         23    2    1    2    0    0 -0.16469408899E+04  0.66176525035E+03 -0.58179862865E+03  0.18700539238E+04  0.90909254446E+02 0.  0.
         11    1    3    3    0    0 -0.59210696735E+03  0.19154738388E+03 -0.19807922746E+03  0.65308226236E+03  0.00000000000E+00 0.  1.
        -11    1    3    3    0    0 -0.10548339225E+04  0.47021786646E+03 -0.38371940119E+03  0.12169716615E+04  0.00000000000E+00 0. -1.
         22    1    1    2    0    0  0.16469408899E+04 -0.66176525035E+03 -0.78084688131E+03  0.19390898363E+04  0.00000000000E+00 0.  1.
<mgrwt>
<rscale>  0 0.35570737E+04</rscale>
<asrwt>0</asrwt>
<pdfrwt beam="1">  1        2 0.39782994E+00 0.35570737E+04</pdfrwt>
<pdfrwt beam="2">  1       -2 0.18819217E+00 0.35570737E+04</pdfrwt>
<totfact> 0.40433871E-01</totfact>
</mgrwt>
</event>
<event>
 6    1  0.1817112E-005  0.1539133E+04  0.7818608E-02  0.8858839E-01
         -2   -1    0    0    0  501 -0.00000000000E+00  0.00000000000E+00  0.13600495355E+04  0.13600495355E+04  0.00000000000E+00 0.  1.
          2   -1    0    0  501    0  0.00000000000E+00 -0.00000000000E+00 -0.43544926285E+03  0.43544926285E+03  0.00000000000E+00 0. -1.
         23    2    1    2    0    0  0.29337892395E+03  0.55981453265E+03 -0.42573784206E+02  0.64012476358E+03  0.92106904571E+02 0.  0.
         13    1    3    3    0    0  0.18781431071E+03  0.32264040489E+03  0.17220552510E+02  0.37372127797E+03  0.00000000000E+00 0.  1.
        -13    1    3    3    0    0  0.10556461323E+03  0.23717412776E+03 -0.59794336716E+02  0.26640348562E+03  0.00000000000E+00 0. -1.
         22    1    1    2    0    0 -0.29337892395E+03 -0.55981453265E+03  0.96717405689E+03  0.11553740348E+04  0.00000000000E+00 0.  1.
<mgrwt>
<rscale>  0 0.15391330E+04</rscale>
<asrwt>0</asrwt>
<pdfrwt beam="1">  1        2 0.66992195E-01 0.15391330E+04</pdfrwt>
<pdfrwt beam="2">  1       -2 0.20923839E+00 0.15391330E+04</pdfrwt>
<totfact> 0.80493104E+00</totfact>
</mgrwt>
</event>
<event>
 6    1  0.1817112E-005  0.3532870E+04  0.7818608E-02  0.8106044E-01
         -2   -1    0    0    0  501 -0.00000000000E+00  0.00000000000E+00  0.23784165139E+04  0.23784165139E+04  0.00000000000E+00 0.  1.
          2   -1    0    0  501    0  0.00000000000E+00 -0.00000000000E+00 -0.13119203882E+04  0.13119203882E+04  0.00000000000E+00 0. -1.
         23    2    1    2    0    0  0.11718015925E+04  0.13184793667E+04  0.60391688632E+03  0.18667452906E+04  0.92279801700E+02 0.  0.
         13    1    3    3    0    0  0.80941867816E+03  0.92043715055E+03  0.37491692955E+03  0.12817666904E+04  0.00000000000E+00 0. -1.
        -13    1    3    3    0    0  0.36238291432E+03  0.39804221617E+03  0.22899995677E+03  0.58497860016E+03  0.00000000000E+00 0.  1.
         22    1    1    2    0    0 -0.11718015925E+04 -0.13184793667E+04  0.46257923943E+03  0.18235916114E+04  0.00000000000E+00 0.  1.
<mgrwt>
<rscale>  0 0.35328703E+04</rscale>
<asrwt>0</asrwt>
<pdfrwt beam="1">  1        2 0.20183391E+00 0.35328703E+04</pdfrwt>
<pdfrwt beam="2">  1       -2 0.36591023E+00 0.35328703E+04</pdfrwt>
<totfact> 0.16430631E-01</totfact>
</mgrwt>
</event>
<event>
 6    1  0.1817112E-005  0.4254192E+04  0.7818608E-02  0.7955143E-01
         -2   -1    0    0    0  501 -0.00000000000E+00  0.00000000000E+00  0.26341051327E+04  0.26341051327E+04  0.00000000000E+00 0.  1.
          2   -1    0    0  501    0  0.00000000000E+00 -0.00000000000E+00 -0.17176751871E+04  0.17176751871E+04  0.00000000000E+00 0. -1.
         23    2    1    2    0    0  0.11900296562E+04 -0.11675936779E+04  0.18081294111E+04  0.24611260637E+04  0.91454659499E+02 0.  0.
         11    1    3    3    0    0  0.35788873492E+03 -0.29870671010E+03  0.48040489595E+03  0.66940190416E+03  0.00000000000E+00 0. -1.
        -11    1    3    3    0    0  0.83214092128E+03 -0.86888696783E+03  0.13277245152E+04  0.17917241595E+04  0.00000000000E+00 0.  1.
         22    1    1    2    0    0 -0.11900296562E+04  0.11675936779E+04 -0.89169946556E+03  0.18906542561E+04  0.00000000000E+00 0. -1.
<mgrwt>
<rscale>  0 0.42541918E+04</rscale>
<asrwt>0</asrwt>
<pdfrwt beam="1">  1        2 0.26425772E+00 0.42541918E+04</pdfrwt>
<pdfrwt beam="2">  1       -2 0.40524695E+00 0.42541918E+04</pdfrwt>
<totfact> 0.50804993E-02</totfact>
</mgrwt>
</event>
<event>
 6    1  0.1817112E-005  0.1177862E+04  0.7818608E-02  0.9132457E-01
          2   -1    0    0  501    0  0.00000000000E+00  0.00000000000E+00  0.20400602627E+04  0.20400602627E+04  0.00000000000E+00 0. -1.
         -2   -1    0    0    0  501 -0.00000000000E+00 -0.00000000000E+00 -0.17001456203E+03  0.17001456203E+03  0.00000000000E+00 0.  1.
         23    2    1    2    0    0  0.28838105040E+03  0.13270147895E+03  0.18686872676E+02  0.33169711437E+03  0.94342269047E+02 0.  0.
         13    1    3    3    0    0  0.16333633453E+03  0.32917680637E+02 -0.17929075589E+02  0.16758216978E+03  0.00000000000E+00 0.  1.
        -13    1    3    3    0    0  0.12504471587E+03  0.99783798308E+02  0.36615948265E+02  0.16411494459E+03  0.00000000000E+00 0. -1.
         22    1    1    2    0    0 -0.28838105040E+03 -0.13270147895E+03  0.18513588280E+04  0.18783777103E+04  0.00000000000E+00 0. -1.
<mgrwt>
<rscale>  0 0.11778624E+04</rscale>
<asrwt>0</asrwt>
<pdfrwt beam="1">  1        2 0.31385541E+00 0.11778624E+04</pdfrwt>
<pdfrwt beam="2">  1       -2 0.26156088E-01 0.11778624E+04</pdfrwt>
<totfact> 0.83006567E+01</totfact>
</mgrwt>
</event>
<event>
 6    1  0.1817112E-005  0.2782003E+04  0.7818608E-02  0.8308877E-01
         -1   -1    0    0    0  501 -0.00000000000E+00  0.00000000000E+00  0.10141742960E+04  0.10141742960E+04  0.00000000000E+00 0.  1.
          1   -1    0    0  501    0  0.00000000000E+00 -0.00000000000E+00 -0.19078434511E+04  0.19078434511E+04  0.00000000000E+00 0. -1.
         23    2    1    2    0    0 -0.13890890494E+04 -0.29103253141E+02 -0.42929672494E+03  0.14570750382E+04  0.91414452881E+02 0.  0.
         11    1    3    3    0    0 -0.42938699990E+03 -0.49667606033E+02 -0.14545214869E+03  0.45606621705E+03  0.00000000000E+00 0. -1.
        -11    1    3    3    0    0 -0.95970204952E+03  0.20564352892E+02 -0.28384457626E+03  0.10010088211E+04  0.00000000000E+00 0.  1.
         22    1    1    2    0    0  0.13890890494E+04  0.29103253141E+02 -0.46437243019E+03  0.14649427089E+04  0.00000000000E+00 0.  1.
<mgrwt>
<rscale>  0 0.27820034E+04</rscale>
<asrwt>0</asrwt>
<pdfrwt beam="1">  1        1 0.29351437E+00 0.27820034E+04</pdfrwt>
<pdfrwt beam="2">  1       -1 0.15602682E+00 0.27820034E+04</pdfrwt>
<totfact> 0.93510274E-01</totfact>
</mgrwt>
</event>
<event>
 6    1  0.1817112E-005  0.2861706E+04  0.7818608E-02  0.8284363E-01
         -2   -1    0    0    0  501 -0.00000000000E+00  0.00000000000E+00  0.21016655424E+04  0.21016655424E+04  0.00000000000E+00 0. -1.
          2   -1    0    0  501    0  0.00000000000E+00 -0.00000000000E+00 -0.97415103684E+03  0.97415103684E+03  0.00000000000E+00 0.  1.
         23    2    1    2    0    0 -0.21865136457E+03  0.99834422458E+03  0.16384994719E+04  0.19331857353E+04  0.89593290373E+02 0.  0.
         13    1    3    3    0    0 -0.11721814353E+03  0.52096664511E+03  0.77167693740E+03  0.93841975373E+03  0.00000000000E+00 0.  1.
        -13    1    3    3    0    0 -0.10143322104E+03  0.47737757947E+03  0.86682253448E+03  0.99476598152E+03  0.00000000000E+00 0. -1.
         22    1    1    2    0    0  0.21865136457E+03 -0.99834422458E+03 -0.51098496628E+03  0.11426308440E+04  0.00000000000E+00 0.  1.
<mgrwt>
<rscale>  0 0.28617056E+04</rscale>
<asrwt>0</asrwt>
<pdfrwt beam="1">  1        2 0.14986939E+00 0.28617056E+04</pdfrwt>
<pdfrwt beam="2">  1       -2 0.32333316E+00 0.28617056E+04</pdfrwt>
<totfact> 0.51748316E-01</totfact>
</mgrwt>
</event>
<event>
 6    1  0.1817112E-005  0.1680291E+04  0.7818608E-02  0.8772685E-01
          1   -1    0    0  501    0  0.00000000000E+00  0.00000000000E+00  0.12080536072E+04  0.12080536072E+04  0.00000000000E+00 0. -1.
         -1   -1    0    0    0  501 -0.00000000000E+00 -0.00000000000E+00 -0.58428274763E+03  0.58428274763E+03  0.00000000000E+00 0.  1.
         23    2    1    2    0    0 -0.59155637564E+03  0.58433201900E+03  0.20387821122E+03  0.86083611856E+03  0.89942448317E+02 0.  0.
         11    1    3    3    0    0 -0.26294138447E+03  0.27193332610E+03  0.13805780304E+03  0.40267339431E+03  0.00000000000E+00 0. -1.
        -11    1    3    3    0    0 -0.32861499117E+03  0.31239869291E+03  0.65820408176E+02  0.45816272424E+03  0.00000000000E+00 0.  1.
         22    1    1    2    0    0  0.59155637564E+03 -0.58433201900E+03  0.41989264832E+03  0.93150023624E+03  0.00000000000E+00 0. -1.
<mgrwt>
<rscale>  0 0.16802915E+04</rscale>
<asrwt>0</asrwt>
<pdfrwt beam="1">  1        1 0.18585440E+00 0.16802915E+04</pdfrwt>
<pdfrwt beam="2">  1       -1 0.89889654E-01 0.16802915E+04</pdfrwt>
<totfact> 0.12171758E+01</totfact>
</mgrwt>
</event>
<event>
 6    1  0.1817112E-005  0.1185706E+04  0.7818608E-02  0.9125461E-01
          2   -1    0    0  501    0  0.00000000000E+00  0.00000000000E+00  0.79032025989E+03  0.79032025989E+03  0.00000000000E+00 0. -1.
         -2   -1    0    0    0  501 -0.00000000000E+00 -0.00000000000E+00 -0.44472452886E+03  0.44472452886E+03  0.00000000000E+00 0.  1.
         23    2    1    2    0    0 -0.45986264214E+03  0.34943349988E+03  0.29658347565E+03  0.65540729717E+03  0.89551921726E+02 0.  0.
         11    1    3    3    0    0 -0.34904916338E+03  0.21403568108E+03  0.21181758708E+03  0.46099162837E+03  0.00000000000E+00 0.  1.
        -11    1    3    3    0    0 -0.11081347876E+03  0.13539781880E+03  0.84765888563E+02  0.19441566880E+03  0.00000000000E+00 0. -1.
         22    1    1    2    0    0  0.45986264214E+03 -0.34943349988E+03  0.49012255388E+02  0.57963749158E+03  0.00000000000E+00 0. -1.
<mgrwt>
<rscale>  0 0.11857062E+04</rscale>
<asrwt>0</asrwt>
<pdfrwt beam="1">  1        2 0.12158773E+00 0.11857062E+04</pdfrwt>
<pdfrwt beam="2">  1       -2 0.68419158E-01 0.11857062E+04</pdfrwt>
<totfact> 0.67587729E+01</totfact>
</mgrwt>
</event>
<event>
 6    1  0.1817112E-005  0.2518129E+04  0.7818608E-02  0.8396555E-01
         -2   -1    0    0    0  501 -0.00000000000E+00  0.00000000000E+00  0.17068198335E+04  0.17068198335E+04  0.00000000000E+00 0.  1.
          2   -1    0    0  501    0  0.00000000000E+00 -0.00000000000E+00 -0.92877033052E+03  0.92877033052E+03  0.00000000000E+00 0. -1.
         23    2    1    2    0    0  0.44014062351E+03  0.69748725005E+02 -0.84112720886E+03  0.95620876681E+03  0.90838159051E+02 0.  0.
         13    1    3    3    0    0  0.13313710156E+03 -0.13778844289E+02 -0.29946388835E+03  0.32801518987E+03  0.00000000000E+00 0.  1.
        -13    1    3    3    0    0  0.30700352195E+03  0.83527569293E+02 -0.54166332052E+03  0.62819357694E+03  0.00000000000E+00 0. -1.
         22    1    1    2    0    0 -0.44014062351E+03 -0.69748725005E+02  0.16191767119E+04  0.16793813973E+04  0.00000000000E+00 0.  1.
<mgrwt>
<rscale>  0 0.25181292E+04</rscale>
<asrwt>0</asrwt>
<pdfrwt beam="1">  1        2 0.14288774E+00 0.25181292E+04</pdfrwt>
<pdfrwt beam="2">  1       -2 0.26258767E+00 0.25181292E+04</pdfrwt>
<totfact> 0.13434473E+00</totfact>
</mgrwt>
</event>
<event>
 6    1  0.1817112E-005  0.4064876E+04  0.7818608E-02  0.7991585E-01
          2   -1    0    0  501    0  0.00000000000E+00  0.00000000000E+00  0.37537806919E+04  0.37537806919E+04  0.00000000000E+00 0. -1.
         -2   -1    0    0    0  501 -0.00000000000E+00 -0.00000000000E+00 -0.11004384891E+04  0.11004384891E+04  0.00000000000E+00 0.  1.
         23    2    1    2    0    0 -0.19603770455E+04  0.14369571385E+03  0.71492600841E+03  0.20935699889E+04  0.90495756609E+02 0.  0.
         13    1    3    3    0    0 -0.16872384416E+04  0.14127436954E+03  0.64282541228E+03  0.18110650229E+04  0.00000000000E+00 0. -1.
        -13    1    3    3    0    0 -0.27313860391E+03  0.24213443050E+01  0.72100596137E+02  0.28250496601E+03  0.00000000000E+00 0.  1.
         22    1    1    2    0    0  0.19603770455E+04 -0.14369571385E+03  0.19384161944E+04  0.27606491921E+04  0.00000000000E+00 0. -1.
<mgrwt>
<rscale>  0 0.40648763E+04</rscale>
<asrwt>0</asrwt>
<pdfrwt beam="1">  1        2 0.57750472E+00 0.40648763E+04</pdfrwt>
<pdfrwt beam="2">  1       -2 0.16929823E+00 0.40648763E+04</pdfrwt>
<totfact> 0.89814136E-02</totfact>
</mgrwt>
</event>
<event>
 6    1  0.1817112E-005  0.1128646E+04  0.7818608E-02  0.9177713E-01
         -2   -1    0    0    0  501 -0.00000000000E+00  0.00000000000E+00  0.98890046726E+03  0.98890046726E+03  0.00000000000E+00 0.  1.
          2   -1    0    0  501    0  0.00000000000E+00 -0.00000000000E+00 -0.32203460655E+03  0.32203460655E+03  0.00000000000E+00 0. -1.
         23    2    1    2    0    0 -0.10562153640E+03  0.26663541684E+03 -0.22388698662E+03  0.37515145059E+03  0.91448748720E+02 0.  0.
         13    1    3    3    0    0 -0.42265539083E+02  0.14672756462E+03 -0.64182467771E+02  0.16563436595E+03  0.00000000000E+00 0.  1.
        -13    1    3    3    0    0 -0.63355997312E+02  0.11990785222E+03 -0.15970451884E+03  0.20951708464E+03  0.00000000000E+00 0. -1.
         22    1    1    2    0    0  0.10562153640E+03 -0.26663541684E+03  0.89075284733E+03  0.93578362322E+03  0.00000000000E+00 0.  1.
<mgrwt>
<rscale>  0 0.11286455E+04</rscale>
<asrwt>0</asrwt>
<pdfrwt beam="1">  1        2 0.49543786E-01 0.11286455E+04</pdfrwt>
<pdfrwt beam="2">  1       -2 0.15213853E+00 0.11286455E+04</pdfrwt>
<totfact> 0.28978268E+01</totfact>
</mgrwt>
</event>
<event>
 6    1  0.1817112E-005  0.3497871E+04  0.7818608E-02  0.8114295E-01
         -2   -1    0    0    0  501 -0.00000000000E+00  0.00000000000E+00  0.20249584417E+04  0.20249584417E+04  0.00000000000E+00 0.  1.
          2   -1    0    0  501    0  0.00000000000E+00 -0.00000000000E+00 -0.15105369806E+04  0.15105369806E+04  0.00000000000E+00 0. -1.
         23    2    1    2    0    0 -0.11722768528E+01 -0.97220123309E+03 -0.12111510106E+04  0.15548952692E+04  0.75072736155E+02 0.  0.
         11    1    3    3    0    0 -0.27920373373E+02 -0.31235649862E+03 -0.42507612869E+03  0.52823843543E+03  0.00000000000E+00 0.  1.
        -11    1    3    3    0    0  0.26748096521E+02 -0.65984473447E+03 -0.78607488191E+03  0.10266568337E+04  0.00000000000E+00 0. -1.
         22    1    1    2    0    0  0.11722768528E+01  0.97220123309E+03  0.17255724717E+04  0.19806001532E+04  0.00000000000E+00 0.  1.
<mgrwt>
<rscale>  0 0.34978706E+04</rscale>
<asrwt>0</asrwt>
<pdfrwt beam="1">  1        2 0.23239031E+00 0.34978706E+04</pdfrwt>
<pdfrwt beam="2">  1       -2 0.31153207E+00 0.34978706E+04</pdfrwt>
<totfact> 0.27782745E-01</totfact>
</mgrwt>
</event>
<event>
 6    1  0.1817112E-005  0.4908288E+04  0.7818608E-02  0.7842812E-01
         -2   -1    0    0    0  501 -0.00000000000E+00  0.00000000000E+00  0.21116522293E+04  0.21116522293E+04  0.00000000000E+00 0.  1.
          2   -1    0    0  501    0  0.00000000000E+00 -0.00000000000E+00 -0.28521851361E+04  0.28521851361E+04  0.00000000000E+00 0. -1.
         23    2    1    2    0    0  0.54347473755E+02 -0.14128218265E+04  0.16570102811E+04  0.21804522862E+04  0.98335850539E+02 0.  0.
         11    1    3    3    0    0 -0.26147180091E+02 -0.42120204358E+03  0.47038221544E+03  0.63194482761E+03  0.00000000000E+00 0.  1.
        -11    1    3    3    0    0  0.80494653846E+02 -0.99161978294E+03  0.11866280656E+04  0.15485074586E+04  0.00000000000E+00 0. -1.
         22    1    1    2    0    0 -0.54347473755E+02  0.14128218265E+04 -0.23975431879E+04  0.27833850792E+04  0.00000000000E+00 0.  1.
<mgrwt>
<rscale>  0 0.49082881E+04</rscale>
<asrwt>0</asrwt>
<pdfrwt beam="1">  1        2 0.43879771E+00 0.49082881E+04</pdfrwt>
<pdfrwt beam="2">  1       -2 0.32486958E+00 0.49082881E+04</pdfrwt>
<totfact> 0.35202713E-02</totfact>
</mgrwt>
</event>
<event>
 6    1  0.1817112E-005  0.1648246E+04  0.7818608E-02  0.8791445E-01
          2   -1    0    0  501    0  0.00000000000E+00  0.00000000000E+00  0.67619219921E+03  0.67619219921E+03  0.00000000000E+00 0. -1.
         -2   -1    0    0    0  501 -0.00000000000E+00 -0.00000000000E+00 -0.10044163859E+04  0.10044163859E+04  0.00000000000E+00 0.  1.
         23    2    1    2    0    0  0.32295027912E+03 -0.27658151310E+03  0.55188254323E+03  0.70317210521E+03  0.95301898424E+02 0.  0.
         11    1    3    3    0    0  0.27499390604E+03 -0.19447121513E+03  0.38886073363E+03  0.51444472204E+03  0.00000000000E+00 0.  1.
        -11    1    3    3    0    0  0.47956373080E+02 -0.82110297971E+02  0.16302180960E+03  0.18872738317E+03  0.00000000000E+00 0. -1.
         22    1    1    2    0    0 -0.32295027912E+03  0.27658151310E+03 -0.88010672988E+03  0.97743647986E+03  0.00000000000E+00 0.  1.
<mgrwt>
<rscale>  0 0.16482458E+04</rscale>
<asrwt>0</asrwt>
<pdfrwt beam="1">  1        2 0.10402957E+00 0.16482458E+04</pdfrwt>
<pdfrwt beam="2">  1       -2 0.15452560E+00 0.16482458E+04</pdfrwt>
<totfact> 0.11311048E+01</totfact>
</mgrwt>
</event>
<event>
 6    1  0.1817112E-005  0.3337054E+04  0.7818608E-02  0.8153530E-01
         -2   -1    0    0    0  501 -0.00000000000E+00  0.00000000000E+00  0.15918730548E+04  0.15918730548E+04  0.00000000000E+00 0.  1.
          2   -1    0    0  501    0  0.00000000000E+00 -0.00000000000E+00 -0.17488725743E+04  0.17488725743E+04  0.00000000000E+00 0. -1.
         23    2    1    2    0    0 -0.56930294603E+03 -0.44762350313E+03  0.14249121994E+04  0.16009418094E+04  0.90372872629E+02 0.  0.
         13    1    3    3    0    0 -0.36474937843E+03 -0.32675287289E+03  0.10201136053E+04  0.11315658694E+04  0.00000000000E+00 0. -1.
        -13    1    3    3    0    0 -0.20455356760E+03 -0.12087063024E+03  0.40479859406E+03  0.46937593998E+03  0.00000000000E+00 0.  1.
         22    1    1    2    0    0  0.56930294603E+03  0.44762350313E+03 -0.15819117189E+04  0.17398038198E+04  0.00000000000E+00 0. -1.
<mgrwt>
<rscale>  0 0.33370545E+04</rscale>
<asrwt>0</asrwt>
<pdfrwt beam="1">  1        2 0.26905732E+00 0.33370545E+04</pdfrwt>
<pdfrwt beam="2">  1       -2 0.24490355E+00 0.33370545E+04</pdfrwt>
<totfact> 0.52992978E-01</totfact>
</mgrwt>
</event>
<event>
 6    1  0.1817112E-005  0.1946531E+04  0.7818608E-02  0.8632035E-01
          2   -1    0    0  501    0  0.00000000000E+00  0.00000000000E+00  0.18424375673E+04  0.18424375673E+04  0.00000000000E+00 0. -1.
         -2   -1    0    0    0  501 -0.00000000000E+00 -0.00000000000E+00 -0.51412651189E+03  0.51412651189E+03  0.00000000000E+00 0.  1.
         23    2    1    2    0    0  0.56208421549E+03 -0.59556841976E+03  0.12973879283E+04  0.15370540745E+04  0.93163210122E+02 0.  0.
         13    1    3    3    0    0  0.33248662371E+02 -0.69713561762E+02  0.99124965875E+02  0.12566309364E+03  0.00000000000E+00 0. -1.
        -13    1    3    3    0    0  0.52883555312E+03 -0.52585485800E+03  0.11982629624E+04  0.14113909809E+04  0.00000000000E+00 0.  1.
         22    1    1    2    0    0 -0.56208421549E+03  0.59556841976E+03  0.30923127144E+02  0.81951000464E+03  0.00000000000E+00 0.  1.
<mgrwt>
<rscale>  0 0.19465313E+04</rscale>
<asrwt>0</asrwt>
<pdfrwt beam="1">  1        2 0.28345193E+00 0.19465313E+04</pdfrwt>
<pdfrwt beam="2">  1       -2 0.79096387E-01 0.19465313E+04</pdfrwt>
<totfact> 0.10813462E+01</totfact>
</mgrwt>
</event>
<event>
 6    1  0.1817112E-005  0.2310834E+04  0.7818608E-02  0.8473661E-01
         -2   -1    0    0    0  501 -0.00000000000E+00  0.00000000000E+00  0.11587767705E+04  0.11587767705E+04  0.00000000000E+00 0.  1.
          2   -1    0    0  501    0  0.00000000000E+00 -0.00000000000E+00 -0.11520674044E+04  0.11520674044E+04  0.00000000000E+00 0. -1.
         23    2    1    2    0    0  0.10822303234E+03 -0.60081339802E+03  0.98212137298E+03  0.11601411085E+04  0.93145243829E+02 0.  0.
         11    1    3    3    0    0  0.40191319378E+02 -0.11176186681E+03  0.25393143407E+03  0.28033414033E+03  0.00000000000E+00 0. -1.
        -11    1    3    3    0    0  0.68031712961E+02 -0.48905153121E+03  0.72818993891E+03  0.87980696820E+03  0.00000000000E+00 0.  1.
         22    1    1    2    0    0 -0.10822303234E+03  0.60081339802E+03 -0.97541200689E+03  0.11507030665E+04  0.00000000000E+00 0. -1.
<mgrwt>
<rscale>  0 0.23108344E+04</rscale>
<asrwt>0</asrwt>
<pdfrwt beam="1">  1        2 0.17724114E+00 0.23108344E+04</pdfrwt>
<pdfrwt beam="2">  1       -2 0.17827335E+00 0.23108344E+04</pdfrwt>
<totfact> 0.34178403E+00</totfact>
</mgrwt>
</event>
<event>
 6    1  0.1817112E-005  0.3951424E+04  0.7818608E-02  0.8014418E-01
          2   -1    0    0  501    0  0.00000000000E+00  0.00000000000E+00  0.15992214205E+04  0.15992214205E+04  0.00000000000E+00 0. -1.
         -2   -1    0    0    0  501 -0.00000000000E+00 -0.00000000000E+00 -0.24408360069E+04  0.24408360069E+04  0.00000000000E+00 0.  1.
         23    2    1    2    0    0  0.16776751194E+04 -0.69758774336E+02  0.64138874792E+03  0.17997987409E+04  0.91847095850E+02 0.  0.
         11    1    3    3    0    0  0.14669842286E+04 -0.31206150197E+02  0.55219783634E+03  0.15677815540E+04  0.00000000000E+00 0. -1.
        -11    1    3    3    0    0  0.21069089078E+03 -0.38552624138E+02  0.89190911573E+02  0.23201718685E+03  0.00000000000E+00 0.  1.
         22    1    1    2    0    0 -0.16776751194E+04  0.69758774336E+02 -0.14830033344E+04  0.22402586865E+04  0.00000000000E+00 0.  1.
<mgrwt>
<rscale>  0 0.39514237E+04</rscale>
<asrwt>0</asrwt>
<pdfrwt beam="1">  1        2 0.24603407E+00 0.39514237E+04</pdfrwt>
<pdfrwt beam="2">  1       -2 0.37551323E+00 0.39514237E+04</pdfrwt>
<totfact> 0.94569683E-02</totfact>
</mgrwt>
</event>
<event>
 6    1  0.1817112E-005  0.2533117E+04  0.7818608E-02  0.8391282E-01
          2   -1    0    0  501    0  0.00000000000E+00  0.00000000000E+00  0.35914248522E+04  0.35914248522E+04  0.00000000000E+00 0. -1.
         -2   -1    0    0    0  501 -0.00000000000E+00 -0.00000000000E+00 -0.44666682932E+03  0.44666682932E+03  0.00000000000E+00 0.  1.
         23    2    1    2    0    0  0.35804070152E+03 -0.10520133271E+04  0.61138630645E+03  0.12717046085E+04  0.92272483462E+02 0.  0.
         11    1    3    3    0    0  0.62965654320E+01 -0.18788488687E+02  0.27465129083E+02  0.33867201818E+02  0.00000000000E+00 0. -1.
        -11    1    3    3    0    0  0.35174413609E+03 -0.10332248384E+04  0.58392117736E+03  0.12378374067E+04  0.00000000000E+00 0.  1.
         22    1    1    2    0    0 -0.35804070152E+03  0.10520133271E+04  0.25333717165E+04  0.27663870731E+04  0.00000000000E+00 0. -1.
<mgrwt>
<rscale>  0 0.25331169E+04</rscale>
<asrwt>0</asrwt>
<pdfrwt beam="1">  1        2 0.55252688E+00 0.25331169E+04</pdfrwt>
<pdfrwt beam="2">  1       -2 0.68717976E-01 0.25331169E+04</pdfrwt>
<totfact> 0.12071588E+00</totfact>
</mgrwt>
</event>
<event>
 6    1  0.1817112E-005  0.4167816E+03  0.7818608E-02  0.1038119E+00
         -1   -1    0    0    0  501 -0.00000000000E+00  0.00000000000E+00  0.16053511587E+03  0.16053511587E+03  0.00000000000E+00 0.  1.
          1   -1    0    0  501    0  0.00000000000E+00 -0.00000000000E+00 -0.27051233591E+03  0.27051233591E+03  0.00000000000E+00 0. -1.
         23    2    1    2    0    0  0.56541266468E+02 -0.14755257793E+03  0.67989639114E+02  0.19305400434E+03  0.87627504221E+02 0.  0.
         13    1    3    3    0    0  0.45229003015E+02 -0.24059538183E+02  0.42241013673E+02  0.66399000952E+02  0.00000000000E+00 0. -1.
        -13    1    3    3    0    0  0.11312263453E+02 -0.12349303975E+03  0.25748625442E+02  0.12665500338E+03  0.00000000000E+00 0.  1.
         22    1    1    2    0    0 -0.56541266468E+02  0.14755257793E+03 -0.17796685915E+03  0.23799344744E+03  0.00000000000E+00 0. -1.
<mgrwt>
<rscale>  0 0.41678162E+03</rscale>
<asrwt>0</asrwt>
<pdfrwt beam="1">  1        1 0.41617282E-01 0.41678162E+03</pdfrwt>
<pdfrwt beam="2">  1       -1 0.24697710E-01 0.41678162E+03</pdfrwt>
<totfact> 0.14271034E+03</totfact>
</mgrwt>
</event>
<event>
 6    1  0.1817112E-005  0.1557373E+04  0.7818608E-02  0.8847172E-01
         -2   -1    0    0    0  501 -0.00000000000E+00  0.00000000000E+00  0.53613743384E+03  0.53613743384E+03  0.00000000000E+00 0.  1.
          2   -1    0    0  501    0  0.00000000000E+00 -0.00000000000E+00 -0.11309650570E+04  0.11309650570E+04  0.00000000000E+00 0. -1.
         23    2    1    2    0    0  0.55291218438E+03  0.87538667343E+02 -0.87372218267E+03  0.10416769739E+04  0.91244525618E+02 0.  0.
         13    1    3    3    0    0  0.40053854431E+03  0.22066243016E+02 -0.63049530182E+03  0.74729001745E+03  0.00000000000E+00 0.  1.
        -13    1    3    3    0    0  0.15237364007E+03  0.65472424327E+02 -0.24322688085E+03  0.29438695641E+03  0.00000000000E+00 0. -1.
         22    1    1    2    0    0 -0.55291218438E+03 -0.87538667343E+02  0.27889455954E+03  0.62542551695E+03  0.00000000000E+00 0.  1.
<mgrwt>
<rscale>  0 0.15573730E+04</rscale>
<asrwt>0</asrwt>
<pdfrwt beam="1">  1        2 0.17399462E+00 0.15573730E+04</pdfrwt>
<pdfrwt beam="2">  1       -2 0.82482683E-01 0.15573730E+04</pdfrwt>
<totfact> 0.25884488E+01</totfact>
</mgrwt>
</event>
<event>
 6    1  0.1817112E-005  0.1887553E+04  0.7818608E-02  0.8661077E-01
         -2   -1    0    0    0  501 -0.00000000000E+00  0.00000000000E+00  0.91732356814E+03  0.91732356814E+03  0.00000000000E+00 0. -1.
          2   -1    0    0  501    0  0.00000000000E+00 -0.00000000000E+00 -0.97099205581E+03  0.97099205581E+03  0.00000000000E+00 0.  1.
         23    2    1    2    0    0  0.75230278305E+02 -0.59149385353E+03 -0.75595321392E+03  0.96705105269E+03  0.90542273759E+02 0.  0.
         13    1    3    3    0    0  0.53440422306E+02 -0.23166366057E+03 -0.36163141281E+03  0.43278309706E+03  0.00000000000E+00 0. -1.
        -13    1    3    3    0    0  0.21789855999E+02 -0.35983019296E+03 -0.39432180111E+03  0.53426795563E+03  0.00000000000E+00 0.  1.
         22    1    1    2    0    0 -0.75230278305E+02  0.59149385353E+03  0.70228472625E+03  0.92126457126E+03  0.00000000000E+00 0. -1.
<mgrwt>
<rscale>  0 0.18875528E+04</rscale>
<asrwt>0</asrwt>
<pdfrwt beam="1">  1        2 0.14938339E+00 0.18875528E+04</pdfrwt>
<pdfrwt beam="2">  1       -2 0.14112670E+00 0.18875528E+04</pdfrwt>
<totfact> 0.86726553E+00</totfact>
</mgrwt>
</event>
<event>
 6    1  0.1817112E-005  0.5351473E+04  0.7818608E-02  0.7776464E-01
         -2   -1    0    0    0  501 -0.00000000000E+00  0.00000000000E+00  0.15422500514E+04  0.15422500514E+04  0.00000000000E+00 0.  1.
          2   -1    0    0  501    0  0.00000000000E+00 -0.00000000000E+00 -0.46422851529E+04  0.46422851529E+04  0.00000000000E+00 0. -1.
         23    2    1    2    0    0 -0.61679688973E+03  0.20309890611E+04  0.33075265519E+03  0.21502249038E+04  0.93353352365E+02 0.  0.
         11    1    3    3    0    0 -0.39048647278E+03  0.13873558849E+04  0.25689528868E+03  0.14639778776E+04  0.00000000000E+00 0. -1.
        -11    1    3    3    0    0 -0.22631041696E+03  0.64363317621E+03  0.73857366509E+02  0.68624702618E+03  0.00000000000E+00 0.  1.
         22    1    1    2    0    0  0.61679688973E+03 -0.20309890611E+04 -0.34307877567E+04  0.40343103005E+04  0.00000000000E+00 0. -1.
<mgrwt>
<rscale>  0 0.53514725E+04</rscale>
<asrwt>0</asrwt>
<pdfrwt beam="1">  1        2 0.71419771E+00 0.53514725E+04</pdfrwt>
<pdfrwt beam="2">  1       -2 0.23726924E+00 0.53514725E+04</pdfrwt>
<totfact> 0.47582082E-03</totfact>
</mgrwt>
</event>
<event>
 6    1  0.1817112E-005  0.2188468E+04  0.7818608E-02  0.8523244E-01
          2   -1    0    0  501    0  0.00000000000E+00  0.00000000000E+00  0.94166565011E+03  0.94166565011E+03  0.00000000000E+00 0. -1.
         -2   -1    0    0    0  501 -0.00000000000E+00 -0.00000000000E+00 -0.12715208799E+04  0.12715208799E+04  0.00000000000E+00 0.  1.
         23    2    1    2    0    0  0.37356945897E+03  0.98556045892E+03  0.12462085158E+03  0.10653920940E+04  0.92986011872E+02 0.  0.
         13    1    3    3    0    0  0.13912458020E+03  0.34157077590E+03  0.44426788191E-02  0.36881735830E+03  0.00000000000E+00 0. -1.
        -13    1    3    3    0    0  0.23444487877E+03  0.64398968302E+03  0.12461640890E+03  0.69657473568E+03  0.00000000000E+00 0.  1.
         22    1    1    2    0    0 -0.37356945897E+03 -0.98556045892E+03 -0.45447608136E+03  0.11477944360E+04  0.00000000000E+00 0.  1.
<mgrwt>
<rscale>  0 0.21884675E+04</rscale>
<asrwt>0</asrwt>
<pdfrwt beam="1">  1        2 0.14487164E+00 0.21884675E+04</pdfrwt>
<pdfrwt beam="2">  1       -2 0.19561860E+00 0.21884675E+04</pdfrwt>
<totfact> 0.35753463E+00</totfact>
</mgrwt>
</event>
<event>
 6    1  0.1817112E-005  0.1473883E+04  0.7818608E-02  0.8902009E-01
         -2   -1    0    0    0  501 -0.00000000000E+00  0.00000000000E+00  0.74358175136E+03  0.74358175136E+03  0.00000000000E+00 0.  1.
          2   -1    0    0  501    0  0.00000000000E+00 -0.00000000000E+00 -0.73036030222E+03  0.73036030222E+03  0.00000000000E+00 0. -1.
         23    2    1    2    0    0 -0.50765378093E+03 -0.11438203857E+03 -0.51132915395E+03  0.73505847193E+03  0.89765480189E+02 0.  0.
         11    1    3    3    0    0 -0.37248685742E+03 -0.97221898635E+02 -0.42656323083E+03  0.57459093834E+03  0.00000000000E+00 0.  1.
        -11    1    3    3    0    0 -0.13516692351E+03 -0.17160139938E+02 -0.84765923120E+02  0.16046753359E+03  0.00000000000E+00 0. -1.
         22    1    1    2    0    0  0.50765378093E+03  0.11438203857E+03  0.52455060309E+03  0.73888358166E+03  0.00000000000E+00 0.  1.
<mgrwt>
<rscale>  0 0.14738828E+04</rscale>
<asrwt>0</asrwt>
<pdfrwt beam="1">  1        2 0.11236312E+00 0.14738828E+04</pdfrwt>
<pdfrwt beam="2">  1       -2 0.11439719E+00 0.14738828E+04</pdfrwt>
<totfact> 0.22439297E+01</totfact>
</mgrwt>
</event>
<event>
 6    1  0.1817112E-005  0.1580284E+04  0.7818608E-02  0.8832753E-01
          2   -1    0    0  501    0  0.00000000000E+00  0.00000000000E+00  0.19987644433E+04  0.19987644433E+04  0.00000000000E+00 0. -1.
         -2   -1    0    0    0  501 -0.00000000000E+00 -0.00000000000E+00 -0.31235515825E+03  0.31235515825E+03  0.00000000000E+00 0.  1.
         23    2    1    2    0    0  0.44617898381E+03 -0.60066974650E+03  0.48618577212E+03  0.89675885869E+03  0.88994469852E+02 0.  0.
         13    1    3    3    0    0  0.25994406871E+03 -0.27676579828E+03  0.23471339212E+03  0.44638615838E+03  0.00000000000E+00 0.  1.
        -13    1    3    3    0    0  0.18623491510E+03 -0.32390394822E+03  0.25147238000E+03  0.45037270030E+03  0.00000000000E+00 0. -1.
         22    1    1    2    0    0 -0.44617898381E+03  0.60066974650E+03  0.12002235129E+04  0.14143607428E+04  0.00000000000E+00 0.  1.
<mgrwt>
<rscale>  0 0.15802840E+04</rscale>
<asrwt>0</asrwt>
<pdfrwt beam="1">  1        2 0.30750221E+00 0.15802840E+04</pdfrwt>
<pdfrwt beam="2">  1       -2 0.48054641E-01 0.15802840E+04</pdfrwt>
<totfact> 0.26372502E+01</totfact>
</mgrwt>
</event>
<event>
 6    1  0.1817112E-005  0.5889726E+04  0.7818608E-02  0.7704227E-01
         -2   -1    0    0    0  501 -0.00000000000E+00  0.00000000000E+00  0.32375993590E+04  0.32375993590E+04  0.00000000000E+00 0.  1.
          2   -1    0    0  501    0  0.00000000000E+00 -0.00000000000E+00 -0.26785954975E+04  0.26785954975E+04  0.00000000000E+00 0. -1.
         23    2    1    2    0    0 -0.23030017412E+04  0.15396381792E+03  0.21154680833E+04  0.31322942207E+04  0.92412101722E+02 0.  0.
         13    1    3    3    0    0 -0.20813400661E+04  0.14944100892E+03  0.19453544073E+04  0.28528429427E+04  0.00000000000E+00 0.  1.
        -13    1    3    3    0    0 -0.22166167511E+03  0.45228089960E+01  0.17011367598E+03  0.27945127798E+03  0.00000000000E+00 0. -1.
         22    1    1    2    0    0  0.23030017412E+04 -0.15396381792E+03 -0.15564642218E+04  0.27839006359E+04  0.00000000000E+00 0. -1.
<mgrwt>
<rscale>  0 0.58897263E+04</rscale>
<asrwt>0</asrwt>
<pdfrwt beam="1">  1        2 0.41209161E+00 0.58897263E+04</pdfrwt>
<pdfrwt beam="2">  1       -2 0.49809221E+00 0.58897263E+04</pdfrwt>
<totfact> 0.31808035E-03</totfact>
</mgrwt>
</event>
<event>
 6    1  0.1817112E-005  0.1978632E+04  0.7818608E-02  0.8616677E-01
          2   -1    0    0  501    0  0.00000000000E+00  0.00000000000E+00  0.26509690497E+04  0.26509690497E+04  0.00000000000E+00 0. -1.
         -2   -1    0    0    0  501 -0.00000000000E+00 -0.00000000000E+00 -0.36920310653E+03  0.36920310653E+03  0.00000000000E+00 0.  1.
         23    2    1    2    0    0 -0.50446776368E+03  0.70981661065E+02  0.24340393765E+04  0.24884642296E+04  0.91544605921E+02 0.  0.
         11    1    3    3    0    0 -0.89851283761E+02  0.48471760914E+02  0.51360238632E+03  0.52365081498E+03  0.00000000000E+00 0. -1.
        -11    1    3    3    0    0 -0.41461647992E+03  0.22509900151E+02  0.19204369901E+04  0.19648134146E+04  0.00000000000E+00 0.  1.
         22    1    1    2    0    0  0.50446776368E+03 -0.70981661065E+02 -0.15227343328E+03  0.53170792667E+03  0.00000000000E+00 0.  1.
<mgrwt>
<rscale>  0 0.19786319E+04</rscale>
<asrwt>0</asrwt>
<pdfrwt beam="1">  1        2 0.40784138E+00 0.19786319E+04</pdfrwt>
<pdfrwt beam="2">  1       -2 0.56800480E-01 0.19786319E+04</pdfrwt>
<totfact> 0.76900419E+00</totfact>
</mgrwt>
</event>
<event>
 6    1  0.1817112E-005  0.7399867E+03  0.7818608E-02  0.9651192E-01
         -2   -1    0    0    0  501 -0.00000000000E+00  0.00000000000E+00  0.30058640606E+03  0.30058640606E+03  0.00000000000E+00 0.  1.
          2   -1    0    0  501    0  0.00000000000E+00 -0.00000000000E+00 -0.45542670278E+03  0.45542670278E+03  0.00000000000E+00 0. -1.
         23    2    1    2    0    0 -0.29682921819E+03 -0.54084762802E+01  0.13856970517E+03  0.33860890953E+03  0.85542936808E+02 0.  0.
         11    1    3    3    0    0 -0.85827798710E+02 -0.97369504219E+00  0.85151543690E+02  0.12090551892E+03  0.00000000000E+00 0.  1.
        -11    1    3    3    0    0 -0.21100141948E+03 -0.44347812380E+01  0.53418161481E+02  0.21770339061E+03  0.00000000000E+00 0. -1.
         22    1    1    2    0    0  0.29682921819E+03  0.54084762802E+01 -0.29341000190E+03  0.41740419931E+03  0.00000000000E+00 0. -1.
<mgrwt>
<rscale>  0 0.73998669E+03</rscale>
<asrwt>0</asrwt>
<pdfrwt beam="1">  1        2 0.70065646E-01 0.73998669E+03</pdfrwt>
<pdfrwt beam="2">  1       -2 0.46244063E-01 0.73998669E+03</pdfrwt>
<totfact> 0.30664517E+02</totfact>
</mgrwt>
</event>
<event>
 6    1  0.1817112E-005  0.1539658E+04  0.7818608E-02  0.8858501E-01
          2   -1    0    0  501    0  0.00000000000E+00  0.00000000000E+00  0.20794324812E+04  0.20794324812E+04  0.00000000000E+00 0. -1.
         -2   -1    0    0    0  501 -0.00000000000E+00 -0.00000000000E+00 -0.28499924368E+03  0.28499924368E+03  0.00000000000E+00 0.  1.
         23    2    1    2    0    0 -0.37570937233E+03  0.63110361090E+03  0.56019438602E+03  0.92818841586E+03  0.90921312543E+02 0.  0.
         11    1    3    3    0    0 -0.23892276626E+03  0.37154729396E+03  0.38835087401E+03  0.58817334284E+03  0.00000000000E+00 0. -1.
        -11    1    3    3    0    0 -0.13678660607E+03  0.25955631694E+03  0.17184351201E+03  0.34001507302E+03  0.00000000000E+00 0.  1.
         22    1    1    2    0    0  0.37570937233E+03 -0.63110361090E+03  0.12342388515E+04  0.14362433090E+04  0.00000000000E+00 0. -1.
<mgrwt>
<rscale>  0 0.15396580E+04</rscale>
<asrwt>0</asrwt>
<pdfrwt beam="1">  1        2 0.31991268E+00 0.15396580E+04</pdfrwt>
<pdfrwt beam="2">  1       -2 0.43846039E-01 0.15396580E+04</pdfrwt>
<totfact> 0.28684636E+01</totfact>
</mgrwt>
</event>
<event>
 6    1  0.1817112E-005  0.1324003E+04  0.7818608E-02  0.9010745E-01
         -2   -1    0    0    0  501 -0.00000000000E+00  0.00000000000E+00  0.17700495456E+04  0.17700495456E+04  0.00000000000E+00 0.  1.
          2   -1    0    0  501    0  0.00000000000E+00 -0.00000000000E+00 -0.24758950816E+03  0.24758950816E+03  0.00000000000E+00 0. -1.
         23    2    1    2    0    0  0.31593549250E+03 -0.39037591152E+03  0.14147693087E+04  0.15040186874E+04  0.91057275001E+02 0.  0.
         11    1    3    3    0    0  0.94109489842E+02 -0.14642276753E+03  0.60928710746E+03  0.63366158337E+03  0.00000000000E+00 0. -1.
        -11    1    3    3    0    0  0.22182600265E+03 -0.24395314399E+03  0.80548220127E+03  0.87035710399E+03  0.00000000000E+00 0.  1.
         22    1    1    2    0    0 -0.31593549250E+03  0.39037591152E+03  0.10769072870E+03  0.51362036638E+03  0.00000000000E+00 0. -1.
<mgrwt>
<rscale>  0 0.13240026E+04</rscale>
<asrwt>0</asrwt>
<pdfrwt beam="1">  1        2 0.38090695E-01 0.13240026E+04</pdfrwt>
<pdfrwt beam="2">  1       -2 0.27231531E+00 0.13240026E+04</pdfrwt>
<totfact> 0.62675333E+00</totfact>
</mgrwt>
</event>
<event>
 6    1  0.1817112E-005  0.1434206E+04  0.7818608E-02  0.8929424E-01
         -4   -1    0    0    0  501 -0.00000000000E+00  0.00000000000E+00  0.12036205178E+04  0.12036205178E+04  0.00000000000E+00 0.  1.
          4   -1    0    0  501    0  0.00000000000E+00 -0.00000000000E+00 -0.42724162044E+03  0.42724162044E+03  0.00000000000E+00 0. -1.
         23    2    1    2    0    0  0.37197662001E+03 -0.51205704010E+03  0.76619357775E+03  0.99787496702E+03  0.90182221421E+02 0.  0.
         13    1    3    3    0    0  0.33469794092E+03 -0.49604935041E+03  0.70945615275E+03  0.92812483125E+03  0.00000000000E+00 0.  1.
        -13    1    3    3    0    0  0.37278679096E+02 -0.16007689682E+02  0.56737424999E+02  0.69750135768E+02  0.00000000000E+00 0. -1.
         22    1    1    2    0    0 -0.37197662001E+03  0.51205704010E+03  0.10185319573E+02  0.63298717118E+03  0.00000000000E+00 0. -1.
<mgrwt>
<rscale>  0 0.14342061E+04</rscale>
<asrwt>0</asrwt>
<pdfrwt beam="1">  1        4 0.65729480E-01 0.14342061E+04</pdfrwt>
<pdfrwt beam="2">  1       -4 0.18517239E+00 0.14342061E+04</pdfrwt>
<totfact> 0.69115970E-01</totfact>
</mgrwt>
</event>
<event>
 6    1  0.1817112E-005  0.8141303E+03  0.7818608E-02  0.9539786E-01
          2   -1    0    0  501    0  0.00000000000E+00  0.00000000000E+00  0.21960722717E+04  0.21960722717E+04  0.00000000000E+00 0. -1.
         -2   -1    0    0    0  501 -0.00000000000E+00 -0.00000000000E+00 -0.75453825649E+02  0.75453825649E+02  0.00000000000E+00 0.  1.
         23    2    1    2    0    0  0.32176210887E+02 -0.24224887177E+03  0.19642155715E+04  0.19813852977E+04  0.89582713034E+02 0.  0.
         13    1    3    3    0    0  0.59257437419E+01 -0.22298183159E+03  0.15609466732E+04  0.15768038966E+04  0.00000000000E+00 0. -1.
        -13    1    3    3    0    0  0.26250467145E+02 -0.19267040182E+02  0.40326889826E+03  0.40458140117E+03  0.00000000000E+00 0.  1.
         22    1    1    2    0    0 -0.32176210887E+02  0.24224887177E+03  0.15640287458E+03  0.29014079961E+03  0.00000000000E+00 0.  1.
<mgrwt>
<rscale>  0 0.81413034E+03</rscale>
<asrwt>0</asrwt>
<pdfrwt beam="1">  1        2 0.33785722E+00 0.81413034E+03</pdfrwt>
<pdfrwt beam="2">  1       -2 0.11608283E-01 0.81413034E+03</pdfrwt>
<totfact> 0.28554920E+02</totfact>
</mgrwt>
</event>
<event>
 6    1  0.1817112E-005  0.4437879E+04  0.7818608E-02  0.7921603E-01
          2   -1    0    0  501    0  0.00000000000E+00  0.00000000000E+00  0.23977837765E+04  0.23977837765E+04  0.00000000000E+00 0. -1.
         -2   -1    0    0    0  501 -0.00000000000E+00 -0.00000000000E+00 -0.20534351642E+04  0.20534351642E+04  0.00000000000E+00 0.  1.
         23    2    1    2    0    0 -0.12649548586E+04  0.45205867299E+03  0.19425166960E+04  0.23634907348E+04  0.90826766526E+02 0.  0.
         11    1    3    3    0    0 -0.75733500749E+02  0.50275554822E+01  0.11108217879E+03  0.13453657456E+03  0.00000000000E+00 0. -1.
        -11    1    3    3    0    0 -0.11892213578E+04  0.44703111750E+03  0.18314345172E+04  0.22289541603E+04  0.00000000000E+00 0.  1.
         22    1    1    2    0    0  0.12649548586E+04 -0.45205867299E+03 -0.15981680836E+04  0.20877282058E+04  0.00000000000E+00 0.  1.
<mgrwt>
<rscale>  0 0.44378795E+04</rscale>
<asrwt>0</asrwt>
<pdfrwt beam="1">  1        2 0.36888981E+00 0.44378795E+04</pdfrwt>
<pdfrwt beam="2">  1       -2 0.31591310E+00 0.44378795E+04</pdfrwt>
<totfact> 0.77049759E-02</totfact>
</mgrwt>
</event>
<event>
 6    1  0.1817112E-005  0.1712039E+04  0.7818608E-02  0.8754528E-01
         -1   -1    0    0    0  501 -0.00000000000E+00  0.00000000000E+00  0.92538980780E+03  0.92538980780E+03  0.00000000000E+00 0.  1.
          1   -1    0    0  501    0  0.00000000000E+00 -0.00000000000E+00 -0.79184945406E+03  0.79184945406E+03  0.00000000000E+00 0. -1.
         23    2    1    2    0    0 -0.34017610141E+03 -0.56245526074E+03 -0.47924320928E+03  0.81858504838E+03  0.91278296912E+02 0.  0.
         13    1    3    3    0    0 -0.17791027726E+03 -0.23354462608E+03 -0.25374342054E+03  0.38804752620E+03  0.00000000000E+00 0. -1.
        -13    1    3    3    0    0 -0.16226582415E+03 -0.32891063466E+03 -0.22549978873E+03  0.43053752217E+03  0.00000000000E+00 0.  1.
         22    1    1    2    0    0  0.34017610141E+03  0.56245526074E+03  0.61278356302E+03  0.89865421348E+03  0.00000000000E+00 0.  1.
<mgrwt>
<rscale>  0 0.17120390E+04</rscale>
<asrwt>0</asrwt>
<pdfrwt beam="1">  1        1 0.12182299E+00 0.17120390E+04</pdfrwt>
<pdfrwt beam="2">  1       -1 0.14236766E+00 0.17120390E+04</pdfrwt>
<totfact> 0.85709112E+00</totfact>
</mgrwt>
</event>
<event>
 6    1  0.1817112E-005  0.1392462E+04  0.7818608E-02  0.8959293E-01
         -2   -1    0    0    0  501 -0.00000000000E+00  0.00000000000E+00  0.41802962710E+03  0.41802962710E+03  0.00000000000E+00 0. -1.
          2   -1    0    0  501    0  0.00000000000E+00 -0.00000000000E+00 -0.11595769220E+04  0.11595769220E+04  0.00000000000E+00 0.  1.
         23    2    1    2    0    0  0.40588476102E+03  0.89339751278E+02  0.25590905657E+03  0.49703114521E+03  0.93949367695E+02 0.  0.
         11    1    3    3    0    0  0.48351338778E+02  0.34948768764E+02  0.64474414986E+02  0.87842009242E+02  0.00000000000E+00 0.  1.
        -11    1    3    3    0    0  0.35753342224E+03  0.54390982513E+02  0.19143464158E+03  0.40918913597E+03  0.00000000000E+00 0. -1.
         22    1    1    2    0    0 -0.40588476102E+03 -0.89339751278E+02 -0.99745635146E+03  0.10805754039E+04  0.00000000000E+00 0.  1.
<mgrwt>
<rscale>  0 0.13924619E+04</rscale>
<asrwt>0</asrwt>
<pdfrwt beam="1">  1        2 0.17839645E+00 0.13924619E+04</pdfrwt>
<pdfrwt beam="2">  1       -2 0.64312250E-01 0.13924619E+04</pdfrwt>
<totfact> 0.43578081E+01</totfact>
</mgrwt>
</event>
<event>
 6    1  0.1817112E-005  0.1287006E+04  0.7818608E-02  0.9039934E-01
         -2   -1    0    0    0  501 -0.00000000000E+00  0.00000000000E+00  0.39466603050E+03  0.39466603050E+03  0.00000000000E+00 0.  1.
          2   -1    0    0  501    0  0.00000000000E+00 -0.00000000000E+00 -0.10492311842E+04  0.10492311842E+04  0.00000000000E+00 0. -1.
         23    2    1    2    0    0  0.45119742425E+03 -0.14687652612E+03 -0.81123055616E+03  0.94420142935E+03  0.90936760317E+02 0.  0.
         13    1    3    3    0    0  0.31132178628E+03 -0.57003392744E+02 -0.51386551822E+03  0.60351339025E+03  0.00000000000E+00 0.  1.
        -13    1    3    3    0    0  0.13987563797E+03 -0.89873133376E+02 -0.29736503794E+03  0.34068803910E+03  0.00000000000E+00 0. -1.
         22    1    1    2    0    0 -0.45119742425E+03  0.14687652612E+03  0.15666540244E+03  0.49969578535E+03  0.00000000000E+00 0.  1.
<mgrwt>
<rscale>  0 0.12870057E+04</rscale>
<asrwt>0</asrwt>
<pdfrwt beam="1">  1        2 0.16142018E+00 0.12870057E+04</pdfrwt>
<pdfrwt beam="2">  1       -2 0.60717851E-01 0.12870057E+04</pdfrwt>
<totfact> 0.58066752E+01</totfact>
</mgrwt>
</event>
<event>
 6    1  0.1817112E-005  0.2348784E+04  0.7818608E-02  0.8458931E-01
         -2   -1    0    0    0  501 -0.00000000000E+00  0.00000000000E+00  0.85011464799E+03  0.85011464799E+03  0.00000000000E+00 0.  1.
          2   -1    0    0  501    0  0.00000000000E+00 -0.00000000000E+00 -0.16223660060E+04  0.16223660060E+04  0.00000000000E+00 0. -1.
         23    2    1    2    0    0  0.83143207222E+03 -0.42192930731E+03  0.36188619849E+03  0.10042941440E+04  0.91331680725E+02 0.  0.
         11    1    3    3    0    0  0.75556529328E+03 -0.35221183261E+03  0.31611296401E+03  0.89154892936E+03  0.00000000000E+00 0.  1.
        -11    1    3    3    0    0  0.75866778949E+02 -0.69717474697E+02  0.45773234484E+02  0.11274521463E+03  0.00000000000E+00 0. -1.
         22    1    1    2    0    0 -0.83143207222E+03  0.42192930731E+03 -0.11341375565E+04  0.14681865100E+04  0.00000000000E+00 0. -1.
<mgrwt>
<rscale>  0 0.23487845E+04</rscale>
<asrwt>0</asrwt>
<pdfrwt beam="1">  1        2 0.24959477E+00 0.23487845E+04</pdfrwt>
<pdfrwt beam="2">  1       -2 0.13078687E+00 0.23487845E+04</pdfrwt>
<totfact> 0.41854189E+00</totfact>
</mgrwt>
</event>
<event>
 6    1  0.1817112E-005  0.2721405E+04  0.7818608E-02  0.8328093E-01
          2   -1    0    0  501    0  0.00000000000E+00  0.00000000000E+00  0.82359708800E+03  0.82359708800E+03  0.00000000000E+00 0. -1.
         -2   -1    0    0    0  501 -0.00000000000E+00 -0.00000000000E+00 -0.22480791656E+04  0.22480791656E+04  0.00000000000E+00 0.  1.
         23    2    1    2    0    0 -0.10232017515E+04 -0.77123530828E+03 -0.12248599307E+04  0.17749130807E+04  0.91043228763E+02 0.  0.
         13    1    3    3    0    0 -0.57753346110E+03 -0.37887634181E+03 -0.66610778419E+03  0.95957894997E+03  0.00000000000E+00 0. -1.
        -13    1    3    3    0    0 -0.44566829036E+03 -0.39235896647E+03 -0.55875214648E+03  0.81533413077E+03  0.00000000000E+00 0.  1.
         22    1    1    2    0    0  0.10232017515E+04  0.77123530828E+03 -0.19962214691E+03  0.12967631729E+04  0.00000000000E+00 0. -1.
<mgrwt>
<rscale>  0 0.27214051E+04</rscale>
<asrwt>0</asrwt>
<pdfrwt beam="1">  1        2 0.12670724E+00 0.27214051E+04</pdfrwt>
<pdfrwt beam="2">  1       -2 0.34585834E+00 0.27214051E+04</pdfrwt>
<totfact> 0.47936585E-01</totfact>
</mgrwt>
</event>
<event>
 6    1  0.1817112E-005  0.3356131E+04  0.7818608E-02  0.8148758E-01
          2   -1    0    0  501    0  0.00000000000E+00  0.00000000000E+00  0.23261705152E+04  0.23261705152E+04  0.00000000000E+00 0. -1.
         -2   -1    0    0    0  501 -0.00000000000E+00 -0.00000000000E+00 -0.12105319770E+04  0.12105319770E+04  0.00000000000E+00 0.  1.
         23    2    1    2    0    0 -0.12713403511E+03  0.71347057664E+03  0.21517489954E+04  0.22722942487E+04  0.89967142734E+02 0.  0.
         11    1    3    3    0    0 -0.12301127391E+02  0.29706197289E+02  0.16325322115E+03  0.16638927281E+03  0.00000000000E+00 0. -1.
        -11    1    3    3    0    0 -0.11483290772E+03  0.68376437935E+03  0.19884957742E+04  0.21059049759E+04  0.00000000000E+00 0.  1.
         22    1    1    2    0    0  0.12713403511E+03 -0.71347057664E+03 -0.10361104572E+04  0.12644082435E+04  0.00000000000E+00 0.  1.
<mgrwt>
<rscale>  0 0.33561310E+04</rscale>
<asrwt>0</asrwt>
<pdfrwt beam="1">  1        2 0.35787239E+00 0.33561310E+04</pdfrwt>
<pdfrwt beam="2">  1       -2 0.18623569E+00 0.33561310E+04</pdfrwt>
<totfact> 0.59856091E-01</totfact>
</mgrwt>
</event>
<event>
 6    1  0.1817112E-005  0.1553966E+04  0.7818608E-02  0.8849338E-01
          2   -1    0    0  501    0  0.00000000000E+00  0.00000000000E+00  0.19348613663E+04  0.19348613663E+04  0.00000000000E+00 0.  1.
         -2   -1    0    0    0  501 -0.00000000000E+00 -0.00000000000E+00 -0.31201341813E+03  0.31201341813E+03  0.00000000000E+00 0. -1.
         23    2    1    2    0    0  0.47585766713E+03  0.19203218398E+03  0.16527909107E+04  0.17328578003E+04  0.88099275695E+02 0.  0.
         11    1    3    3    0    0  0.29222068515E+03  0.12710505049E+03  0.88077027338E+03  0.93664555578E+03  0.00000000000E+00 0. -1.
        -11    1    3    3    0    0  0.18363698198E+03  0.64927133487E+02  0.77202063732E+03  0.79621224448E+03  0.00000000000E+00 0.  1.
         22    1    1    2    0    0 -0.47585766713E+03 -0.19203218398E+03 -0.29942962485E+02  0.51401698421E+03  0.00000000000E+00 0. -1.
<mgrwt>
<rscale>  0 0.15539662E+04</rscale>
<asrwt>0</asrwt>
<pdfrwt beam="1">  1        2 0.29767097E+00 0.15539662E+04</pdfrwt>
<pdfrwt beam="2">  1       -2 0.48002065E-01 0.15539662E+04</pdfrwt>
<totfact> 0.28738875E+01</totfact>
</mgrwt>
</event>
<event>
 6    1  0.1817112E-005  0.1323608E+04  0.7818608E-02  0.9011050E-01
          2   -1    0    0  501    0  0.00000000000E+00  0.00000000000E+00  0.11995519265E+04  0.11995519265E+04  0.00000000000E+00 0. -1.
         -2   -1    0    0    0  501 -0.00000000000E+00 -0.00000000000E+00 -0.36512349439E+03  0.36512349439E+03  0.00000000000E+00 0.  1.
         23    2    1    2    0    0  0.40959516960E+03 -0.47152826765E+03  0.17103836208E+03  0.65352587489E+03  0.87947926043E+02 0.  0.
         11    1    3    3    0    0  0.41599167724E+02 -0.76425963048E+02 -0.44814762217E+00  0.87015052832E+02  0.00000000000E+00 0.  1.
        -11    1    3    3    0    0  0.36799600188E+03 -0.39510230460E+03  0.17148650970E+03  0.56651082206E+03  0.00000000000E+00 0. -1.
         22    1    1    2    0    0 -0.40959516960E+03  0.47152826765E+03  0.66339007003E+03  0.91114954600E+03  0.00000000000E+00 0. -1.
<mgrwt>
<rscale>  0 0.13236081E+04</rscale>
<asrwt>0</asrwt>
<pdfrwt beam="1">  1        2 0.18454645E+00 0.13236081E+04</pdfrwt>
<pdfrwt beam="2">  1       -2 0.56172846E-01 0.13236081E+04</pdfrwt>
<totfact> 0.55173186E+01</totfact>
</mgrwt>
</event>
<event>
 6    1  0.1817112E-005  0.1031592E+04  0.7818608E-02  0.9274558E-01
          2   -1    0    0  501    0  0.00000000000E+00  0.00000000000E+00  0.11249128250E+04  0.11249128250E+04  0.00000000000E+00 0. -1.
         -2   -1    0    0    0  501 -0.00000000000E+00 -0.00000000000E+00 -0.23650325921E+03  0.23650325921E+03  0.00000000000E+00 0.  1.
         23    2    1    2    0    0 -0.48068076055E+03  0.17688926507E+03  0.44505393071E+03  0.68398857899E+03  0.86160137478E+02 0.  0.
         11    1    3    3    0    0 -0.32275202473E+03  0.10452719060E+03  0.24177321700E+03  0.41659223648E+03  0.00000000000E+00 0. -1.
        -11    1    3    3    0    0 -0.15792873583E+03  0.72362074467E+02  0.20328071371E+03  0.26739634251E+03  0.00000000000E+00 0.  1.
         22    1    1    2    0    0  0.48068076055E+03 -0.17688926507E+03  0.44335563507E+03  0.67742750521E+03  0.00000000000E+00 0.  1.
<mgrwt>
<rscale>  0 0.10315921E+04</rscale>
<asrwt>0</asrwt>
<pdfrwt beam="1">  1        2 0.17306351E+00 0.10315921E+04</pdfrwt>
<pdfrwt beam="2">  1       -2 0.36385117E-01 0.10315921E+04</pdfrwt>
<totfact> 0.14887347E+02</totfact>
</mgrwt>
</event>
<event>
 6    1  0.1817112E-005  0.6299777E+03  0.7818608E-02  0.9845092E-01
          2   -1    0    0  501    0  0.00000000000E+00  0.00000000000E+00  0.10173538790E+04  0.10173538790E+04  0.00000000000E+00 0. -1.
         -2   -1    0    0    0  501 -0.00000000000E+00 -0.00000000000E+00 -0.97525526212E+02  0.97525526212E+02  0.00000000000E+00 0.  1.
         23    2    1    2    0    0 -0.15003173969E+03 -0.72991891060E+02  0.92838517212E+03  0.94781487209E+03  0.92825992464E+02 0.  0.
         11    1    3    3    0    0 -0.11168573752E+03 -0.57918486927E+02  0.43825129893E+03  0.45595225200E+03  0.00000000000E+00 0. -1.
        -11    1    3    3    0    0 -0.38346002167E+02 -0.15073404133E+02  0.49013387319E+03  0.49186262009E+03  0.00000000000E+00 0.  1.
         22    1    1    2    0    0  0.15003173969E+03  0.72991891060E+02 -0.85568193183E+01  0.16706453313E+03  0.00000000000E+00 0.  1.
<mgrwt>
<rscale>  0 0.62997769E+03</rscale>
<asrwt>0</asrwt>
<pdfrwt beam="1">  1        2 0.15651597E+00 0.62997769E+03</pdfrwt>
<pdfrwt beam="2">  1       -2 0.15003928E-01 0.62997769E+03</pdfrwt>
<totfact> 0.86677345E+02</totfact>
</mgrwt>
</event>
<event>
 6    1  0.1817112E-005  0.2858749E+04  0.7818608E-02  0.8285258E-01
          2   -1    0    0  501    0  0.00000000000E+00  0.00000000000E+00  0.76346565786E+03  0.76346565786E+03  0.00000000000E+00 0. -1.
         -2   -1    0    0    0  501 -0.00000000000E+00 -0.00000000000E+00 -0.26761014298E+04  0.26761014298E+04  0.00000000000E+00 0.  1.
         23    2    1    2    0    0  0.12682646095E+04 -0.65580591981E+03 -0.93505855273E+03  0.17091816555E+04  0.91601911229E+02 0.  0.
         13    1    3    3    0    0  0.41030964046E+03 -0.26099822979E+03 -0.31844887787E+03  0.58127770027E+03  0.00000000000E+00 0. -1.
        -13    1    3    3    0    0  0.85795496909E+03 -0.39480769002E+03 -0.61660967486E+03  0.11279039552E+04  0.00000000000E+00 0.  1.
         22    1    1    2    0    0 -0.12682646095E+04  0.65580591981E+03 -0.97757721916E+03  0.17303854321E+04  0.00000000000E+00 0.  1.
<mgrwt>
<rscale>  0 0.28587491E+04</rscale>
<asrwt>0</asrwt>
<pdfrwt beam="1">  1        2 0.11745626E+00 0.28587491E+04</pdfrwt>
<pdfrwt beam="2">  1       -2 0.41170790E+00 0.28587491E+04</pdfrwt>
<totfact> 0.19718582E-01</totfact>
</mgrwt>
</event>
<event>
 6    1  0.1817112E-005  0.1886028E+04  0.7818608E-02  0.8661843E-01
         -1   -1    0    0    0  501 -0.00000000000E+00  0.00000000000E+00  0.22508074725E+03  0.22508074725E+03  0.00000000000E+00 0.  1.
          1   -1    0    0  501    0  0.00000000000E+00 -0.00000000000E+00 -0.39509174535E+04  0.39509174535E+04  0.00000000000E+00 0. -1.
         23    2    1    2    0    0 -0.41479271365E+03 -0.33599250962E+03 -0.35826331970E+04  0.36233217974E+04  0.90863969574E+02 0.  0.
         13    1    3    3    0    0 -0.42074997578E+02 -0.53072766169E+02 -0.30317125531E+03  0.31064422412E+03  0.00000000000E+00 0.  1.
        -13    1    3    3    0    0 -0.37271771607E+03 -0.28291974345E+03 -0.32794619417E+04  0.33126775733E+04  0.00000000000E+00 0. -1.
         22    1    1    2    0    0  0.41479271365E+03  0.33599250962E+03 -0.14320350922E+03  0.55267640339E+03  0.00000000000E+00 0.  1.
<mgrwt>
<rscale>  0 0.18860281E+04</rscale>
<asrwt>0</asrwt>
<pdfrwt beam="1">  1        1 0.60783341E+00 0.18860281E+04</pdfrwt>
<pdfrwt beam="2">  1       -1 0.34627810E-01 0.18860281E+04</pdfrwt>
<totfact> 0.79238878E-01</totfact>
</mgrwt>
</event>
<event>
 6    1  0.1817112E-005  0.1748947E+04  0.7818608E-02  0.8733930E-01
         -2   -1    0    0    0  501 -0.00000000000E+00  0.00000000000E+00  0.26482254924E+03  0.26482254924E+03  0.00000000000E+00 0.  1.
          2   -1    0    0  501    0  0.00000000000E+00 -0.00000000000E+00 -0.28876102027E+04  0.28876102027E+04  0.00000000000E+00 0. -1.
         23    2    1    2    0    0  0.85184743702E+03  0.36792927750E+02 -0.97893005604E+03  0.13006051206E+04  0.79195010550E+02 0.  0.
         11    1    3    3    0    0  0.31449341123E+03  0.34399754171E+01 -0.30603652442E+03  0.43883515518E+03  0.00000000000E+00 0. -1.
        -11    1    3    3    0    0  0.53735402578E+03  0.33352952333E+02 -0.67289353162E+03  0.86176996545E+03  0.00000000000E+00 0.  1.
         22    1    1    2    0    0 -0.85184743702E+03 -0.36792927750E+02 -0.16438575974E+04  0.18518276313E+04  0.00000000000E+00 0.  1.
<mgrwt>
<rscale>  0 0.17489474E+04</rscale>
<asrwt>0</asrwt>
<pdfrwt beam="1">  1        2 0.44424770E+00 0.17489474E+04</pdfrwt>
<pdfrwt beam="2">  1       -2 0.40741932E-01 0.17489474E+04</pdfrwt>
<totfact> 0.11095425E+01</totfact>
</mgrwt>
</event>
<event>
 6    1  0.1817112E-005  0.4557595E+04  0.7818608E-02  0.7900631E-01
         -2   -1    0    0    0  501 -0.00000000000E+00  0.00000000000E+00  0.25031491968E+04  0.25031491968E+04  0.00000000000E+00 0.  1.
          2   -1    0    0  501    0  0.00000000000E+00 -0.00000000000E+00 -0.20745538607E+04  0.20745538607E+04  0.00000000000E+00 0. -1.
         23    2    1    2    0    0  0.15449336602E+04 -0.14702618515E+04  0.10180908562E+04  0.23650135415E+04  0.91050169347E+02 0.  0.
         11    1    3    3    0    0  0.12221804526E+04 -0.12066674750E+04  0.79978244299E+03  0.18945773698E+04  0.00000000000E+00 0. -1.
        -11    1    3    3    0    0  0.32275320759E+03 -0.26359437651E+03  0.21830841320E+03  0.47043617166E+03  0.00000000000E+00 0.  1.
         22    1    1    2    0    0 -0.15449336602E+04  0.14702618515E+04 -0.58949552010E+03  0.22126895161E+04  0.00000000000E+00 0. -1.
<mgrwt>
<rscale>  0 0.45575949E+04</rscale>
<asrwt>0</asrwt>
<pdfrwt beam="1">  1        2 0.31916213E+00 0.45575949E+04</pdfrwt>
<pdfrwt beam="2">  1       -2 0.38509988E+00 0.45575949E+04</pdfrwt>
<totfact> 0.42497150E-02</totfact>
</mgrwt>
</event>
<event>
 6    1  0.1817112E-005  0.2935003E+04  0.7818608E-02  0.8262539E-01
         -2   -1    0    0    0  501 -0.00000000000E+00  0.00000000000E+00  0.10087316055E+04  0.10087316055E+04  0.00000000000E+00 0. -1.
          2   -1    0    0  501    0  0.00000000000E+00 -0.00000000000E+00 -0.21349194023E+04  0.21349194023E+04  0.00000000000E+00 0.  1.
         23    2    1    2    0    0 -0.40755534100E+03 -0.49869486343E+03  0.84700283978E+03  0.10680115375E+04  0.91852657928E+02 0.  0.
         11    1    3    3    0    0 -0.23772253671E+03 -0.35940448796E+03  0.56343562332E+03  0.70932594204E+03  0.00000000000E+00 0.  1.
        -11    1    3    3    0    0 -0.16983280430E+03 -0.13929037547E+03  0.28356721646E+03  0.35868559542E+03  0.00000000000E+00 0. -1.
         22    1    1    2    0    0  0.40755534100E+03  0.49869486343E+03 -0.19731906366E+04  0.20756394704E+04  0.00000000000E+00 0.  1.
<mgrwt>
<rscale>  0 0.29350030E+04</rscale>
<asrwt>0</asrwt>
<pdfrwt beam="1">  1        2 0.32844914E+00 0.29350030E+04</pdfrwt>
<pdfrwt beam="2">  1       -2 0.15518948E+00 0.29350030E+04</pdfrwt>
<totfact> 0.13227621E+00</totfact>
</mgrwt>
</event>
<event>
 6    1  0.1817112E-005  0.2630366E+04  0.7818608E-02  0.8357959E-01
          2   -1    0    0  501    0  0.00000000000E+00  0.00000000000E+00  0.18006491805E+04  0.18006491805E+04  0.00000000000E+00 0. -1.
         -2   -1    0    0    0  501 -0.00000000000E+00 -0.00000000000E+00 -0.96060136220E+03  0.96060136220E+03  0.00000000000E+00 0.  1.
         23    2    1    2    0    0  0.66591595200E+03  0.10437373633E+04  0.88147454630E+03  0.15224818345E+04  0.90121151671E+02 0.  0.
         13    1    3    3    0    0  0.49390381731E+03  0.81794402768E+03  0.64244533254E+03  0.11513945538E+04  0.00000000000E+00 0. -1.
        -13    1    3    3    0    0  0.17201213469E+03  0.22579333558E+03  0.23902921376E+03  0.37108728071E+03  0.00000000000E+00 0.  1.
         22    1    1    2    0    0 -0.66591595200E+03 -0.10437373633E+04 -0.41426728027E+02  0.12387687082E+04  0.00000000000E+00 0.  1.
<mgrwt>
<rscale>  0 0.26303658E+04</rscale>
<asrwt>0</asrwt>
<pdfrwt beam="1">  1        2 0.27702295E+00 0.26303658E+04</pdfrwt>
<pdfrwt beam="2">  1       -2 0.14778482E+00 0.26303658E+04</pdfrwt>
<totfact> 0.23711869E+00</totfact>
</mgrwt>
</event>
<event>
 6    1  0.1817112E-005  0.7573129E+03  0.7818608E-02  0.9623947E-01
          2   -1    0    0  501    0  0.00000000000E+00  0.00000000000E+00  0.33127356548E+04  0.33127356548E+04  0.00000000000E+00 0.  1.
         -2   -1    0    0    0  501 -0.00000000000E+00 -0.00000000000E+00 -0.43281665984E+02  0.43281665984E+02  0.00000000000E+00 0. -1.
         23    2    1    2    0    0 -0.22996338515E+03 -0.22184453389E+03  0.25129756547E+04  0.25348245142E+04  0.90501494702E+02 0.  0.
         13    1    3    3    0    0 -0.24172570747E+02 -0.55730723777E+02  0.70438700474E+03  0.70700161188E+03  0.00000000000E+00 0. -1.
        -13    1    3    3    0    0 -0.20579081441E+03 -0.16611381011E+03  0.18085886500E+04  0.18278229023E+04  0.00000000000E+00 0.  1.
         22    1    1    2    0    0  0.22996338515E+03  0.22184453389E+03  0.75647833411E+03  0.82119280666E+03  0.00000000000E+00 0.  1.
<mgrwt>
<rscale>  0 0.75731293E+03</rscale>
<asrwt>0</asrwt>
<pdfrwt beam="1">  1        2 0.50965144E+00 0.75731293E+03</pdfrwt>
<pdfrwt beam="2">  1       -2 0.66587205E-02 0.75731293E+03</pdfrwt>
<totfact> 0.15354136E+02</totfact>
</mgrwt>
</event>
<event>
 6    1  0.1817112E-005  0.1951174E+04  0.7818608E-02  0.8629795E-01
         -2   -1    0    0    0  501 -0.00000000000E+00  0.00000000000E+00  0.48710382825E+03  0.48710382825E+03  0.00000000000E+00 0.  1.
          2   -1    0    0  501    0  0.00000000000E+00 -0.00000000000E+00 -0.19539370273E+04  0.19539370273E+04  0.00000000000E+00 0. -1.
         23    2    1    2    0    0 -0.61142149585E+03  0.75282082700E+03 -0.63050277914E+03  0.11604066320E+04  0.91838739300E+02 0.  0.
         13    1    3    3    0    0 -0.56906262854E+02  0.11973473694E+03 -0.87058737109E+02  0.15859998010E+03  0.00000000000E+00 0.  1.
        -13    1    3    3    0    0 -0.55451523300E+03  0.63308609006E+03 -0.54344404203E+03  0.10018066519E+04  0.00000000000E+00 0. -1.
         22    1    1    2    0    0  0.61142149585E+03 -0.75282082700E+03 -0.83633041992E+03  0.12806342235E+04  0.00000000000E+00 0.  1.
<mgrwt>
<rscale>  0 0.19511742E+04</rscale>
<asrwt>0</asrwt>
<pdfrwt beam="1">  1        2 0.30060570E+00 0.19511742E+04</pdfrwt>
<pdfrwt beam="2">  1       -2 0.74939050E-01 0.19511742E+04</pdfrwt>
<totfact> 0.10573753E+01</totfact>
</mgrwt>
</event>
<event>
 6    1  0.1817112E-005  0.3328590E+04  0.7818608E-02  0.8155658E-01
         -2   -1    0    0    0  501 -0.00000000000E+00  0.00000000000E+00  0.31472320537E+04  0.31472320537E+04  0.00000000000E+00 0.  1.
          2   -1    0    0  501    0  0.00000000000E+00 -0.00000000000E+00 -0.88009989747E+03  0.88009989747E+03  0.00000000000E+00 0. -1.
         23    2    1    2    0    0  0.63725597205E+03 -0.78140188018E+03  0.27344247491E+04  0.29160055186E+04  0.96568130793E+02 0.  0.
         11    1    3    3    0    0  0.39419331426E+03 -0.55308150933E+03  0.18027416102E+04  0.19264383816E+04  0.00000000000E+00 0.  1.
        -11    1    3    3    0    0  0.24306265780E+03 -0.22832037085E+03  0.93168313886E+03  0.98956713698E+03  0.00000000000E+00 0. -1.
         22    1    1    2    0    0 -0.63725597205E+03  0.78140188018E+03 -0.46729259289E+03  0.11113264325E+04  0.00000000000E+00 0. -1.
<mgrwt>
<rscale>  0 0.33285905E+04</rscale>
<asrwt>0</asrwt>
<pdfrwt beam="1">  1        2 0.13539999E+00 0.33285905E+04</pdfrwt>
<pdfrwt beam="2">  1       -2 0.48418954E+00 0.33285905E+04</pdfrwt>
<totfact> 0.52230538E-02</totfact>
</mgrwt>
</event>
<event>
 6    1  0.1817112E-005  0.2943774E+04  0.7818608E-02  0.8259971E-01
         -2   -1    0    0    0  501 -0.00000000000E+00  0.00000000000E+00  0.13595233199E+04  0.13595233199E+04  0.00000000000E+00 0.  1.
          2   -1    0    0  501    0  0.00000000000E+00 -0.00000000000E+00 -0.15935379384E+04  0.15935379384E+04  0.00000000000E+00 0. -1.
         23    2    1    2    0    0  0.36210691404E+03  0.14019296174E+03  0.13055726800E+04  0.13652626144E+04  0.92986557962E+02 0.  0.
         13    1    3    3    0    0  0.25389210419E+03  0.11474132404E+03  0.78571148189E+03  0.83364819006E+03  0.00000000000E+00 0.  1.
        -13    1    3    3    0    0  0.10821480986E+03  0.25451637697E+02  0.51986119810E+03  0.53161442439E+03  0.00000000000E+00 0. -1.
         22    1    1    2    0    0 -0.36210691404E+03 -0.14019296174E+03 -0.15395872985E+04  0.15877986439E+04  0.00000000000E+00 0. -1.
<mgrwt>
<rscale>  0 0.29437744E+04</rscale>
<asrwt>0</asrwt>
<pdfrwt beam="1">  1        2 0.24515968E+00 0.29437744E+04</pdfrwt>
<pdfrwt beam="2">  1       -2 0.20915743E+00 0.29437744E+04</pdfrwt>
<totfact> 0.11214091E+00</totfact>
</mgrwt>
</event>
<event>
 6    1  0.1817112E-005  0.3224424E+04  0.7818608E-02  0.8182396E-01
          2   -1    0    0  501    0  0.00000000000E+00  0.00000000000E+00  0.22196916210E+04  0.22196916210E+04  0.00000000000E+00 0. -1.
         -2   -1    0    0    0  501 -0.00000000000E+00 -0.00000000000E+00 -0.11709861046E+04  0.11709861046E+04  0.00000000000E+00 0.  1.
         23    2    1    2    0    0 -0.10697072353E+04 -0.11934763536E+04  0.69575785176E+03  0.17495709557E+04  0.90885449166E+02 0.  0.
         11    1    3    3    0    0 -0.83140562269E+03 -0.87207525989E+03  0.50799775888E+03  0.13075979089E+04  0.00000000000E+00 0.  1.
        -11    1    3    3    0    0 -0.23830161265E+03 -0.32140109372E+03  0.18776009288E+03  0.44197304682E+03  0.00000000000E+00 0. -1.
         22    1    1    2    0    0  0.10697072353E+04  0.11934763536E+04  0.35294766469E+03  0.16411067698E+04  0.00000000000E+00 0. -1.
<mgrwt>
<rscale>  0 0.32244243E+04</rscale>
<asrwt>0</asrwt>
<pdfrwt beam="1">  1        2 0.34149102E+00 0.32244243E+04</pdfrwt>
<pdfrwt beam="2">  1       -2 0.18015171E+00 0.32244243E+04</pdfrwt>
<totfact> 0.76517315E-01</totfact>
</mgrwt>
</event>
<event>
 6    1  0.1817112E-005  0.3339790E+04  0.7818608E-02  0.8152844E-01
         -2   -1    0    0    0  501 -0.00000000000E+00  0.00000000000E+00  0.13427494365E+04  0.13427494365E+04  0.00000000000E+00 0.  1.
          2   -1    0    0  501    0  0.00000000000E+00 -0.00000000000E+00 -0.20767462075E+04  0.20767462075E+04  0.00000000000E+00 0. -1.
         23    2    1    2    0    0 -0.12258337761E+04  0.36448951682E+03 -0.14652044932E+04  0.19463405987E+04  0.76788441530E+02 0.  0.
         11    1    3    3    0    0 -0.63292313440E+03  0.15118721988E+03 -0.72208668551E+03  0.97203829704E+03  0.00000000000E+00 0.  1.
        -11    1    3    3    0    0 -0.59291064169E+03  0.21330229694E+03 -0.74311780764E+03  0.97430230162E+03  0.00000000000E+00 0. -1.
         22    1    1    2    0    0  0.12258337761E+04 -0.36448951682E+03  0.73120772216E+03  0.14731550453E+04  0.00000000000E+00 0.  1.
<mgrwt>
<rscale>  0 0.33397903E+04</rscale>
<asrwt>0</asrwt>
<pdfrwt beam="1">  1        2 0.31949942E+00 0.33397903E+04</pdfrwt>
<pdfrwt beam="2">  1       -2 0.20657684E+00 0.33397903E+04</pdfrwt>
<totfact> 0.60732742E-01</totfact>
</mgrwt>
</event>
<event>
 6    1  0.1817112E-005  0.1698987E+04  0.7818608E-02  0.8761942E-01
          2   -1    0    0  501    0  0.00000000000E+00  0.00000000000E+00  0.76919940323E+03  0.76919940323E+03  0.00000000000E+00 0. -1.
         -2   -1    0    0    0  501 -0.00000000000E+00 -0.00000000000E+00 -0.93816937931E+03  0.93816937931E+03  0.00000000000E+00 0.  1.
         23    2    1    2    0    0 -0.41716964661E+03  0.29171570517E+03  0.59562135236E+03  0.78882185058E+03  0.91359454270E+02 0.  0.
         11    1    3    3    0    0 -0.16591407547E+03  0.13582433769E+03  0.18745778211E+03  0.28480897322E+03  0.00000000000E+00 0.  1.
        -11    1    3    3    0    0 -0.25125557113E+03  0.15589136748E+03  0.40816357024E+03  0.50401287737E+03  0.00000000000E+00 0. -1.
         22    1    1    2    0    0  0.41716964661E+03 -0.29171570517E+03 -0.76459132844E+03  0.91854693196E+03  0.00000000000E+00 0.  1.
<mgrwt>
<rscale>  0 0.16989871E+04</rscale>
<asrwt>0</asrwt>
<pdfrwt beam="1">  1        2 0.11833837E+00 0.16989871E+04</pdfrwt>
<pdfrwt beam="2">  1       -2 0.14433375E+00 0.16989871E+04</pdfrwt>
<totfact> 0.11446985E+01</totfact>
</mgrwt>
</event>
<event>
 6    1  0.1817112E-005  0.1998276E+04  0.7818608E-02  0.8607427E-01
          1   -1    0    0  501    0  0.00000000000E+00  0.00000000000E+00  0.16585236791E+04  0.16585236791E+04  0.00000000000E+00 0. -1.
         -1   -1    0    0    0  501 -0.00000000000E+00 -0.00000000000E+00 -0.60190694818E+03  0.60190694818E+03  0.00000000000E+00 0.  1.
         23    2    1    2    0    0 -0.67195441463E+03 -0.43186599904E+02 -0.30228472931E+03  0.74385520998E+03  0.92502422032E+02 0.  0.
         11    1    3    3    0    0 -0.12055481797E+03  0.47022613054E+01 -0.92225236696E+02  0.15185871618E+03  0.00000000000E+00 0. -1.
        -11    1    3    3    0    0 -0.55139959666E+03 -0.47888861209E+02 -0.21005949261E+03  0.59199649380E+03  0.00000000000E+00 0.  1.
         22    1    1    2    0    0  0.67195441463E+03  0.43186599904E+02  0.13589014602E+04  0.15165754173E+04  0.00000000000E+00 0. -1.
<mgrwt>
<rscale>  0 0.19982762E+04</rscale>
<asrwt>0</asrwt>
<pdfrwt beam="1">  1        1 0.25515749E+00 0.19982762E+04</pdfrwt>
<pdfrwt beam="2">  1       -1 0.92601069E-01 0.19982762E+04</pdfrwt>
<totfact> 0.53516452E+00</totfact>
</mgrwt>
</event>
<event>
 6    1  0.1817112E-005  0.3717443E+04  0.7818608E-02  0.8064107E-01
          2   -1    0    0  501    0  0.00000000000E+00  0.00000000000E+00  0.36113203173E+04  0.36113203173E+04  0.00000000000E+00 0.  1.
         -2   -1    0    0    0  501 -0.00000000000E+00 -0.00000000000E+00 -0.95667084473E+03  0.95667084473E+03  0.00000000000E+00 0. -1.
         23    2    1    2    0    0  0.28946833948E+02 -0.14448075179E+04 -0.10613662640E+03  0.14518643085E+04  0.91314313247E+02 0.  0.
         13    1    3    3    0    0  0.59600582509E+02 -0.90502747166E+03 -0.81755468549E+02  0.91066509241E+03  0.00000000000E+00 0.  1.
        -13    1    3    3    0    0 -0.30653748561E+02 -0.53978004625E+03 -0.24381157855E+02  0.54119921609E+03  0.00000000000E+00 0. -1.
         22    1    1    2    0    0 -0.28946833948E+02  0.14448075179E+04  0.27607860990E+04  0.31161268535E+04  0.00000000000E+00 0.  1.
<mgrwt>
<rscale>  0 0.37174426E+04</rscale>
<asrwt>0</asrwt>
<pdfrwt beam="1">  1        2 0.55558774E+00 0.37174426E+04</pdfrwt>
<pdfrwt beam="2">  1       -2 0.14718013E+00 0.37174426E+04</pdfrwt>
<totfact> 0.17196843E-01</totfact>
</mgrwt>
</event>
<event>
 6    1  0.1817112E-005  0.2587810E+04  0.7818608E-02  0.8372354E-01
          2   -1    0    0  501    0  0.00000000000E+00  0.00000000000E+00  0.13889635088E+04  0.13889635088E+04  0.00000000000E+00 0. -1.
         -2   -1    0    0    0  501 -0.00000000000E+00 -0.00000000000E+00 -0.12053517277E+04  0.12053517277E+04  0.00000000000E+00 0.  1.
         23    2    1    2    0    0 -0.49151373510E+03 -0.81516490191E+03 -0.78511107748E+03  0.12361902253E+04  0.75414190780E+02 0.  0.
         13    1    3    3    0    0 -0.41011708685E+02 -0.11461553374E+03 -0.91139339669E+02  0.15206926073E+03  0.00000000000E+00 0. -1.
        -13    1    3    3    0    0 -0.45050202641E+03 -0.70054936817E+03 -0.69397173781E+03  0.10841209646E+04  0.00000000000E+00 0.  1.
         22    1    1    2    0    0  0.49151373510E+03  0.81516490191E+03  0.96872285865E+03  0.13581250112E+04  0.00000000000E+00 0. -1.
<mgrwt>
<rscale>  0 0.25878095E+04</rscale>
<asrwt>0</asrwt>
<pdfrwt beam="1">  1        2 0.21368669E+00 0.25878095E+04</pdfrwt>
<pdfrwt beam="2">  1       -2 0.18543873E+00 0.25878095E+04</pdfrwt>
<totfact> 0.21636604E+00</totfact>
</mgrwt>
</event>
<event>
 6    1  0.1817112E-005  0.4339313E+04  0.7818608E-02  0.7939389E-01
         -2   -1    0    0    0  501 -0.00000000000E+00  0.00000000000E+00  0.16955435737E+04  0.16955435737E+04  0.00000000000E+00 0.  1.
          2   -1    0    0  501    0  0.00000000000E+00 -0.00000000000E+00 -0.27763420996E+04  0.27763420996E+04  0.00000000000E+00 0. -1.
         23    2    1    2    0    0 -0.16026131257E+04 -0.81401466334E+03 -0.17911768998E+04  0.25391088789E+04  0.88150494576E+02 0.  0.
         11    1    3    3    0    0 -0.82964526328E+03 -0.37275696304E+03 -0.91634202231E+03  0.12911009714E+04  0.00000000000E+00 0. -1.
        -11    1    3    3    0    0 -0.77296786243E+03 -0.44125770030E+03 -0.87483487750E+03  0.12480079075E+04  0.00000000000E+00 0.  1.
         22    1    1    2    0    0  0.16026131257E+04  0.81401466334E+03  0.71037837389E+03  0.19327767944E+04  0.00000000000E+00 0.  1.
<mgrwt>
<rscale>  0 0.43393129E+04</rscale>
<asrwt>0</asrwt>
<pdfrwt beam="1">  1        2 0.42712955E+00 0.43393129E+04</pdfrwt>
<pdfrwt beam="2">  1       -2 0.26085286E+00 0.43393129E+04</pdfrwt>
<totfact> 0.10110375E-01</totfact>
</mgrwt>
</event>
<event>
 6    1  0.1817112E-005  0.5577588E+04  0.7818608E-02  0.7745102E-01
          2   -1    0    0  501    0  0.00000000000E+00  0.00000000000E+00  0.27436567605E+04  0.27436567605E+04  0.00000000000E+00 0.  1.
         -2   -1    0    0    0  501 -0.00000000000E+00 -0.00000000000E+00 -0.28346735163E+04  0.28346735163E+04  0.00000000000E+00 0. -1.
         23    2    1    2    0    0 -0.71930466830E+03  0.99177367344E+03 -0.25502874908E+04  0.28307810464E+04  0.91328099208E+02 0.  0.
         11    1    3    3    0    0 -0.31033294270E+03  0.44020551174E+03 -0.10187822896E+04  0.11523908978E+04  0.00000000000E+00 0.  1.
        -11    1    3    3    0    0 -0.40897172560E+03  0.55156816171E+03 -0.15315052013E+04  0.16783901486E+04  0.00000000000E+00 0. -1.
         22    1    1    2    0    0  0.71930466830E+03 -0.99177367344E+03  0.24592707351E+04  0.27475492304E+04  0.00000000000E+00 0.  1.
<mgrwt>
<rscale>  0 0.55775877E+04</rscale>
<asrwt>0</asrwt>
<pdfrwt beam="1">  1        2 0.42210104E+00 0.55775877E+04</pdfrwt>
<pdfrwt beam="2">  1       -2 0.43610362E+00 0.55775877E+04</pdfrwt>
<totfact> 0.74824256E-03</totfact>
</mgrwt>
</event>
<event>
 6    1  0.1817112E-005  0.3567369E+03  0.7818608E-02  0.1059883E+00
          2   -1    0    0  501    0  0.00000000000E+00  0.00000000000E+00  0.94434175357E+03  0.94434175357E+03  0.00000000000E+00 0. -1.
         -2   -1    0    0    0  501 -0.00000000000E+00 -0.00000000000E+00 -0.33690455151E+02  0.33690455151E+02  0.00000000000E+00 0.  1.
         23    2    1    2    0    0 -0.11282725561E+03  0.12132581149E+03  0.43371765645E+03  0.47314049659E+03  0.91109724242E+02 0.  0.
         13    1    3    3    0    0 -0.26649204023E+02  0.27763473512E+02  0.27040400819E+02  0.47033751848E+02  0.00000000000E+00 0. -1.
        -13    1    3    3    0    0 -0.86178051585E+02  0.93562337974E+02  0.40667725563E+03  0.42610674474E+03  0.00000000000E+00 0.  1.
         22    1    1    2    0    0  0.11282725561E+03 -0.12132581149E+03  0.47693364197E+03  0.50489171213E+03  0.00000000000E+00 0. -1.
<mgrwt>
<rscale>  0 0.35673690E+03</rscale>
<asrwt>0</asrwt>
<pdfrwt beam="1">  1        2 0.14528333E+00 0.35673690E+03</pdfrwt>
<pdfrwt beam="2">  1       -2 0.51831477E-02 0.35673690E+03</pdfrwt>
<totfact> 0.52951572E+03</totfact>
</mgrwt>
</event>
<event>
 6    1  0.1817112E-005  0.2659339E+04  0.7818608E-02  0.8348320E-01
         -2   -1    0    0    0  501 -0.00000000000E+00  0.00000000000E+00  0.16775299744E+04  0.16775299744E+04  0.00000000000E+00 0.  1.
          2   -1    0    0  501    0  0.00000000000E+00 -0.00000000000E+00 -0.10539429166E+04  0.10539429166E+04  0.00000000000E+00 0. -1.
         23    2    1    2    0    0 -0.11470103915E+04  0.37282346366E+03 -0.25979849505E+03  0.12364811826E+04  0.82220944025E+02 0.  0.
         13    1    3    3    0    0 -0.51068048672E+03  0.12665722863E+03 -0.96558228340E+02  0.53493934660E+03  0.00000000000E+00 0. -1.
        -13    1    3    3    0    0 -0.63632990475E+03  0.24616623503E+03 -0.16324026671E+03  0.70154183597E+03  0.00000000000E+00 0.  1.
         22    1    1    2    0    0  0.11470103915E+04 -0.37282346366E+03  0.88338555289E+03  0.14949917084E+04  0.00000000000E+00 0.  1.
<mgrwt>
<rscale>  0 0.26593389E+04</rscale>
<asrwt>0</asrwt>
<pdfrwt beam="1">  1        2 0.16214506E+00 0.26593389E+04</pdfrwt>
<pdfrwt beam="2">  1       -2 0.25808153E+00 0.26593389E+04</pdfrwt>
<totfact> 0.11743285E+00</totfact>
</mgrwt>
</event>
<event>
 6    1  0.2378684E-005  0.2663753E+04  0.7818608E-02  0.8346863E-01
         -2   -1    0    0    0  501 -0.00000000000E+00  0.00000000000E+00  0.70811948565E+03  0.70811948565E+03  0.00000000000E+00 0.  1.
          2   -1    0    0  501    0  0.00000000000E+00 -0.00000000000E+00 -0.25050778168E+04  0.25050778168E+04  0.00000000000E+00 0. -1.
         23    2    1    2    0    0  0.27913417667E+03  0.10211490737E+04  0.72512242894E+02  0.10648068476E+04  0.88849748981E+02 0.  0.
         11    1    3    3    0    0  0.15827909350E+03  0.48028953228E+03  0.70627261590E+02  0.51060602850E+03  0.00000000000E+00 0. -1.
        -11    1    3    3    0    0  0.12085508317E+03  0.54085954146E+03  0.18849813036E+01  0.55420081908E+03  0.00000000000E+00 0.  1.
         22    1    1    2    0    0 -0.27913417667E+03 -0.10211490737E+04 -0.18694705740E+04  0.21483904549E+04  0.00000000000E+00 0. -1.
<mgrwt>
<rscale>  0 0.26637526E+04</rscale>
<asrwt>0</asrwt>
<pdfrwt beam="1">  1        2 0.38539659E+00 0.26637526E+04</pdfrwt>
<pdfrwt beam="2">  1       -2 0.10894146E+00 0.26637526E+04</pdfrwt>
<totfact> 0.20457660E+00</totfact>
</mgrwt>
</event>
<event>
 6    1  0.1817112E-005  0.1061096E+04  0.7818608E-02  0.9243963E-01
         -1   -1    0    0    0  501 -0.00000000000E+00  0.00000000000E+00  0.33561707999E+03  0.33561707999E+03  0.00000000000E+00 0. -1.
          1   -1    0    0  501    0  0.00000000000E+00 -0.00000000000E+00 -0.83869669348E+03  0.83869669348E+03  0.00000000000E+00 0.  1.
         23    2    1    2    0    0 -0.20559166423E+03 -0.48145924907E+03 -0.31643425263E+03  0.61851935857E+03  0.91458295249E+02 0.  0.
         13    1    3    3    0    0 -0.15606277893E+03 -0.41822665574E+03 -0.23638712845E+03  0.50512176852E+03  0.00000000000E+00 0.  1.
        -13    1    3    3    0    0 -0.49528885298E+02 -0.63232593330E+02 -0.80047124187E+02  0.11339759005E+03  0.00000000000E+00 0. -1.
         22    1    1    2    0    0  0.20559166423E+03  0.48145924907E+03 -0.18664536086E+03  0.55579441491E+03  0.00000000000E+00 0.  1.
<mgrwt>
<rscale>  0 0.10610955E+04</rscale>
<asrwt>0</asrwt>
<pdfrwt beam="1">  1        1 0.12903026E+00 0.10610955E+04</pdfrwt>
<pdfrwt beam="2">  1       -1 0.51633397E-01 0.10610955E+04</pdfrwt>
<totfact> 0.77180515E+01</totfact>
</mgrwt>
</event>
<event>
 6    1  0.1817112E-005  0.1964895E+04  0.7818608E-02  0.8623211E-01
         -2   -1    0    0    0  501 -0.00000000000E+00  0.00000000000E+00  0.11998314255E+04  0.11998314255E+04  0.00000000000E+00 0.  1.
          2   -1    0    0  501    0  0.00000000000E+00 -0.00000000000E+00 -0.80444921078E+03  0.80444921078E+03  0.00000000000E+00 0. -1.
         23    2    1    2    0    0 -0.56059085770E+03  0.30319319293E+03 -0.56172560434E+03  0.85439212027E+03  0.90895646944E+02 0.  0.
         11    1    3    3    0    0 -0.13873000715E+03  0.43352236672E+02 -0.16321007047E+03  0.21854738253E+03  0.00000000000E+00 0.  1.
        -11    1    3    3    0    0 -0.42186085055E+03  0.25984095625E+03 -0.39851553387E+03  0.63584473774E+03  0.00000000000E+00 0. -1.
         22    1    1    2    0    0  0.56059085770E+03 -0.30319319293E+03  0.95710781910E+03  0.11498885161E+04  0.00000000000E+00 0.  1.
<mgrwt>
<rscale>  0 0.19648954E+04</rscale>
<asrwt>0</asrwt>
<pdfrwt beam="1">  1        2 0.12376142E+00 0.19648954E+04</pdfrwt>
<pdfrwt beam="2">  1       -2 0.18458945E+00 0.19648954E+04</pdfrwt>
<totfact> 0.53693691E+00</totfact>
</mgrwt>
</event>
<event>
 6    1  0.1817112E-005  0.9771960E+03  0.7818608E-02  0.9333916E-01
          1   -1    0    0  501    0  0.00000000000E+00  0.00000000000E+00  0.15393430051E+04  0.15393430051E+04  0.00000000000E+00 0. -1.
         -1   -1    0    0    0  501 -0.00000000000E+00 -0.00000000000E+00 -0.15508435235E+03  0.15508435235E+03  0.00000000000E+00 0.  1.
         23    2    1    2    0    0  0.22948255529E+03  0.15390299319E+03  0.83674246533E+01  0.29106530649E+03  0.91107762308E+02 0.  0.
         13    1    3    3    0    0  0.91040571881E+02  0.25201998053E+02 -0.28100665338E+02  0.98555435298E+02  0.00000000000E+00 0.  1.
        -13    1    3    3    0    0  0.13844198340E+03  0.12870099514E+03  0.36468089991E+02  0.19250987119E+03  0.00000000000E+00 0. -1.
         22    1    1    2    0    0 -0.22948255529E+03 -0.15390299319E+03  0.13758912281E+04  0.14033620509E+04  0.00000000000E+00 0. -1.
<mgrwt>
<rscale>  0 0.97719602E+03</rscale>
<asrwt>0</asrwt>
<pdfrwt beam="1">  1        1 0.23682199E+00 0.97719602E+03</pdfrwt>
<pdfrwt beam="2">  1       -1 0.23859132E-01 0.97719602E+03</pdfrwt>
<totfact> 0.93631188E+01</totfact>
</mgrwt>
</event>
<event>
 6    1  0.1817112E-005  0.1440787E+04  0.7818608E-02  0.8924813E-01
          2   -1    0    0  501    0  0.00000000000E+00  0.00000000000E+00  0.13062967492E+04  0.13062967492E+04  0.00000000000E+00 0. -1.
         -2   -1    0    0    0  501 -0.00000000000E+00 -0.00000000000E+00 -0.39728107090E+03  0.39728107090E+03  0.00000000000E+00 0.  1.
         23    2    1    2    0    0 -0.58779259259E+03 -0.12275593996E+03 -0.67767120116E+01  0.60847743437E+03  0.98131093999E+02 0.  0.
         13    1    3    3    0    0 -0.45306624368E+03 -0.86990511582E+02 -0.46112590765E+02  0.46364074594E+03  0.00000000000E+00 0. -1.
        -13    1    3    3    0    0 -0.13472634891E+03 -0.35765428374E+02  0.39335878754E+02  0.14483668843E+03  0.00000000000E+00 0.  1.
         22    1    1    2    0    0  0.58779259259E+03  0.12275593996E+03  0.91579239034E+03  0.10951003858E+04  0.00000000000E+00 0. -1.
<mgrwt>
<rscale>  0 0.14407872E+04</rscale>
<asrwt>0</asrwt>
<pdfrwt beam="1">  1        2 0.20096873E+00 0.14407872E+04</pdfrwt>
<pdfrwt beam="2">  1       -2 0.61120165E-01 0.14407872E+04</pdfrwt>
<totfact> 0.39612053E+01</totfact>
</mgrwt>
</event>
<event>
 6    1  0.1817112E-005  0.3921322E+04  0.7818608E-02  0.8020609E-01
         -2   -1    0    0    0  501 -0.00000000000E+00  0.00000000000E+00  0.12263453062E+04  0.12263453062E+04  0.00000000000E+00 0.  1.
          2   -1    0    0  501    0  0.00000000000E+00 -0.00000000000E+00 -0.31346726974E+04  0.31346726974E+04  0.00000000000E+00 0. -1.
         23    2    1    2    0    0 -0.35556757308E+03  0.18861245918E+04 -0.51509294126E+03  0.19893104948E+04  0.90228773495E+02 0.  0.
         13    1    3    3    0    0 -0.23996367242E+03  0.13248474696E+04 -0.40267438693E+03  0.14053291585E+04  0.00000000000E+00 0. -1.
        -13    1    3    3    0    0 -0.11560390066E+03  0.56127712220E+03 -0.11241855433E+03  0.58398133627E+03  0.00000000000E+00 0.  1.
         22    1    1    2    0    0  0.35556757308E+03 -0.18861245918E+04 -0.13932344499E+04  0.23717075088E+04  0.00000000000E+00 0. -1.
<mgrwt>
<rscale>  0 0.39213218E+04</rscale>
<asrwt>0</asrwt>
<pdfrwt beam="1">  1        2 0.48225732E+00 0.39213218E+04</pdfrwt>
<pdfrwt beam="2">  1       -2 0.18866851E+00 0.39213218E+04</pdfrwt>
<totfact> 0.17943673E-01</totfact>
</mgrwt>
</event>
<event>
 6    1  0.1817112E-005  0.1919220E+04  0.7818608E-02  0.8645348E-01
         -2   -1    0    0    0  501 -0.00000000000E+00  0.00000000000E+00  0.38137143876E+03  0.38137143876E+03  0.00000000000E+00 0.  1.
          2   -1    0    0  501    0  0.00000000000E+00 -0.00000000000E+00 -0.24145787268E+04  0.24145787268E+04  0.00000000000E+00 0. -1.
         23    2    1    2    0    0 -0.80980954429E+02  0.17124062985E+03 -0.23860302911E+04  0.23954937513E+04  0.96790982880E+02 0.  0.
         11    1    3    3    0    0  0.81669539057E+01  0.87836543159E+02 -0.82724054353E+03  0.83193081101E+03  0.00000000000E+00 0.  1.
        -11    1    3    3    0    0 -0.89147908334E+02  0.83404086688E+02 -0.15587897475E+04  0.15635629403E+04  0.00000000000E+00 0. -1.
         22    1    1    2    0    0  0.80980954429E+02 -0.17124062985E+03  0.35282300300E+03  0.40045641428E+03  0.00000000000E+00 0.  1.
<mgrwt>
<rscale>  0 0.19192200E+04</rscale>
<asrwt>0</asrwt>
<pdfrwt beam="1">  1        2 0.37147366E+00 0.19192200E+04</pdfrwt>
<pdfrwt beam="2">  1       -2 0.58672528E-01 0.19192200E+04</pdfrwt>
<totfact> 0.99069815E+00</totfact>
</mgrwt>
</event>
<event>
 6    1  0.1817112E-005  0.3088789E+04  0.7818608E-02  0.8218821E-01
          2   -1    0    0  501    0  0.00000000000E+00  0.00000000000E+00  0.25666141379E+04  0.25666141379E+04  0.00000000000E+00 0. -1.
         -2   -1    0    0    0  501 -0.00000000000E+00 -0.00000000000E+00 -0.92930016171E+03  0.92930016171E+03  0.00000000000E+00 0.  1.
         23    2    1    2    0    0  0.10176876015E+04  0.10673079857E+04  0.13332356586E+04  0.19901593349E+04  0.91555808780E+02 0.  0.
         13    1    3    3    0    0  0.46496640237E+03  0.45242294204E+03  0.53468178709E+03  0.84069309933E+03  0.00000000000E+00 0. -1.
        -13    1    3    3    0    0  0.55272119916E+03  0.61488504368E+03  0.79855387151E+03  0.11494662355E+04  0.00000000000E+00 0.  1.
         22    1    1    2    0    0 -0.10176876015E+04 -0.10673079857E+04  0.30407831762E+03  0.15057549648E+04  0.00000000000E+00 0.  1.
<mgrwt>
<rscale>  0 0.30887894E+04</rscale>
<asrwt>0</asrwt>
<pdfrwt beam="1">  1        2 0.39486371E+00 0.30887894E+04</pdfrwt>
<pdfrwt beam="2">  1       -2 0.14296926E+00 0.30887894E+04</pdfrwt>
<totfact> 0.91965189E-01</totfact>
</mgrwt>
</event>
<event>
 6    1  0.1817112E-005  0.2108100E+04  0.7818608E-02  0.8557684E-01
         -2   -1    0    0    0  501 -0.00000000000E+00  0.00000000000E+00  0.77254923721E+03  0.77254923721E+03  0.00000000000E+00 0.  1.
          2   -1    0    0  501    0  0.00000000000E+00 -0.00000000000E+00 -0.14381236519E+04  0.14381236519E+04  0.00000000000E+00 0. -1.
         23    2    1    2    0    0 -0.39193911092E+03 -0.31325581155E+03  0.63622134158E+03  0.81553215744E+03  0.92572318789E+02 0.  0.
         11    1    3    3    0    0 -0.21701231611E+03 -0.19816662957E+03  0.30396425959E+03  0.42279856850E+03  0.00000000000E+00 0.  1.
        -11    1    3    3    0    0 -0.17492679481E+03 -0.11508918197E+03  0.33225708199E+03  0.39273358894E+03  0.00000000000E+00 0. -1.
         22    1    1    2    0    0  0.39193911092E+03  0.31325581155E+03 -0.13017957562E+04  0.13951407316E+04  0.00000000000E+00 0. -1.
<mgrwt>
<rscale>  0 0.21080999E+04</rscale>
<asrwt>0</asrwt>
<pdfrwt beam="1">  1        2 0.22124979E+00 0.21080999E+04</pdfrwt>
<pdfrwt beam="2">  1       -2 0.11885373E+00 0.21080999E+04</pdfrwt>
<totfact> 0.68939173E+00</totfact>
</mgrwt>
</event>
<event>
 6    1  0.1817112E-005  0.1421951E+04  0.7818608E-02  0.8938081E-01
          2   -1    0    0  501    0  0.00000000000E+00  0.00000000000E+00  0.15598898947E+04  0.15598898947E+04  0.00000000000E+00 0. -1.
         -2   -1    0    0    0  501 -0.00000000000E+00 -0.00000000000E+00 -0.32405231950E+03  0.32405231950E+03  0.00000000000E+00 0.  1.
         23    2    1    2    0    0 -0.33619221496E+03  0.33938522476E+03  0.13128952589E+04  0.14000564603E+04  0.90865807515E+02 0.  0.
         11    1    3    3    0    0 -0.14396513378E+03  0.98759334103E+02  0.39472725323E+03  0.43161205991E+03  0.00000000000E+00 0. -1.
        -11    1    3    3    0    0 -0.19222708118E+03  0.24062589065E+03  0.91816800569E+03  0.96844440040E+03  0.00000000000E+00 0.  1.
         22    1    1    2    0    0  0.33619221496E+03 -0.33938522476E+03 -0.77057683728E+02  0.48388575388E+03  0.00000000000E+00 0.  1.
<mgrwt>
<rscale>  0 0.14219507E+04</rscale>
<asrwt>0</asrwt>
<pdfrwt beam="1">  1        2 0.23998306E+00 0.14219507E+04</pdfrwt>
<pdfrwt beam="2">  1       -2 0.49854204E-01 0.14219507E+04</pdfrwt>
<totfact> 0.43439773E+01</totfact>
</mgrwt>
</event>
<event>
 6    1  0.1817112E-005  0.1883504E+04  0.7818608E-02  0.8663111E-01
         -2   -1    0    0    0  501 -0.00000000000E+00  0.00000000000E+00  0.64788244035E+03  0.64788244035E+03  0.00000000000E+00 0.  1.
          2   -1    0    0  501    0  0.00000000000E+00 -0.00000000000E+00 -0.13689167293E+04  0.13689167293E+04  0.00000000000E+00 0. -1.
         23    2    1    2    0    0  0.31977392941E+03  0.77374474265E+03 -0.81747689646E+03  0.11740432920E+04  0.95775167023E+02 0.  0.
         13    1    3    3    0    0  0.21024577408E+03  0.50257041047E+03 -0.59390575279E+03  0.80591832477E+03  0.00000000000E+00 0. -1.
        -13    1    3    3    0    0  0.10952815534E+03  0.27117433218E+03 -0.22357114367E+03  0.36812496727E+03  0.00000000000E+00 0.  1.
         22    1    1    2    0    0 -0.31977392941E+03 -0.77374474265E+03  0.96442607517E+02  0.84275587761E+03  0.00000000000E+00 0.  1.
<mgrwt>
<rscale>  0 0.18835043E+04</rscale>
<asrwt>0</asrwt>
<pdfrwt beam="1">  1        2 0.21060257E+00 0.18835043E+04</pdfrwt>
<pdfrwt beam="2">  1       -2 0.99674222E-01 0.18835043E+04</pdfrwt>
<totfact> 0.11772327E+01</totfact>
</mgrwt>
</event>
<event>
 6    1  0.1817112E-005  0.8551443E+03  0.7818608E-02  0.9483458E-01
         -2   -1    0    0    0  501 -0.00000000000E+00  0.00000000000E+00  0.22977152366E+03  0.22977152366E+03  0.00000000000E+00 0.  1.
          2   -1    0    0  501    0  0.00000000000E+00 -0.00000000000E+00 -0.79565100909E+03  0.79565100909E+03  0.00000000000E+00 0. -1.
         23    2    1    2    0    0  0.13390839120E+03 -0.34998030320E+03 -0.52121372766E+03  0.64804646066E+03  0.88785108073E+02 0.  0.
         13    1    3    3    0    0  0.95357345994E+01 -0.14503767980E+03 -0.19369637395E+03  0.24216759501E+03  0.00000000000E+00 0.  1.
        -13    1    3    3    0    0  0.12437265660E+03 -0.20494262340E+03 -0.32751735372E+03  0.40587886565E+03  0.00000000000E+00 0. -1.
         22    1    1    2    0    0 -0.13390839120E+03  0.34998030320E+03 -0.44665757769E+02  0.37737607208E+03  0.00000000000E+00 0. -1.
<mgrwt>
<rscale>  0 0.85514430E+03</rscale>
<asrwt>0</asrwt>
<pdfrwt beam="1">  1        2 0.12240785E+00 0.85514430E+03</pdfrwt>
<pdfrwt beam="2">  1       -2 0.35349464E-01 0.85514430E+03</pdfrwt>
<totfact> 0.26168183E+02</totfact>
</mgrwt>
</event>
<event>
 6    1  0.1817112E-005  0.1402764E+04  0.7818608E-02  0.8951821E-01
         -2   -1    0    0    0  501 -0.00000000000E+00  0.00000000000E+00  0.17302858497E+04  0.17302858497E+04  0.00000000000E+00 0.  1.
          2   -1    0    0  501    0  0.00000000000E+00 -0.00000000000E+00 -0.28430936412E+03  0.28430936412E+03  0.00000000000E+00 0. -1.
         23    2    1    2    0    0 -0.56887822633E+03  0.31048348592E+03  0.10997224285E+04  0.12798066024E+04  0.92157953254E+02 0.  0.
         11    1    3    3    0    0 -0.20435467993E+03  0.62720433791E+02  0.34905102046E+03  0.40930587939E+03  0.00000000000E+00 0. -1.
        -11    1    3    3    0    0 -0.36452354640E+03  0.24776305213E+03  0.75067140802E+03  0.87050072297E+03  0.00000000000E+00 0.  1.
         22    1    1    2    0    0  0.56887822633E+03 -0.31048348592E+03  0.34625405706E+03  0.73478861141E+03  0.00000000000E+00 0. -1.
<mgrwt>
<rscale>  0 0.14027637E+04</rscale>
<asrwt>0</asrwt>
<pdfrwt beam="1">  1        2 0.43739903E-01 0.14027637E+04</pdfrwt>
<pdfrwt beam="2">  1       -2 0.26619782E+00 0.14027637E+04</pdfrwt>
<totfact> 0.58129408E+00</totfact>
</mgrwt>
</event>
<event>
 6    1  0.1817112E-005  0.2039935E+04  0.7818608E-02  0.8588174E-01
          2   -1    0    0  501    0  0.00000000000E+00  0.00000000000E+00  0.25624559750E+04  0.25624559750E+04  0.00000000000E+00 0. -1.
         -2   -1    0    0    0  501 -0.00000000000E+00 -0.00000000000E+00 -0.40599080180E+03  0.40599080180E+03  0.00000000000E+00 0.  1.
         23    2    1    2    0    0 -0.10943761202E+03 -0.52081797761E+03 -0.18205672028E+03  0.57013224300E+03  0.93156687330E+02 0.  0.
         13    1    3    3    0    0 -0.76001451984E+01 -0.23541199921E+03 -0.57153527712E+02  0.24236975329E+03  0.00000000000E+00 0. -1.
        -13    1    3    3    0    0 -0.10183746682E+03 -0.28540597839E+03 -0.12490319256E+03  0.32776248971E+03  0.00000000000E+00 0.  1.
         22    1    1    2    0    0  0.10943761202E+03  0.52081797761E+03  0.23385218935E+04  0.23983145338E+04  0.00000000000E+00 0. -1.
<mgrwt>
<rscale>  0 0.20399349E+04</rscale>
<asrwt>0</asrwt>
<pdfrwt beam="1">  1        2 0.39422399E+00 0.20399349E+04</pdfrwt>
<pdfrwt beam="2">  1       -2 0.62460125E-01 0.20399349E+04</pdfrwt>
<totfact> 0.70539362E+00</totfact>
</mgrwt>
</event>
<event>
 6    1  0.1817112E-005  0.1127737E+04  0.7818608E-02  0.9178571E-01
         -2   -1    0    0    0  501 -0.00000000000E+00  0.00000000000E+00  0.14867773159E+03  0.14867773159E+03  0.00000000000E+00 0.  1.
          2   -1    0    0  501    0  0.00000000000E+00 -0.00000000000E+00 -0.21385037214E+04  0.21385037214E+04  0.00000000000E+00 0. -1.
         23    2    1    2    0    0  0.26435461669E+03  0.18762866505E+03 -0.19279876176E+04  0.19571634784E+04  0.90910659613E+02 0.  0.
         13    1    3    3    0    0  0.14288816443E+03  0.60948712795E+02 -0.10882656204E+04  0.10992969725E+04  0.00000000000E+00 0. -1.
        -13    1    3    3    0    0  0.12146645226E+03  0.12667995226E+03 -0.83972199722E+03  0.85786650590E+03  0.00000000000E+00 0.  1.
         22    1    1    2    0    0 -0.26435461669E+03 -0.18762866505E+03 -0.61838372207E+02  0.33001797465E+03  0.00000000000E+00 0.  1.
<mgrwt>
<rscale>  0 0.11277373E+04</rscale>
<asrwt>0</asrwt>
<pdfrwt beam="1">  1        2 0.32900057E+00 0.11277373E+04</pdfrwt>
<pdfrwt beam="2">  1       -2 0.22873497E-01 0.11277373E+04</pdfrwt>
<totfact> 0.93644416E+01</totfact>
</mgrwt>
</event>
<event>
 6    1  0.2017769E-005  0.3833075E+04  0.7818608E-02  0.8039094E-01
          2   -1    0    0  501    0  0.00000000000E+00  0.00000000000E+00  0.18899125916E+04  0.18899125916E+04  0.00000000000E+00 0. -1.
         -2   -1    0    0    0  501 -0.00000000000E+00 -0.00000000000E+00 -0.19435379871E+04  0.19435379871E+04  0.00000000000E+00 0.  1.
         23    2    1    2    0    0 -0.66985460487E+03  0.14199130160E+03 -0.18158886646E+04  0.19428320157E+04  0.90982840854E+02 0.  0.
         11    1    3    3    0    0 -0.29738897925E+03  0.10756099445E+03 -0.86733071676E+03  0.92318586684E+03  0.00000000000E+00 0. -1.
        -11    1    3    3    0    0 -0.37246562562E+03  0.34430307155E+02 -0.94855794787E+03  0.10196461488E+04  0.00000000000E+00 0.  1.
         22    1    1    2    0    0  0.66985460487E+03 -0.14199130160E+03  0.17622632691E+04  0.18906185631E+04  0.00000000000E+00 0. -1.
<mgrwt>
<rscale>  0 0.38330755E+04</rscale>
<asrwt>0</asrwt>
<pdfrwt beam="1">  1        2 0.29075578E+00 0.38330755E+04</pdfrwt>
<pdfrwt beam="2">  1       -2 0.29900585E+00 0.38330755E+04</pdfrwt>
<totfact> 0.19825523E-01</totfact>
</mgrwt>
</event>
<event>
 6    1  0.1817112E-005  0.3010297E+04  0.7818608E-02  0.8240797E-01
         -2   -1    0    0    0  501 -0.00000000000E+00  0.00000000000E+00  0.47273645509E+04  0.47273645509E+04  0.00000000000E+00 0.  1.
          2   -1    0    0  501    0  0.00000000000E+00 -0.00000000000E+00 -0.47922500911E+03  0.47922500911E+03  0.00000000000E+00 0. -1.
         23    2    1    2    0    0 -0.63904645600E+02 -0.24581991431E+03  0.46895754068E+04  0.46972990174E+04  0.89383042245E+02 0.  0.
         13    1    3    3    0    0 -0.77812851463E+02 -0.20622526927E+03  0.34641836263E+04  0.34711888307E+04  0.00000000000E+00 0. -1.
        -13    1    3    3    0    0  0.13908205863E+02 -0.39594645047E+02  0.12253917805E+04  0.12261101867E+04  0.00000000000E+00 0.  1.
         22    1    1    2    0    0  0.63904645600E+02  0.24581991431E+03 -0.44143586497E+03  0.50929054270E+03  0.00000000000E+00 0. -1.
<mgrwt>
<rscale>  0 0.30102965E+04</rscale>
<asrwt>0</asrwt>
<pdfrwt beam="1">  1        2 0.73726927E-01 0.30102965E+04</pdfrwt>
<pdfrwt beam="2">  1       -2 0.72728682E+00 0.30102965E+04</pdfrwt>
<totfact> 0.98775975E-03</totfact>
</mgrwt>
</event>
<event>
 6    1  0.1817112E-005  0.3509812E+04  0.7818608E-02  0.8111468E-01
          1   -1    0    0  501    0  0.00000000000E+00  0.00000000000E+00  0.25916438689E+04  0.25916438689E+04  0.00000000000E+00 0. -1.
         -1   -1    0    0    0  501 -0.00000000000E+00 -0.00000000000E+00 -0.11883174527E+04  0.11883174527E+04  0.00000000000E+00 0.  1.
         23    2    1    2    0    0  0.12040563038E+04  0.32636041127E+03  0.20296206674E+04  0.23840719313E+04  0.90422447532E+02 0.  0.
         13    1    3    3    0    0  0.26718585091E+03  0.11096331057E+03  0.45402354247E+03  0.53836652230E+03  0.00000000000E+00 0. -1.
        -13    1    3    3    0    0  0.93687045290E+03  0.21539710070E+03  0.15755971250E+04  0.18457054090E+04  0.00000000000E+00 0.  1.
         22    1    1    2    0    0 -0.12040563038E+04 -0.32636041127E+03 -0.62629425125E+03  0.13958893903E+04  0.00000000000E+00 0.  1.
<mgrwt>
<rscale>  0 0.35098123E+04</rscale>
<asrwt>0</asrwt>
<pdfrwt beam="1">  1        1 0.39871444E+00 0.35098123E+04</pdfrwt>
<pdfrwt beam="2">  1       -1 0.18281807E+00 0.35098123E+04</pdfrwt>
<totfact> 0.18933733E-01</totfact>
</mgrwt>
</event>
<event>
 6    1  0.1817112E-005  0.2695180E+04  0.7818608E-02  0.8336570E-01
         -2   -1    0    0    0  501 -0.00000000000E+00  0.00000000000E+00  0.14178769953E+04  0.14178769953E+04  0.00000000000E+00 0.  1.
          2   -1    0    0  501    0  0.00000000000E+00 -0.00000000000E+00 -0.12807875090E+04  0.12807875090E+04  0.00000000000E+00 0. -1.
         23    2    1    2    0    0  0.49638079589E+03 -0.12439979740E+04 -0.68960165666E+02  0.13435330299E+04  0.80004025191E+02 0.  0.
         11    1    3    3    0    0  0.29087698673E+03 -0.62167472083E+03 -0.39511047508E+02  0.68749545657E+03  0.00000000000E+00 0. -1.
        -11    1    3    3    0    0  0.20550380916E+03 -0.62232325320E+03 -0.29449118158E+02  0.65603757333E+03  0.00000000000E+00 0.  1.
         22    1    1    2    0    0 -0.49638079589E+03  0.12439979740E+04  0.20604965193E+03  0.13551314744E+04  0.00000000000E+00 0. -1.
<mgrwt>
<rscale>  0 0.26951802E+04</rscale>
<asrwt>0</asrwt>
<pdfrwt beam="1">  1        2 0.19704423E+00 0.26951802E+04</pdfrwt>
<pdfrwt beam="2">  1       -2 0.21813492E+00 0.26951802E+04</pdfrwt>
<totfact> 0.15122760E+00</totfact>
</mgrwt>
</event>
<event>
 6    1  0.1817112E-005  0.1529137E+04  0.7818608E-02  0.8865305E-01
         -1   -1    0    0    0  501 -0.00000000000E+00  0.00000000000E+00  0.45572933875E+03  0.45572933875E+03  0.00000000000E+00 0.  1.
          1   -1    0    0  501    0  0.00000000000E+00 -0.00000000000E+00 -0.12827018237E+04  0.12827018237E+04  0.00000000000E+00 0. -1.
         23    2    1    2    0    0  0.20690444100E+02 -0.71287201534E+03 -0.11028586248E+03  0.72736523009E+03  0.91008800427E+02 0.  0.
         13    1    3    3    0    0 -0.28281489114E+02 -0.30313413369E+03 -0.21082132694E+02  0.30517962244E+03  0.00000000000E+00 0. -1.
        -13    1    3    3    0    0  0.48971933214E+02 -0.40973788165E+03 -0.89203729784E+02  0.42218560765E+03  0.00000000000E+00 0.  1.
         22    1    1    2    0    0 -0.20690444100E+02  0.71287201534E+03 -0.71668662247E+03  0.10110659323E+04  0.00000000000E+00 0. -1.
<mgrwt>
<rscale>  0 0.15291368E+04</rscale>
<asrwt>0</asrwt>
<pdfrwt beam="1">  1        1 0.19733874E+00 0.15291368E+04</pdfrwt>
<pdfrwt beam="2">  1       -1 0.70112206E-01 0.15291368E+04</pdfrwt>
<totfact> 0.18472327E+01</totfact>
</mgrwt>
</event>
<event>
 6    1  0.1817112E-005  0.1513110E+04  0.7818608E-02  0.8875782E-01
         -2   -1    0    0    0  501 -0.00000000000E+00  0.00000000000E+00  0.27700715441E+03  0.27700715441E+03  0.00000000000E+00 0.  1.
          2   -1    0    0  501    0  0.00000000000E+00 -0.00000000000E+00 -0.20662830090E+04  0.20662830090E+04  0.00000000000E+00 0. -1.
         23    2    1    2    0    0  0.28357035686E+03  0.36601233200E+03  0.24357589795E+02  0.47148797166E+03  0.85617993303E+02 0.  0.
         11    1    3    3    0    0  0.22087315062E+03  0.32053280363E+03 -0.31985903492E+01  0.38927683960E+03  0.00000000000E+00 0. -1.
        -11    1    3    3    0    0  0.62697206244E+02  0.45479528367E+02  0.27556180144E+02  0.82211132066E+02  0.00000000000E+00 0.  1.
         22    1    1    2    0    0 -0.28357035686E+03 -0.36601233200E+03 -0.18136334444E+04  0.18718021917E+04  0.00000000000E+00 0. -1.
<mgrwt>
<rscale>  0 0.15131096E+04</rscale>
<asrwt>0</asrwt>
<pdfrwt beam="1">  1        2 0.31788970E+00 0.15131096E+04</pdfrwt>
<pdfrwt beam="2">  1       -2 0.42616485E-01 0.15131096E+04</pdfrwt>
<totfact> 0.30933310E+01</totfact>
</mgrwt>
</event>
<event>
 6    1  0.1817112E-005  0.1728891E+04  0.7818608E-02  0.8745056E-01
          2   -1    0    0  501    0  0.00000000000E+00  0.00000000000E+00  0.27520822666E+04  0.27520822666E+04  0.00000000000E+00 0. -1.
         -2   -1    0    0    0  501 -0.00000000000E+00 -0.00000000000E+00 -0.27152751819E+03  0.27152751819E+03  0.00000000000E+00 0.  1.
         23    2    1    2    0    0  0.32485067545E+03 -0.45793385836E+03  0.23877756713E+04  0.24545409514E+04  0.89817846761E+02 0.  0.
         13    1    3    3    0    0  0.28784492425E+03 -0.35005780430E+03  0.18367260420E+04  0.18918133417E+04  0.00000000000E+00 0.  1.
        -13    1    3    3    0    0  0.37005751207E+02 -0.10787605405E+03  0.55104962938E+03  0.56272760969E+03  0.00000000000E+00 0. -1.
         22    1    1    2    0    0 -0.32485067545E+03  0.45793385836E+03  0.92779077063E+02  0.56906883337E+03  0.00000000000E+00 0.  1.
<mgrwt>
<rscale>  0 0.17288911E+04</rscale>
<asrwt>0</asrwt>
<pdfrwt beam="1">  1        2 0.42339725E+00 0.17288911E+04</pdfrwt>
<pdfrwt beam="2">  1       -2 0.41773466E-01 0.17288911E+04</pdfrwt>
<totfact> 0.12778127E+01</totfact>
</mgrwt>
</event>
<event>
 6    1  0.1817112E-005  0.1834918E+04  0.7818608E-02  0.8687948E-01
         -2   -1    0    0    0  501 -0.00000000000E+00  0.00000000000E+00  0.40832434124E+03  0.40832434124E+03  0.00000000000E+00 0.  1.
          2   -1    0    0  501    0  0.00000000000E+00 -0.00000000000E+00 -0.20614278968E+04  0.20614278968E+04  0.00000000000E+00 0. -1.
         23    2    1    2    0    0 -0.65268553300E+03 -0.14124250207E+03  0.13827129959E+02  0.67403350735E+03  0.90455127729E+02 0.  0.
         11    1    3    3    0    0 -0.31997271278E+03 -0.26673128815E+02 -0.11014992093E+02  0.32127141606E+03  0.00000000000E+00 0.  1.
        -11    1    3    3    0    0 -0.33271282022E+03 -0.11456937326E+03  0.24842122052E+02  0.35276209130E+03  0.00000000000E+00 0. -1.
         22    1    1    2    0    0  0.65268553300E+03  0.14124250207E+03 -0.16669306855E+04  0.17957187307E+04  0.00000000000E+00 0. -1.
<mgrwt>
<rscale>  0 0.18349182E+04</rscale>
<asrwt>0</asrwt>
<pdfrwt beam="1">  1        2 0.31714275E+00 0.18349182E+04</pdfrwt>
<pdfrwt beam="2">  1       -2 0.62819130E-01 0.18349182E+04</pdfrwt>
<totfact> 0.13655112E+01</totfact>
</mgrwt>
</event>
<event>
 6    1  0.1817112E-005  0.1970049E+04  0.7818608E-02  0.8620753E-01
          2   -1    0    0  501    0  0.00000000000E+00  0.00000000000E+00  0.23347730551E+04  0.23347730551E+04  0.00000000000E+00 0. -1.
         -2   -1    0    0    0  501 -0.00000000000E+00 -0.00000000000E+00 -0.41557503698E+03  0.41557503698E+03  0.00000000000E+00 0.  1.
         23    2    1    2    0    0 -0.29807139327E+02  0.37775522883E+03  0.22278477316E+04  0.22616230937E+04  0.89699632339E+02 0.  0.
         11    1    3    3    0    0 -0.72263281792E+00  0.26336213739E+03  0.13094725498E+04  0.13356940130E+04  0.00000000000E+00 0. -1.
        -11    1    3    3    0    0 -0.29084506509E+02  0.11439309144E+03  0.91837518179E+03  0.92592908066E+03  0.00000000000E+00 0.  1.
         22    1    1    2    0    0  0.29807139327E+02 -0.37775522883E+03 -0.30864971348E+03  0.48872499843E+03  0.00000000000E+00 0.  1.
<mgrwt>
<rscale>  0 0.19700491E+04</rscale>
<asrwt>0</asrwt>
<pdfrwt beam="1">  1        2 0.35919585E+00 0.19700491E+04</pdfrwt>
<pdfrwt beam="2">  1       -2 0.63934623E-01 0.19700491E+04</pdfrwt>
<totfact> 0.91281247E+00</totfact>
</mgrwt>
</event>
<event>
 6    1  0.1817112E-005  0.3193825E+04  0.7818608E-02  0.8190450E-01
          2   -1    0    0  501    0  0.00000000000E+00  0.00000000000E+00  0.23388795831E+04  0.23388795831E+04  0.00000000000E+00 0. -1.
         -2   -1    0    0    0  501 -0.00000000000E+00 -0.00000000000E+00 -0.10903206872E+04  0.10903206872E+04  0.00000000000E+00 0.  1.
         23    2    1    2    0    0  0.11066591182E+04  0.19423798927E+03 -0.59203156464E+03  0.12727689490E+04  0.83765289493E+02 0.  0.
         11    1    3    3    0    0  0.31459320521E+03  0.28535443310E+02 -0.19703221003E+03  0.37229672048E+03  0.00000000000E+00 0. -1.
        -11    1    3    3    0    0  0.79206591296E+03  0.16570254596E+03 -0.39499935460E+03  0.90047222853E+03  0.00000000000E+00 0.  1.
         22    1    1    2    0    0 -0.11066591182E+04 -0.19423798927E+03  0.18405904605E+04  0.21564313213E+04  0.00000000000E+00 0. -1.
<mgrwt>
<rscale>  0 0.31938245E+04</rscale>
<asrwt>0</asrwt>
<pdfrwt beam="1">  1        2 0.35982763E+00 0.31938245E+04</pdfrwt>
<pdfrwt beam="2">  1       -2 0.16774164E+00 0.31938245E+04</pdfrwt>
<totfact> 0.80289582E-01</totfact>
</mgrwt>
</event>
<event>
 6    1  0.1817112E-005  0.9288724E+03  0.7818608E-02  0.9390192E-01
         -2   -1    0    0    0  501 -0.00000000000E+00  0.00000000000E+00  0.35873204442E+03  0.35873204442E+03  0.00000000000E+00 0.  1.
          2   -1    0    0  501    0  0.00000000000E+00 -0.00000000000E+00 -0.60128719116E+03  0.60128719116E+03  0.00000000000E+00 0. -1.
         23    2    1    2    0    0  0.40727385741E+03  0.12669418048E+03 -0.30054238124E+03  0.52957071408E+03  0.90531806512E+02 0.  0.
         11    1    3    3    0    0  0.66480671222E+02  0.16283146953E+01 -0.16187130781E+02  0.68442342579E+02  0.00000000000E+00 0.  1.
        -11    1    3    3    0    0  0.34079318618E+03  0.12506586579E+03 -0.28435525046E+03  0.46112837150E+03  0.00000000000E+00 0. -1.
         22    1    1    2    0    0 -0.40727385741E+03 -0.12669418048E+03  0.57987234510E+02  0.43044852150E+03  0.00000000000E+00 0.  1.
<mgrwt>
<rscale>  0 0.92887240E+03</rscale>
<asrwt>0</asrwt>
<pdfrwt beam="1">  1        2 0.92505721E-01 0.92887240E+03</pdfrwt>
<pdfrwt beam="2">  1       -2 0.55189546E-01 0.92887240E+03</pdfrwt>
<totfact> 0.15305383E+02</totfact>
</mgrwt>
</event>
<event>
 6    1  0.1817112E-005  0.2121066E+04  0.7818608E-02  0.8552020E-01
         -2   -1    0    0    0  501 -0.00000000000E+00  0.00000000000E+00  0.41564431778E+03  0.41564431778E+03  0.00000000000E+00 0.  1.
          2   -1    0    0  501    0  0.00000000000E+00 -0.00000000000E+00 -0.27059910082E+04  0.27059910082E+04  0.00000000000E+00 0. -1.
         23    2    1    2    0    0 -0.16314974309E+03  0.49087764915E+03  0.21210513128E+03  0.56627941631E+03  0.90028248440E+02 0.  0.
         13    1    3    3    0    0 -0.13430942868E+03  0.46952724911E+03  0.18931124846E+03  0.52376865989E+03  0.00000000000E+00 0.  1.
        -13    1    3    3    0    0 -0.28840314419E+02  0.21350400037E+02  0.22793882820E+02  0.42510756421E+02  0.00000000000E+00 0. -1.
         22    1    1    2    0    0  0.16314974309E+03 -0.49087764915E+03 -0.25024518217E+04  0.25553559097E+04  0.00000000000E+00 0. -1.
<mgrwt>
<rscale>  0 0.21210656E+04</rscale>
<asrwt>0</asrwt>
<pdfrwt beam="1">  1        2 0.41630628E+00 0.21210656E+04</pdfrwt>
<pdfrwt beam="2">  1       -2 0.63945284E-01 0.21210656E+04</pdfrwt>
<totfact> 0.54828015E+00</totfact>
</mgrwt>
</event>
<event>
 6    1  0.1817112E-005  0.1031428E+04  0.7818608E-02  0.9274731E-01
          1   -1    0    0  501    0  0.00000000000E+00  0.00000000000E+00  0.12116742283E+04  0.12116742283E+04  0.00000000000E+00 0. -1.
         -1   -1    0    0    0  501 -0.00000000000E+00 -0.00000000000E+00 -0.21949888665E+03  0.21949888665E+03  0.00000000000E+00 0.  1.
         23    2    1    2    0    0 -0.25334236887E+03  0.26283947588E+03  0.13728117679E+01  0.37525806194E+03  0.86889484380E+02 0.  0.
         13    1    3    3    0    0 -0.61123700827E+02  0.29760198881E+02 -0.23959310608E+02  0.72082069927E+02  0.00000000000E+00 0.  1.
        -13    1    3    3    0    0 -0.19221866804E+03  0.23307927700E+03  0.25332122376E+02  0.30317599201E+03  0.00000000000E+00 0. -1.
         22    1    1    2    0    0  0.25334236887E+03 -0.26283947588E+03  0.99080252985E+03  0.10559150530E+04  0.00000000000E+00 0. -1.
<mgrwt>
<rscale>  0 0.10314284E+04</rscale>
<asrwt>0</asrwt>
<pdfrwt beam="1">  1        1 0.18641142E+00 0.10314284E+04</pdfrwt>
<pdfrwt beam="2">  1       -1 0.33769060E-01 0.10314284E+04</pdfrwt>
<totfact> 0.86670842E+01</totfact>
</mgrwt>
</event>
<event>
 6    1  0.1849154E-005  0.3501702E+04  0.7818608E-02  0.8113387E-01
         -2   -1    0    0    0  501 -0.00000000000E+00  0.00000000000E+00  0.15846908049E+04  0.15846908049E+04  0.00000000000E+00 0.  1.
          2   -1    0    0  501    0  0.00000000000E+00 -0.00000000000E+00 -0.19344336746E+04  0.19344336746E+04  0.00000000000E+00 0. -1.
         23    2    1    2    0    0  0.13395736617E+04 -0.67615228561E+03 -0.10792993881E+04  0.18506244880E+04  0.91018228322E+02 0.  0.
         13    1    3    3    0    0  0.57424478210E+03 -0.24188109282E+03 -0.43110699291E+03  0.75770493740E+03  0.00000000000E+00 0.  1.
        -13    1    3    3    0    0  0.76532887960E+03 -0.43427119279E+03 -0.64819239518E+03  0.10929195506E+04  0.00000000000E+00 0. -1.
         22    1    1    2    0    0 -0.13395736617E+04  0.67615228561E+03  0.72955651836E+03  0.16684999916E+04  0.00000000000E+00 0.  1.
<mgrwt>
<rscale>  0 0.35017020E+04</rscale>
<asrwt>0</asrwt>
<pdfrwt beam="1">  1        2 0.29760518E+00 0.35017020E+04</pdfrwt>
<pdfrwt beam="2">  1       -2 0.24379859E+00 0.35017020E+04</pdfrwt>
<totfact> 0.41896914E-01</totfact>
</mgrwt>
</event>
<event>
 6    1  0.1817112E-005  0.3645086E+04  0.7818608E-02  0.8080242E-01
         -1   -1    0    0    0  501 -0.00000000000E+00  0.00000000000E+00  0.19623373620E+04  0.19623373620E+04  0.00000000000E+00 0.  1.
          1   -1    0    0  501    0  0.00000000000E+00 -0.00000000000E+00 -0.16927069972E+04  0.16927069972E+04  0.00000000000E+00 0. -1.
         23    2    1    2    0    0  0.17024579935E+04 -0.20695154457E+03  0.75001382247E+03  0.18740445198E+04  0.91268652844E+02 0.  0.
         13    1    3    3    0    0  0.15785820229E+04 -0.17588844195E+03  0.71327020113E+03  0.17411525858E+04  0.00000000000E+00 0. -1.
        -13    1    3    3    0    0  0.12387597058E+03 -0.31063102612E+02  0.36743621338E+02  0.13289193406E+03  0.00000000000E+00 0.  1.
         22    1    1    2    0    0 -0.17024579935E+04  0.20695154457E+03 -0.48038345772E+03  0.17809998394E+04  0.00000000000E+00 0. -1.
<mgrwt>
<rscale>  0 0.36450856E+04</rscale>
<asrwt>0</asrwt>
<pdfrwt beam="1">  1        1 0.26041646E+00 0.36450856E+04</pdfrwt>
<pdfrwt beam="2">  1       -1 0.30189806E+00 0.36450856E+04</pdfrwt>
<totfact> 0.12472719E-01</totfact>
</mgrwt>
</event>
<event>
 6    1  0.1817112E-005  0.1550753E+04  0.7818608E-02  0.8851387E-01
          2   -1    0    0  501    0  0.00000000000E+00  0.00000000000E+00  0.20976044262E+04  0.20976044262E+04  0.00000000000E+00 0. -1.
         -2   -1    0    0    0  501 -0.00000000000E+00 -0.00000000000E+00 -0.28661684905E+03  0.28661684905E+03  0.00000000000E+00 0.  1.
         23    2    1    2    0    0  0.41725889881E+03  0.21538430727E+03  0.18520070432E+04  0.19128636775E+04  0.92854575551E+02 0.  0.
         11    1    3    3    0    0  0.20024037043E+03  0.52396037915E+02  0.76948108536E+03  0.79683291315E+03  0.00000000000E+00 0.  1.
        -11    1    3    3    0    0  0.21701852838E+03  0.16298826935E+03  0.10825259578E+04  0.11160307643E+04  0.00000000000E+00 0. -1.
         22    1    1    2    0    0 -0.41725889881E+03 -0.21538430727E+03 -0.41019465951E+02  0.47135759784E+03  0.00000000000E+00 0.  1.
<mgrwt>
<rscale>  0 0.15507531E+04</rscale>
<asrwt>0</asrwt>
<pdfrwt beam="1">  1        2 0.32270836E+00 0.15507531E+04</pdfrwt>
<pdfrwt beam="2">  1       -2 0.44094901E-01 0.15507531E+04</pdfrwt>
<totfact> 0.27684941E+01</totfact>
</mgrwt>
</event>
<event>
 6    1  0.1817112E-005  0.2514505E+04  0.7818608E-02  0.8397836E-01
          2   -1    0    0  501    0  0.00000000000E+00  0.00000000000E+00  0.11407593380E+04  0.11407593380E+04  0.00000000000E+00 0. -1.
         -2   -1    0    0    0  501 -0.00000000000E+00 -0.00000000000E+00 -0.13856416247E+04  0.13856416247E+04  0.00000000000E+00 0.  1.
         23    2    1    2    0    0  0.32053741063E+03 -0.11747618073E+04  0.18485551880E+03  0.12350899557E+04  0.92011414173E+02 0.  0.
         11    1    3    3    0    0  0.78943728761E+02 -0.22647352675E+03  0.35984583290E+01  0.23986521117E+03  0.00000000000E+00 0. -1.
        -11    1    3    3    0    0  0.24159368187E+03 -0.94828828051E+03  0.18125706047E+03  0.99522474449E+03  0.00000000000E+00 0.  1.
         22    1    1    2    0    0 -0.32053741063E+03  0.11747618073E+04 -0.42973780547E+03  0.12913110070E+04  0.00000000000E+00 0.  1.
<mgrwt>
<rscale>  0 0.25145048E+04</rscale>
<asrwt>0</asrwt>
<pdfrwt beam="1">  1        2 0.17550144E+00 0.25145048E+04</pdfrwt>
<pdfrwt beam="2">  1       -2 0.21317563E+00 0.25145048E+04</pdfrwt>
<totfact> 0.20014506E+00</totfact>
</mgrwt>
</event>
<event>
 6    1  0.1825398E-005  0.2752644E+04  0.7818608E-02  0.8318123E-01
         -1   -1    0    0    0  501 -0.00000000000E+00  0.00000000000E+00  0.16660985456E+04  0.16660985456E+04  0.00000000000E+00 0.  1.
          1   -1    0    0  501    0  0.00000000000E+00 -0.00000000000E+00 -0.11369451101E+04  0.11369451101E+04  0.00000000000E+00 0. -1.
         23    2    1    2    0    0 -0.27692246413E+03  0.20144818656E+03  0.16207230722E+04  0.16590193139E+04  0.91292849454E+02 0.  0.
         11    1    3    3    0    0 -0.88488514149E+02  0.11891582547E+03  0.63734827555E+03  0.65435771183E+03  0.00000000000E+00 0. -1.
        -11    1    3    3    0    0 -0.18843394998E+03  0.82532361083E+02  0.98337479661E+03  0.10046616021E+04  0.00000000000E+00 0.  1.
         22    1    1    2    0    0  0.27692246413E+03 -0.20144818656E+03 -0.10915696366E+04  0.11440243418E+04  0.00000000000E+00 0. -1.
<mgrwt>
<rscale>  0 0.27526443E+04</rscale>
<asrwt>0</asrwt>
<pdfrwt beam="1">  1        1 0.17491463E+00 0.27526443E+04</pdfrwt>
<pdfrwt beam="2">  1       -1 0.25632285E+00 0.27526443E+04</pdfrwt>
<totfact> 0.65552337E-01</totfact>
</mgrwt>
</event>
<event>
 6    1  0.1934929E-005  0.2407517E+04  0.7818608E-02  0.8436695E-01
          1   -1    0    0  501    0  0.00000000000E+00  0.00000000000E+00  0.20873004630E+04  0.20873004630E+04  0.00000000000E+00 0. -1.
         -1   -1    0    0    0  501 -0.00000000000E+00 -0.00000000000E+00 -0.69421452265E+03  0.69421452265E+03  0.00000000000E+00 0.  1.
         23    2    1    2    0    0 -0.32369778926E+03 -0.48833603855E+03  0.19102199547E+04  0.20000548560E+04  0.89592445640E+02 0.  0.
         13    1    3    3    0    0 -0.16263367766E+03 -0.26260920580E+03  0.85797932670E+03  0.91188915616E+03  0.00000000000E+00 0.  1.
        -13    1    3    3    0    0 -0.16106411160E+03 -0.22572683276E+03  0.10522406280E+04  0.10881656999E+04  0.00000000000E+00 0. -1.
         22    1    1    2    0    0  0.32369778926E+03  0.48833603855E+03 -0.51713401440E+03  0.78146012961E+03  0.00000000000E+00 0.  1.
<mgrwt>
<rscale>  0 0.24075168E+04</rscale>
<asrwt>0</asrwt>
<pdfrwt beam="1">  1        1 0.32112315E+00 0.24075168E+04</pdfrwt>
<pdfrwt beam="2">  1       -1 0.10680223E+00 0.24075168E+04</pdfrwt>
<totfact> 0.19042484E+00</totfact>
</mgrwt>
</event>
<event>
 6    1  0.1817112E-005  0.3558700E+03  0.7818608E-02  0.1060231E+00
          4   -1    0    0  501    0  0.00000000000E+00  0.00000000000E+00  0.45496260393E+03  0.45496260393E+03  0.00000000000E+00 0. -1.
         -4   -1    0    0    0  501 -0.00000000000E+00 -0.00000000000E+00 -0.69590020653E+02  0.69590020653E+02  0.00000000000E+00 0.  1.
         23    2    1    2    0    0  0.13135141934E+03  0.33931191847E+02  0.34679963631E+03  0.38351222832E+03  0.91690350528E+02 0.  0.
         11    1    3    3    0    0  0.81799686590E+02 -0.85324326973E+01  0.10678945367E+03  0.13478864399E+03  0.00000000000E+00 0.  1.
        -11    1    3    3    0    0  0.49551732747E+02  0.42463624544E+02  0.24001018264E+03  0.24872358432E+03  0.00000000000E+00 0. -1.
         22    1    1    2    0    0 -0.13135141934E+03 -0.33931191847E+02  0.38572946967E+02  0.14104039627E+03  0.00000000000E+00 0. -1.
<mgrwt>
<rscale>  0 0.35586996E+03</rscale>
<asrwt>0</asrwt>
<pdfrwt beam="1">  1        4 0.69994245E-01 0.35586996E+03</pdfrwt>
<pdfrwt beam="2">  1       -4 0.10706157E-01 0.35586996E+03</pdfrwt>
<totfact> 0.24768505E+02</totfact>
</mgrwt>
</event>
<event>
 6    1  0.1817112E-005  0.6325533E+03  0.7818608E-02  0.9840079E-01
          2   -1    0    0  501    0  0.00000000000E+00  0.00000000000E+00  0.49061587866E+04  0.49061587866E+04  0.00000000000E+00 0. -1.
         -2   -1    0    0    0  501 -0.00000000000E+00 -0.00000000000E+00 -0.20388848722E+02  0.20388848722E+02  0.00000000000E+00 0.  1.
         23    2    1    2    0    0 -0.13903317351E+03 -0.64891652686E+01  0.46481985312E+04  0.46512069266E+04  0.92757512559E+02 0.  0.
         11    1    3    3    0    0 -0.67924916530E+02  0.42409933507E+02  0.19993875839E+04  0.20009905316E+04  0.00000000000E+00 0. -1.
        -11    1    3    3    0    0 -0.71108256981E+02 -0.48899098775E+02  0.26488109472E+04  0.26502163950E+04  0.00000000000E+00 0.  1.
         22    1    1    2    0    0  0.13903317351E+03  0.64891652686E+01  0.23757140671E+03  0.27534070874E+03  0.00000000000E+00 0.  1.
<mgrwt>
<rscale>  0 0.63255333E+03</rscale>
<asrwt>0</asrwt>
<pdfrwt beam="1">  1        2 0.75479272E+00 0.63255333E+03</pdfrwt>
<pdfrwt beam="2">  1       -2 0.31367499E-02 0.63255333E+03</pdfrwt>
<totfact> 0.22663633E+01</totfact>
</mgrwt>
</event>
<event>
 6    1  0.1817112E-005  0.5530171E+03  0.7818608E-02  0.1000798E+00
          2   -1    0    0  501    0  0.00000000000E+00  0.00000000000E+00  0.43690288262E+03  0.43690288262E+03  0.00000000000E+00 0.  1.
         -2   -1    0    0    0  501 -0.00000000000E+00 -0.00000000000E+00 -0.17499764462E+03  0.17499764462E+03  0.00000000000E+00 0. -1.
         23    2    1    2    0    0 -0.13933198815E+03 -0.71685528855E+02 -0.10772674823E+03  0.21042820787E+03  0.90126358048E+02 0.  0.
         11    1    3    3    0    0 -0.60712897378E+02 -0.16986543446E+02 -0.94707101923E+02  0.11377184942E+03  0.00000000000E+00 0. -1.
        -11    1    3    3    0    0 -0.78619090775E+02 -0.54698985410E+02 -0.13019646305E+02  0.96656358451E+02  0.00000000000E+00 0.  1.
         22    1    1    2    0    0  0.13933198815E+03  0.71685528855E+02  0.36963198624E+03  0.40147231937E+03  0.00000000000E+00 0.  1.
<mgrwt>
<rscale>  0 0.55301709E+03</rscale>
<asrwt>0</asrwt>
<pdfrwt beam="1">  1        2 0.67215828E-01 0.55301709E+03</pdfrwt>
<pdfrwt beam="2">  1       -2 0.26922715E-01 0.55301709E+03</pdfrwt>
<totfact> 0.90401699E+02</totfact>
</mgrwt>
</event>
<event>
 6    1  0.1817112E-005  0.2435569E+04  0.7818608E-02  0.8426306E-01
          2   -1    0    0  501    0  0.00000000000E+00  0.00000000000E+00  0.17156424181E+04  0.17156424181E+04  0.00000000000E+00 0. -1.
         -2   -1    0    0    0  501 -0.00000000000E+00 -0.00000000000E+00 -0.86439836469E+03  0.86439836469E+03  0.00000000000E+00 0.  1.
         23    2    1    2    0    0  0.68986285682E+03 -0.45752253558E+03  0.13698728078E+04  0.16032023025E+04  0.92024352239E+02 0.  0.
         13    1    3    3    0    0  0.25481625695E+03 -0.20624239098E+03  0.60449968994E+03  0.68766788770E+03  0.00000000000E+00 0.  1.
        -13    1    3    3    0    0  0.43504659987E+03 -0.25128014460E+03  0.76537311783E+03  0.91553441477E+03  0.00000000000E+00 0. -1.
         22    1    1    2    0    0 -0.68986285682E+03  0.45752253558E+03 -0.51862875436E+03  0.97683848032E+03  0.00000000000E+00 0.  1.
<mgrwt>
<rscale>  0 0.24355685E+04</rscale>
<asrwt>0</asrwt>
<pdfrwt beam="1">  1        2 0.26394499E+00 0.24355685E+04</pdfrwt>
<pdfrwt beam="2">  1       -2 0.13298436E+00 0.24355685E+04</pdfrwt>
<totfact> 0.35337166E+00</totfact>
</mgrwt>
</event>
<event>
 6    1  0.1817112E-005  0.1828138E+04  0.7818608E-02  0.8691478E-01
         -2   -1    0    0    0  501 -0.00000000000E+00  0.00000000000E+00  0.36529816976E+03  0.36529816976E+03  0.00000000000E+00 0.  1.
          2   -1    0    0  501    0  0.00000000000E+00 -0.00000000000E+00 -0.22872322812E+04  0.22872322812E+04  0.00000000000E+00 0. -1.
         23    2    1    2    0    0 -0.12793277684E+03 -0.73764136985E+03 -0.20687892565E+03  0.78119513194E+03  0.83578456420E+02 0.  0.
         11    1    3    3    0    0 -0.95070524007E+02 -0.31890750870E+03 -0.10568265435E+03  0.34915501868E+03  0.00000000000E+00 0. -1.
        -11    1    3    3    0    0 -0.32862252830E+02 -0.41873386116E+03 -0.10119627130E+03  0.43204011326E+03  0.00000000000E+00 0.  1.
         22    1    1    2    0    0  0.12793277684E+03  0.73764136985E+03 -0.17150551858E+04  0.18713353190E+04  0.00000000000E+00 0. -1.
<mgrwt>
<rscale>  0 0.18281376E+04</rscale>
<asrwt>0</asrwt>
<pdfrwt beam="1">  1        2 0.35188189E+00 0.18281376E+04</pdfrwt>
<pdfrwt beam="2">  1       -2 0.56199718E-01 0.18281376E+04</pdfrwt>
<totfact> 0.12911221E+01</totfact>
</mgrwt>
</event>
<event>
 6    1  0.1817112E-005  0.1405000E+04  0.7818608E-02  0.8950207E-01
         -2   -1    0    0    0  501 -0.00000000000E+00  0.00000000000E+00  0.18376325956E+03  0.18376325956E+03  0.00000000000E+00 0.  1.
          2   -1    0    0  501    0  0.00000000000E+00 -0.00000000000E+00 -0.26855557501E+04  0.26855557501E+04  0.00000000000E+00 0. -1.
         23    2    1    2    0    0 -0.25818038091E+03  0.33042248710E+03 -0.23996763625E+04  0.24377360713E+04  0.90963617165E+02 0.  0.
         11    1    3    3    0    0 -0.18588105632E+03  0.24164883847E+03 -0.19513292035E+04  0.19750016680E+04  0.00000000000E+00 0. -1.
        -11    1    3    3    0    0 -0.72299324588E+02  0.88773648630E+02 -0.44834715906E+03  0.46273440337E+03  0.00000000000E+00 0.  1.
         22    1    1    2    0    0  0.25818038091E+03 -0.33042248710E+03 -0.10211612805E+03  0.43158293835E+03  0.00000000000E+00 0.  1.
<mgrwt>
<rscale>  0 0.14050003E+04</rscale>
<asrwt>0</asrwt>
<pdfrwt beam="1">  1        2 0.41316241E+00 0.14050003E+04</pdfrwt>
<pdfrwt beam="2">  1       -2 0.28271272E-01 0.14050003E+04</pdfrwt>
<totfact> 0.30339946E+01</totfact>
</mgrwt>
</event>
<event>
 6    1  0.1817112E-005  0.3003750E+04  0.7818608E-02  0.8242661E-01
         -2   -1    0    0    0  501 -0.00000000000E+00  0.00000000000E+00  0.95580853744E+03  0.95580853744E+03  0.00000000000E+00 0. -1.
          2   -1    0    0  501    0  0.00000000000E+00 -0.00000000000E+00 -0.23599164185E+04  0.23599164185E+04  0.00000000000E+00 0.  1.
         23    2    1    2    0    0 -0.84161788585E+03  0.94510643545E+03 -0.15927158417E+04  0.20362251306E+04  0.89006685676E+02 0.  0.
         13    1    3    3    0    0 -0.70530731212E+03  0.75562215004E+03 -0.13375034207E+04  0.16903664214E+04  0.00000000000E+00 0. -1.
        -13    1    3    3    0    0 -0.13631057372E+03  0.18948428542E+03 -0.25521242101E+03  0.34585870925E+03  0.00000000000E+00 0.  1.
         22    1    1    2    0    0  0.84161788585E+03 -0.94510643545E+03  0.18860796065E+03  0.12794998253E+04  0.00000000000E+00 0. -1.
<mgrwt>
<rscale>  0 0.30037498E+04</rscale>
<asrwt>0</asrwt>
<pdfrwt beam="1">  1        2 0.36306406E+00 0.30037498E+04</pdfrwt>
<pdfrwt beam="2">  1       -2 0.14704747E+00 0.30037498E+04</pdfrwt>
<totfact> 0.11325045E+00</totfact>
</mgrwt>
</event>
<event>
 6    1  0.1817112E-005  0.2726910E+04  0.7818608E-02  0.8326326E-01
          1   -1    0    0  501    0  0.00000000000E+00  0.00000000000E+00  0.24241453087E+04  0.24241453087E+04  0.00000000000E+00 0. -1.
         -1   -1    0    0    0  501 -0.00000000000E+00 -0.00000000000E+00 -0.76687223569E+03  0.76687223569E+03  0.00000000000E+00 0.  1.
         23    2    1    2    0    0 -0.54869170161E+03  0.63039082566E+03  0.20878181653E+04  0.22508982684E+04  0.95410413109E+02 0.  0.
         13    1    3    3    0    0 -0.41097882804E+03  0.44527623925E+03  0.14031031469E+04  0.15283562959E+04  0.00000000000E+00 0. -1.
        -13    1    3    3    0    0 -0.13771287357E+03  0.18511458640E+03  0.68471501842E+03  0.72254197255E+03  0.00000000000E+00 0.  1.
         22    1    1    2    0    0  0.54869170161E+03 -0.63039082566E+03 -0.43054509232E+03  0.94011927595E+03  0.00000000000E+00 0.  1.
<mgrwt>
<rscale>  0 0.27269101E+04</rscale>
<asrwt>0</asrwt>
<pdfrwt beam="1">  1        1 0.37294543E+00 0.27269101E+04</pdfrwt>
<pdfrwt beam="2">  1       -1 0.11798035E+00 0.27269101E+04</pdfrwt>
<totfact> 0.85914072E-01</totfact>
</mgrwt>
</event>
<event>
 6    1  0.1817112E-005  0.6368086E+03  0.7818608E-02  0.9831852E-01
          1   -1    0    0  501    0  0.00000000000E+00  0.00000000000E+00  0.46261175190E+03  0.46261175190E+03  0.00000000000E+00 0. -1.
         -1   -1    0    0    0  501 -0.00000000000E+00 -0.00000000000E+00 -0.21914988249E+03  0.21914988249E+03  0.00000000000E+00 0.  1.
         23    2    1    2    0    0  0.17937854656E+03 -0.14310365051E+03  0.35140943540E+03  0.42817142409E+03  0.84775346467E+02 0.  0.
         13    1    3    3    0    0  0.11089629887E+03 -0.89228672249E+02  0.14062776577E+03  0.20008976376E+03  0.00000000000E+00 0.  1.
        -13    1    3    3    0    0  0.68482247690E+02 -0.53874978259E+02  0.21078166963E+03  0.22808166034E+03  0.00000000000E+00 0. -1.
         22    1    1    2    0    0 -0.17937854656E+03  0.14310365051E+03 -0.10794756599E+03  0.25359021030E+03  0.00000000000E+00 0. -1.
<mgrwt>
<rscale>  0 0.63680864E+03</rscale>
<asrwt>0</asrwt>
<pdfrwt beam="1">  1        1 0.71171039E-01 0.63680864E+03</pdfrwt>
<pdfrwt beam="2">  1       -1 0.33715367E-01 0.63680864E+03</pdfrwt>
<totfact> 0.41395900E+02</totfact>
</mgrwt>
</event>
<event>
 6    1  0.1817112E-005  0.3498054E+04  0.7818608E-02  0.8114251E-01
         -2   -1    0    0    0  501 -0.00000000000E+00  0.00000000000E+00  0.10058392868E+04  0.10058392868E+04  0.00000000000E+00 0.  1.
          2   -1    0    0  501    0  0.00000000000E+00 -0.00000000000E+00 -0.30413353570E+04  0.30413353570E+04  0.00000000000E+00 0. -1.
         23    2    1    2    0    0 -0.16414134124E+04  0.52015704513E+03 -0.13658513080E+04  0.21996829795E+04  0.90851927480E+02 0.  0.
         11    1    3    3    0    0 -0.10375699468E+04  0.36910056319E+03 -0.84611068927E+03  0.13887728104E+04  0.00000000000E+00 0.  1.
        -11    1    3    3    0    0 -0.60384346558E+03  0.15105648194E+03 -0.51974061872E+03  0.81091016914E+03  0.00000000000E+00 0. -1.
         22    1    1    2    0    0  0.16414134124E+04 -0.52015704513E+03 -0.66964476215E+03  0.18474916643E+04  0.00000000000E+00 0.  1.
<mgrwt>
<rscale>  0 0.34980535E+04</rscale>
<asrwt>0</asrwt>
<pdfrwt beam="1">  1        2 0.46789774E+00 0.34980535E+04</pdfrwt>
<pdfrwt beam="2">  1       -2 0.15474451E+00 0.34980535E+04</pdfrwt>
<totfact> 0.37132704E-01</totfact>
</mgrwt>
</event>
<event>
 6    1  0.1817112E-005  0.2036940E+04  0.7818608E-02  0.8589542E-01
         -2   -1    0    0    0  501 -0.00000000000E+00  0.00000000000E+00  0.39008124837E+03  0.39008124837E+03  0.00000000000E+00 0.  1.
          2   -1    0    0  501    0  0.00000000000E+00 -0.00000000000E+00 -0.26591421341E+04  0.26591421341E+04  0.00000000000E+00 0. -1.
         23    2    1    2    0    0 -0.55985806482E+03  0.84761805433E+03 -0.11727063547E+04  0.15546028030E+04  0.98245926341E+02 0.  0.
         13    1    3    3    0    0 -0.24557745234E+03  0.28585289468E+03 -0.43554449581E+03  0.57595066657E+03  0.00000000000E+00 0.  1.
        -13    1    3    3    0    0 -0.31428061248E+03  0.56176515965E+03 -0.73716185891E+03  0.97865213647E+03  0.00000000000E+00 0. -1.
         22    1    1    2    0    0  0.55985806482E+03 -0.84761805433E+03 -0.10963545310E+04  0.14946205794E+04  0.00000000000E+00 0. -1.
<mgrwt>
<rscale>  0 0.20369403E+04</rscale>
<asrwt>0</asrwt>
<pdfrwt beam="1">  1        2 0.40909879E+00 0.20369403E+04</pdfrwt>
<pdfrwt beam="2">  1       -2 0.60012500E-01 0.20369403E+04</pdfrwt>
<totfact> 0.67399174E+00</totfact>
</mgrwt>
</event>
<event>
 6    1  0.1817112E-005  0.4613377E+04  0.7818608E-02  0.7891083E-01
          2   -1    0    0  501    0  0.00000000000E+00  0.00000000000E+00  0.21064971297E+04  0.21064971297E+04  0.00000000000E+00 0. -1.
         -2   -1    0    0    0  501 -0.00000000000E+00 -0.00000000000E+00 -0.25259050036E+04  0.25259050036E+04  0.00000000000E+00 0.  1.
         23    2    1    2    0    0 -0.21863790196E+04 -0.48059941238E+03  0.34509972103E+03  0.22668787505E+04  0.91741154682E+02 0.  0.
         13    1    3    3    0    0 -0.55180409475E+03 -0.16202271160E+03  0.93412643932E+02  0.58263628457E+03  0.00000000000E+00 0. -1.
        -13    1    3    3    0    0 -0.16345749248E+04 -0.31857670077E+03  0.25168707709E+03  0.16842424659E+04  0.00000000000E+00 0.  1.
         22    1    1    2    0    0  0.21863790196E+04  0.48059941238E+03 -0.76450759491E+03  0.23655233829E+04  0.00000000000E+00 0. -1.
<mgrwt>
<rscale>  0 0.46133769E+04</rscale>
<asrwt>0</asrwt>
<pdfrwt beam="1">  1        2 0.32407648E+00 0.46133769E+04</pdfrwt>
<pdfrwt beam="2">  1       -2 0.38860077E+00 0.46133769E+04</pdfrwt>
<totfact> 0.38537150E-02</totfact>
</mgrwt>
</event>
<event>
 6    1  0.1817112E-005  0.3192769E+04  0.7818608E-02  0.8190730E-01
          2   -1    0    0  501    0  0.00000000000E+00  0.00000000000E+00  0.16308096607E+04  0.16308096607E+04  0.00000000000E+00 0. -1.
         -2   -1    0    0    0  501 -0.00000000000E+00 -0.00000000000E+00 -0.15626857042E+04  0.15626857042E+04  0.00000000000E+00 0.  1.
         23    2    1    2    0    0  0.10363364621E+04  0.10631016324E+04  0.61727930466E+03  0.16105392885E+04  0.92869350684E+02 0.  0.
         11    1    3    3    0    0  0.14822464838E+03  0.15805769868E+03  0.55652461324E+02  0.22371852617E+03  0.00000000000E+00 0.  1.
        -11    1    3    3    0    0  0.88811181369E+03  0.90504393376E+03  0.56162684334E+03  0.13868207623E+04  0.00000000000E+00 0. -1.
         22    1    1    2    0    0 -0.10363364621E+04 -0.10631016324E+04 -0.54915534808E+03  0.15829560764E+04  0.00000000000E+00 0.  1.
<mgrwt>
<rscale>  0 0.31927687E+04</rscale>
<asrwt>0</asrwt>
<pdfrwt beam="1">  1        2 0.25089379E+00 0.31927687E+04</pdfrwt>
<pdfrwt beam="2">  1       -2 0.24041318E+00 0.31927687E+04</pdfrwt>
<totfact> 0.66505273E-01</totfact>
</mgrwt>
</event>
<event>
 6    1  0.1817112E-005  0.4716223E+04  0.7818608E-02  0.7873839E-01
          2   -1    0    0  501    0  0.00000000000E+00  0.00000000000E+00  0.43059909845E+04  0.43059909845E+04  0.00000000000E+00 0. -1.
         -2   -1    0    0    0  501 -0.00000000000E+00 -0.00000000000E+00 -0.12913846750E+04  0.12913846750E+04  0.00000000000E+00 0.  1.
         23    2    1    2    0    0 -0.17547068095E+03  0.19448572190E+03  0.42881763261E+04  0.42971467400E+04  0.91647398658E+02 0.  0.
         11    1    3    3    0    0 -0.11831494405E+03  0.13046316242E+03  0.21317003728E+04  0.21389636608E+04  0.00000000000E+00 0.  1.
        -11    1    3    3    0    0 -0.57155736894E+02  0.64022559484E+02  0.21564759533E+04  0.21581830792E+04  0.00000000000E+00 0. -1.
         22    1    1    2    0    0  0.17547068095E+03 -0.19448572190E+03 -0.12735700166E+04  0.13002289195E+04  0.00000000000E+00 0.  1.
<mgrwt>
<rscale>  0 0.47162234E+04</rscale>
<asrwt>0</asrwt>
<pdfrwt beam="1">  1        2 0.66246014E+00 0.47162234E+04</pdfrwt>
<pdfrwt beam="2">  1       -2 0.19867457E+00 0.47162234E+04</pdfrwt>
<totfact> 0.18795573E-02</totfact>
</mgrwt>
</event>
<event>
 6    1  0.1817112E-005  0.2063218E+04  0.7818608E-02  0.8577622E-01
         -2   -1    0    0    0  501 -0.00000000000E+00  0.00000000000E+00  0.68809952330E+03  0.68809952330E+03  0.00000000000E+00 0.  1.
          2   -1    0    0  501    0  0.00000000000E+00 -0.00000000000E+00 -0.15466030291E+04  0.15466030291E+04  0.00000000000E+00 0. -1.
         23    2    1    2    0    0  0.60972696117E+03 -0.82926244769E+03 -0.44559943816E+03  0.11256791336E+04  0.95663359037E+02 0.  0.
         11    1    3    3    0    0  0.32578949153E+03 -0.38132994757E+03 -0.25012490624E+03  0.56045855371E+03  0.00000000000E+00 0. -1.
        -11    1    3    3    0    0  0.28393746963E+03 -0.44793250012E+03 -0.19547453192E+03  0.56522057991E+03  0.00000000000E+00 0.  1.
         22    1    1    2    0    0 -0.60972696117E+03  0.82926244769E+03 -0.41290406763E+03  0.11090234188E+04  0.00000000000E+00 0.  1.
<mgrwt>
<rscale>  0 0.20632177E+04</rscale>
<asrwt>0</asrwt>
<pdfrwt beam="1">  1        2 0.23793893E+00 0.20632177E+04</pdfrwt>
<pdfrwt beam="2">  1       -2 0.10586147E+00 0.20632177E+04</pdfrwt>
<totfact> 0.79613838E+00</totfact>
</mgrwt>
</event>
<event>
 6    1  0.1817112E-005  0.1169460E+04  0.7818608E-02  0.9140016E-01
         -2   -1    0    0    0  501 -0.00000000000E+00  0.00000000000E+00  0.35401624446E+03  0.35401624446E+03  0.00000000000E+00 0.  1.
          2   -1    0    0  501    0  0.00000000000E+00 -0.00000000000E+00 -0.96580069046E+03  0.96580069046E+03  0.00000000000E+00 0. -1.
         23    2    1    2    0    0  0.54892226354E+03  0.64444685826E+02 -0.50974144665E+03  0.75778353497E+03  0.94502775021E+02 0.  0.
         11    1    3    3    0    0  0.34040334018E+03  0.60268202089E+02 -0.26090159424E+03  0.43310083360E+03  0.00000000000E+00 0.  1.
        -11    1    3    3    0    0  0.20851892336E+03  0.41764837376E+01 -0.24883985242E+03  0.32468270137E+03  0.00000000000E+00 0. -1.
         22    1    1    2    0    0 -0.54892226354E+03 -0.64444685826E+02 -0.10204299934E+03  0.56203339995E+03  0.00000000000E+00 0. -1.
<mgrwt>
<rscale>  0 0.11694599E+04</rscale>
<asrwt>0</asrwt>
<pdfrwt beam="1">  1        2 0.14858472E+00 0.11694599E+04</pdfrwt>
<pdfrwt beam="2">  1       -2 0.54464039E-01 0.11694599E+04</pdfrwt>
<totfact> 0.83158243E+01</totfact>
</mgrwt>
</event>
<event>
 6    1  0.1817112E-005  0.2194313E+04  0.7818608E-02  0.8520799E-01
          2   -1    0    0  501    0  0.00000000000E+00  0.00000000000E+00  0.15375896142E+04  0.15375896142E+04  0.00000000000E+00 0.  1.
         -2   -1    0    0    0  501 -0.00000000000E+00 -0.00000000000E+00 -0.78288252119E+03  0.78288252119E+03  0.00000000000E+00 0. -1.
         23    2    1    2    0    0  0.10879985393E+04  0.73180540530E+02  0.27650620459E+03  0.11297696945E+04  0.10405608296E+03 0.  0.
         11    1    3    3    0    0  0.67426501316E+03  0.44046842824E-01  0.14685449553E+03  0.69007213591E+03  0.00000000000E+00 0. -1.
        -11    1    3    3    0    0  0.41373352616E+03  0.73136493688E+02  0.12965170906E+03  0.43969755860E+03  0.00000000000E+00 0.  1.
         22    1    1    2    0    0 -0.10879985393E+04 -0.73180540530E+02  0.47820088845E+03  0.11907024409E+04  0.00000000000E+00 0.  1.
<mgrwt>
<rscale>  0 0.21943127E+04</rscale>
<asrwt>0</asrwt>
<pdfrwt beam="1">  1        2 0.23655225E+00 0.21943127E+04</pdfrwt>
<pdfrwt beam="2">  1       -2 0.12044347E+00 0.21943127E+04</pdfrwt>
<totfact> 0.58174732E+00</totfact>
</mgrwt>
</event>
<event>
 6    1  0.1817112E-005  0.6782053E+03  0.7818608E-02  0.9755247E-01
          2   -1    0    0  501    0  0.00000000000E+00  0.00000000000E+00  0.12332727329E+04  0.12332727329E+04  0.00000000000E+00 0. -1.
         -2   -1    0    0    0  501 -0.00000000000E+00 -0.00000000000E+00 -0.93240204532E+02  0.93240204532E+02  0.00000000000E+00 0.  1.
         23    2    1    2    0    0  0.25134640712E+03  0.18862596117E+03  0.36324043118E+03  0.48856262157E+03  0.89415070056E+02 0.  0.
         11    1    3    3    0    0  0.22810863607E+03  0.18201700499E+03  0.36113993319E+03  0.46431217010E+03  0.00000000000E+00 0.  1.
        -11    1    3    3    0    0  0.23237771042E+02  0.66089561797E+01  0.21004979922E+01  0.24250451472E+02  0.00000000000E+00 0. -1.
         22    1    1    2    0    0 -0.25134640712E+03 -0.18862596117E+03  0.77679209718E+03  0.83795031585E+03  0.00000000000E+00 0. -1.
<mgrwt>
<rscale>  0 0.67820528E+03</rscale>
<asrwt>0</asrwt>
<pdfrwt beam="1">  1        2 0.18973426E+00 0.67820528E+03</pdfrwt>
<pdfrwt beam="2">  1       -2 0.14344648E-01 0.67820528E+03</pdfrwt>
<totfact> 0.69096649E+02</totfact>
</mgrwt>
</event>
<event>
 6    1  0.1817112E-005  0.1308488E+04  0.7818608E-02  0.9022861E-01
          2   -1    0    0  501    0  0.00000000000E+00  0.00000000000E+00  0.20081125021E+04  0.20081125021E+04  0.00000000000E+00 0.  1.
         -2   -1    0    0    0  501 -0.00000000000E+00 -0.00000000000E+00 -0.21315316557E+03  0.21315316557E+03  0.00000000000E+00 0. -1.
         23    2    1    2    0    0  0.12624110343E+03 -0.62394470617E+03  0.67137710729E+03  0.92987849164E+03  0.93182490096E+02 0.  0.
         13    1    3    3    0    0  0.71100581894E+02 -0.15972764190E+03  0.20693135294E+03  0.27090366768E+03  0.00000000000E+00 0.  1.
        -13    1    3    3    0    0  0.55140521539E+02 -0.46421706427E+03  0.46444575435E+03  0.65897482396E+03  0.00000000000E+00 0. -1.
         22    1    1    2    0    0 -0.12624110343E+03  0.62394470617E+03  0.11235822292E+04  0.12913871760E+04  0.00000000000E+00 0.  1.
<mgrwt>
<rscale>  0 0.13084885E+04</rscale>
<asrwt>0</asrwt>
<pdfrwt beam="1">  1        2 0.30894037E+00 0.13084885E+04</pdfrwt>
<pdfrwt beam="2">  1       -2 0.32792796E-01 0.13084885E+04</pdfrwt>
<totfact> 0.56228912E+01</totfact>
</mgrwt>
</event>
<event>
 6    1  0.1817112E-005  0.3087179E+04  0.7818608E-02  0.8219265E-01
          2   -1    0    0  501    0  0.00000000000E+00  0.00000000000E+00  0.19228495434E+04  0.19228495434E+04  0.00000000000E+00 0. -1.
         -2   -1    0    0    0  501 -0.00000000000E+00 -0.00000000000E+00 -0.12391342781E+04  0.12391342781E+04  0.00000000000E+00 0.  1.
         23    2    1    2    0    0 -0.68226825074E+03 -0.57680833248E+03 -0.94543956920E+03  0.13039355732E+04  0.90521718640E+02 0.  0.
         13    1    3    3    0    0 -0.35217588371E+03 -0.35654953559E+03 -0.52487909635E+03  0.72570895694E+03  0.00000000000E+00 0. -1.
        -13    1    3    3    0    0 -0.33009236702E+03 -0.22025879690E+03 -0.42056047285E+03  0.57822661622E+03  0.00000000000E+00 0.  1.
         22    1    1    2    0    0  0.68226825074E+03  0.57680833248E+03  0.16291548345E+04  0.18580482484E+04  0.00000000000E+00 0. -1.
<mgrwt>
<rscale>  0 0.30871792E+04</rscale>
<asrwt>0</asrwt>
<pdfrwt beam="1">  1        2 0.29582301E+00 0.30871792E+04</pdfrwt>
<pdfrwt beam="2">  1       -2 0.19063604E+00 0.30871792E+04</pdfrwt>
<totfact> 0.96212665E-01</totfact>
</mgrwt>
</event>
<event>
 6    1  0.1817112E-005  0.2308665E+04  0.7818608E-02  0.8474513E-01
         -2   -1    0    0    0  501 -0.00000000000E+00  0.00000000000E+00  0.55723638040E+03  0.55723638040E+03  0.00000000000E+00 0.  1.
          2   -1    0    0  501    0  0.00000000000E+00 -0.00000000000E+00 -0.23912347120E+04  0.23912347120E+04  0.00000000000E+00 0. -1.
         23    2    1    2    0    0 -0.11376345197E+04 -0.11814234056E+03 -0.10994244385E+04  0.15891445247E+04  0.92066885554E+02 0.  0.
         11    1    3    3    0    0 -0.84589437957E+03 -0.84108252126E+02 -0.75987090039E+03  0.11401821279E+04  0.00000000000E+00 0. -1.
        -11    1    3    3    0    0 -0.29174014016E+03 -0.34034088439E+02 -0.33955353807E+03  0.44896239683E+03  0.00000000000E+00 0.  1.
         22    1    1    2    0    0  0.11376345197E+04  0.11814234056E+03 -0.73457389314E+03  0.13593265677E+04  0.00000000000E+00 0. -1.
<mgrwt>
<rscale>  0 0.23086645E+04</rscale>
<asrwt>0</asrwt>
<pdfrwt beam="1">  1        2 0.36788227E+00 0.23086645E+04</pdfrwt>
<pdfrwt beam="2">  1       -2 0.85728673E-01 0.23086645E+04</pdfrwt>
<totfact> 0.43050917E+00</totfact>
</mgrwt>
</event>
<event>
 6    1  0.1817112E-005  0.1381328E+04  0.7818608E-02  0.8967446E-01
         -2   -1    0    0    0  501 -0.00000000000E+00  0.00000000000E+00  0.30681533423E+04  0.30681533423E+04  0.00000000000E+00 0.  1.
          2   -1    0    0  501    0  0.00000000000E+00 -0.00000000000E+00 -0.15547363591E+03  0.15547363591E+03  0.00000000000E+00 0. -1.
         23    2    1    2    0    0 -0.15813145208E+03  0.50971286141E+03  0.24751286769E+04  0.25335083937E+04  0.87120931847E+02 0.  0.
         11    1    3    3    0    0 -0.14141182266E+02  0.72105270034E+02  0.22468047342E+03  0.23639047811E+03  0.00000000000E+00 0. -1.
        -11    1    3    3    0    0 -0.14399026982E+03  0.43760759137E+03  0.22504482035E+04  0.22971179156E+04  0.00000000000E+00 0.  1.
         22    1    1    2    0    0  0.15813145208E+03 -0.50971286141E+03  0.43755102949E+03  0.69011858447E+03  0.00000000000E+00 0. -1.
<mgrwt>
<rscale>  0 0.13813283E+04</rscale>
<asrwt>0</asrwt>
<pdfrwt beam="1">  1        2 0.23919023E-01 0.13813283E+04</pdfrwt>
<pdfrwt beam="2">  1       -2 0.47202355E+00 0.13813283E+04</pdfrwt>
<totfact> 0.56557699E-01</totfact>
</mgrwt>
</event>
<event>
 6    1  0.1817112E-005  0.3885299E+04  0.7818608E-02  0.8028094E-01
          2   -1    0    0  501    0  0.00000000000E+00  0.00000000000E+00  0.29675229983E+04  0.29675229983E+04  0.00000000000E+00 0. -1.
         -2   -1    0    0    0  501 -0.00000000000E+00 -0.00000000000E+00 -0.12717299356E+04  0.12717299356E+04  0.00000000000E+00 0.  1.
         23    2    1    2    0    0 -0.81972115927E+03  0.29345842030E+03  0.27418653560E+04  0.28782504114E+04  0.91864992327E+02 0.  0.
         11    1    3    3    0    0 -0.78736366240E+03  0.27487579899E+03  0.26709204603E+04  0.27980911970E+04  0.00000000000E+00 0.  1.
        -11    1    3    3    0    0 -0.32357496876E+02  0.18582621306E+02  0.70944895760E+02  0.80159214399E+02  0.00000000000E+00 0. -1.
         22    1    1    2    0    0  0.81972115927E+03 -0.29345842030E+03 -0.10460722933E+04  0.13610025225E+04  0.00000000000E+00 0.  1.
<mgrwt>
<rscale>  0 0.38852994E+04</rscale>
<asrwt>0</asrwt>
<pdfrwt beam="1">  1        2 0.45654200E+00 0.38852994E+04</pdfrwt>
<pdfrwt beam="2">  1       -2 0.19565076E+00 0.38852994E+04</pdfrwt>
<totfact> 0.20631198E-01</totfact>
</mgrwt>
</event>
<event>
 6    1  0.1817112E-005  0.2267939E+04  0.7818608E-02  0.8490671E-01
          3   -1    0    0  501    0  0.00000000000E+00  0.00000000000E+00  0.14432781790E+04  0.14432781790E+04  0.00000000000E+00 0. -1.
         -3   -1    0    0    0  501 -0.00000000000E+00 -0.00000000000E+00 -0.89094850116E+03  0.89094850116E+03  0.00000000000E+00 0.  1.
         23    2    1    2    0    0 -0.95430122607E+03 -0.60221533127E+03  0.37081366816E+03  0.11912909002E+04  0.91198120141E+02 0.  0.
         11    1    3    3    0    0 -0.72472307941E+03 -0.41196576102E+03  0.26067292610E+03  0.87343557547E+03  0.00000000000E+00 0.  1.
        -11    1    3    3    0    0 -0.22957814666E+03 -0.19024957025E+03  0.11014074206E+03  0.31785532474E+03  0.00000000000E+00 0. -1.
         22    1    1    2    0    0  0.95430122607E+03  0.60221533127E+03  0.18151600966E+03  0.11429357799E+04  0.00000000000E+00 0.  1.
<mgrwt>
<rscale>  0 0.22679387E+04</rscale>
<asrwt>0</asrwt>
<pdfrwt beam="1">  1        3 0.22204280E+00 0.22679387E+04</pdfrwt>
<pdfrwt beam="2">  1       -3 0.13706900E+00 0.22679387E+04</pdfrwt>
<totfact> 0.10390379E-01</totfact>
</mgrwt>
</event>
<event>
 6    1  0.1922944E-005  0.3495127E+04  0.7818608E-02  0.8114946E-01
         -2   -1    0    0    0  501 -0.00000000000E+00  0.00000000000E+00  0.14683775272E+04  0.14683775272E+04  0.00000000000E+00 0.  1.
          2   -1    0    0  501    0  0.00000000000E+00 -0.00000000000E+00 -0.20798319231E+04  0.20798319231E+04  0.00000000000E+00 0. -1.
         23    2    1    2    0    0 -0.27843543119E+03 -0.17221413650E+04 -0.22474949790E+03  0.17613580719E+04  0.92589148767E+02 0.  0.
         11    1    3    3    0    0 -0.52531641412E+02 -0.59884573864E+03 -0.72537481633E+02  0.60550596882E+03  0.00000000000E+00 0. -1.
        -11    1    3    3    0    0 -0.22590378978E+03 -0.11232956263E+04 -0.15221201627E+03  0.11558521031E+04  0.00000000000E+00 0.  1.
         22    1    1    2    0    0  0.27843543119E+03  0.17221413650E+04 -0.38670489797E+03  0.17868513784E+04  0.00000000000E+00 0. -1.
<mgrwt>
<rscale>  0 0.34951272E+04</rscale>
<asrwt>0</asrwt>
<pdfrwt beam="1">  1        2 0.31997414E+00 0.34951272E+04</pdfrwt>
<pdfrwt beam="2">  1       -2 0.22590424E+00 0.34951272E+04</pdfrwt>
<totfact> 0.44968655E-01</totfact>
</mgrwt>
</event>
<event>
 6    1  0.1817112E-005  0.3813013E+04  0.7818608E-02  0.8043368E-01
          1   -1    0    0  501    0  0.00000000000E+00  0.00000000000E+00  0.20950165811E+04  0.20950165811E+04  0.00000000000E+00 0. -1.
         -1   -1    0    0    0  501 -0.00000000000E+00 -0.00000000000E+00 -0.17349588807E+04  0.17349588807E+04  0.00000000000E+00 0.  1.
         23    2    1    2    0    0 -0.22545808883E+03 -0.20819922430E+03  0.20690562007E+04  0.20936419279E+04  0.90358695236E+02 0.  0.
         11    1    3    3    0    0 -0.21613371401E+03 -0.15549862511E+03  0.17447575540E+04  0.17649568060E+04  0.00000000000E+00 0.  1.
        -11    1    3    3    0    0 -0.93243748118E+01 -0.52700599193E+02  0.32429864670E+03  0.32868512192E+03  0.00000000000E+00 0. -1.
         22    1    1    2    0    0  0.22545808883E+03  0.20819922430E+03 -0.17089985003E+04  0.17363335338E+04  0.00000000000E+00 0.  1.
<mgrwt>
<rscale>  0 0.38130133E+04</rscale>
<asrwt>0</asrwt>
<pdfrwt beam="1">  1        1 0.32231024E+00 0.38130133E+04</pdfrwt>
<pdfrwt beam="2">  1       -1 0.26691675E+00 0.38130133E+04</pdfrwt>
<totfact> 0.11045783E-01</totfact>
</mgrwt>
</event>
<event>
 6    1  0.1817112E-005  0.3015624E+04  0.7818608E-02  0.8239283E-01
         -2   -1    0    0    0  501 -0.00000000000E+00  0.00000000000E+00  0.20197543732E+04  0.20197543732E+04  0.00000000000E+00 0. -1.
          2   -1    0    0  501    0  0.00000000000E+00 -0.00000000000E+00 -0.11256303119E+04  0.11256303119E+04  0.00000000000E+00 0.  1.
         23    2    1    2    0    0  0.46577292848E+03 -0.14307150660E+04  0.37114952925E+03  0.15524652326E+04  0.92229627816E+02 0.  0.
         13    1    3    3    0    0  0.15607821104E+03 -0.53628169139E+03  0.18004501251E+03  0.58683444600E+03  0.00000000000E+00 0. -1.
        -13    1    3    3    0    0  0.30969471743E+03 -0.89443337462E+03  0.19110451673E+03  0.96563078656E+03  0.00000000000E+00 0.  1.
         22    1    1    2    0    0 -0.46577292848E+03  0.14307150660E+04  0.52297453212E+03  0.15929194525E+04  0.00000000000E+00 0. -1.
<mgrwt>
<rscale>  0 0.30156238E+04</rscale>
<asrwt>0</asrwt>
<pdfrwt beam="1">  1        2 0.17317389E+00 0.30156238E+04</pdfrwt>
<pdfrwt beam="2">  1       -2 0.31073144E+00 0.30156238E+04</pdfrwt>
<totfact> 0.49048792E-01</totfact>
</mgrwt>
</event>
<event>
 6    1  0.1817112E-005  0.2400737E+04  0.7818608E-02  0.8439228E-01
         -1   -1    0    0    0  501 -0.00000000000E+00  0.00000000000E+00  0.71036291367E+03  0.71036291367E+03  0.00000000000E+00 0.  1.
          1   -1    0    0  501    0  0.00000000000E+00 -0.00000000000E+00 -0.20283776691E+04  0.20283776691E+04  0.00000000000E+00 0. -1.
         23    2    1    2    0    0 -0.43208318073E+03 -0.91096205853E+03  0.79769157870E+02  0.10152709383E+04  0.88680394946E+02 0.  0.
         11    1    3    3    0    0 -0.69348863253E+02 -0.20037874576E+03 -0.10917935354E+02  0.21232076652E+03  0.00000000000E+00 0.  1.
        -11    1    3    3    0    0 -0.36273431748E+03 -0.71058331278E+03  0.90687093224E+02  0.80295017177E+03  0.00000000000E+00 0. -1.
         22    1    1    2    0    0  0.43208318073E+03  0.91096205853E+03 -0.13977839133E+04  0.17234696445E+04  0.00000000000E+00 0. -1.
<mgrwt>
<rscale>  0 0.24007368E+04</rscale>
<asrwt>0</asrwt>
<pdfrwt beam="1">  1        1 0.31205810E+00 0.24007368E+04</pdfrwt>
<pdfrwt beam="2">  1       -1 0.10928660E+00 0.24007368E+04</pdfrwt>
<totfact> 0.19792952E+00</totfact>
</mgrwt>
</event>
<event>
 6    1  0.1817112E-005  0.2689855E+04  0.7818608E-02  0.8338304E-01
          2   -1    0    0  501    0  0.00000000000E+00  0.00000000000E+00  0.22347875933E+04  0.22347875933E+04  0.00000000000E+00 0. -1.
         -2   -1    0    0    0  501 -0.00000000000E+00 -0.00000000000E+00 -0.80939706636E+03  0.80939706636E+03  0.00000000000E+00 0.  1.
         23    2    1    2    0    0  0.38175190295E+02 -0.49132644058E+03  0.21279237500E+04  0.21860401812E+04  0.88618120468E+02 0.  0.
         13    1    3    3    0    0  0.66921976978E+02 -0.32768160803E+03  0.14436110629E+04  0.14818457032E+04  0.00000000000E+00 0.  1.
        -13    1    3    3    0    0 -0.28746786683E+02 -0.16364483255E+03  0.68431268712E+03  0.70419447791E+03  0.00000000000E+00 0. -1.
         22    1    1    2    0    0 -0.38175190295E+02  0.49132644058E+03 -0.70253322312E+03  0.85814447848E+03  0.00000000000E+00 0.  1.
<mgrwt>
<rscale>  0 0.26898554E+04</rscale>
<asrwt>0</asrwt>
<pdfrwt beam="1">  1        2 0.34381347E+00 0.26898554E+04</pdfrwt>
<pdfrwt beam="2">  1       -2 0.12452263E+00 0.26898554E+04</pdfrwt>
<totfact> 0.20978169E+00</totfact>
</mgrwt>
</event>
<event>
 6    1  0.1817112E-005  0.3268139E+04  0.7818608E-02  0.8171050E-01
          2   -1    0    0  501    0  0.00000000000E+00  0.00000000000E+00  0.97362617066E+03  0.97362617066E+03  0.00000000000E+00 0. -1.
         -2   -1    0    0    0  501 -0.00000000000E+00 -0.00000000000E+00 -0.27425129302E+04  0.27425129302E+04  0.00000000000E+00 0.  1.
         23    2    1    2    0    0 -0.10879220195E+04 -0.31584911602E+03 -0.22221794627E+04  0.24959713832E+04  0.91959754832E+02 0.  0.
         11    1    3    3    0    0 -0.55092933702E+03 -0.14968038695E+03 -0.12182737137E+04  0.13454063305E+04  0.00000000000E+00 0. -1.
        -11    1    3    3    0    0 -0.53699268245E+03 -0.16616872907E+03 -0.10039057490E+04  0.11505650527E+04  0.00000000000E+00 0.  1.
         22    1    1    2    0    0  0.10879220195E+04  0.31584911602E+03  0.45329270318E+03  0.12201677177E+04  0.00000000000E+00 0. -1.
<mgrwt>
<rscale>  0 0.32681385E+04</rscale>
<asrwt>0</asrwt>
<pdfrwt beam="1">  1        2 0.14978864E+00 0.32681385E+04</pdfrwt>
<pdfrwt beam="2">  1       -2 0.42192506E+00 0.32681385E+04</pdfrwt>
<totfact> 0.11668280E-01</totfact>
</mgrwt>
</event>
<event>
 6    1  0.1817112E-005  0.7859116E+03  0.7818608E-02  0.9580636E-01
         -2   -1    0    0    0  501 -0.00000000000E+00  0.00000000000E+00  0.18983390395E+03  0.18983390395E+03  0.00000000000E+00 0.  1.
          2   -1    0    0  501    0  0.00000000000E+00 -0.00000000000E+00 -0.81341765573E+03  0.81341765573E+03  0.00000000000E+00 0. -1.
         23    2    1    2    0    0 -0.11387112953E+03  0.21469426422E+03  0.69711752988E+02  0.26859591371E+03  0.90685032523E+02 0.  0.
         11    1    3    3    0    0 -0.60701588427E+02  0.16805433546E+03  0.15250957184E+02  0.17933079546E+03  0.00000000000E+00 0. -1.
        -11    1    3    3    0    0 -0.53169541105E+02  0.46639928765E+02  0.54460795805E+02  0.89265118250E+02  0.00000000000E+00 0.  1.
         22    1    1    2    0    0  0.11387112953E+03 -0.21469426422E+03 -0.69329550477E+03  0.73465564598E+03  0.00000000000E+00 0. -1.
<mgrwt>
<rscale>  0 0.78591157E+03</rscale>
<asrwt>0</asrwt>
<pdfrwt beam="1">  1        2 0.12514118E+00 0.78591157E+03</pdfrwt>
<pdfrwt beam="2">  1       -2 0.29205217E-01 0.78591157E+03</pdfrwt>
<totfact> 0.36482365E+02</totfact>
</mgrwt>
</event>
<event>
 6    1  0.1817112E-005  0.2660801E+04  0.7818608E-02  0.8347837E-01
         -2   -1    0    0    0  501 -0.00000000000E+00  0.00000000000E+00  0.10485304818E+04  0.10485304818E+04  0.00000000000E+00 0.  1.
          2   -1    0    0  501    0  0.00000000000E+00 -0.00000000000E+00 -0.16880439930E+04  0.16880439930E+04  0.00000000000E+00 0. -1.
         23    2    1    2    0    0 -0.11296410174E+04  0.57175137295E+03  0.94349597076E+02  0.12731731211E+04  0.95286353636E+02 0.  0.
         13    1    3    3    0    0 -0.28848785401E+02  0.33774541407E+02  0.50359321519E+01  0.44702714448E+02  0.00000000000E+00 0. -1.
        -13    1    3    3    0    0 -0.11007922320E+04  0.53797683154E+03  0.89313664924E+02  0.12284704066E+04  0.00000000000E+00 0.  1.
         22    1    1    2    0    0  0.11296410174E+04 -0.57175137295E+03 -0.73386310822E+03  0.14634013538E+04  0.00000000000E+00 0. -1.
<mgrwt>
<rscale>  0 0.26608011E+04</rscale>
<asrwt>0</asrwt>
<pdfrwt beam="1">  1        2 0.25969908E+00 0.26608011E+04</pdfrwt>
<pdfrwt beam="2">  1       -2 0.16131238E+00 0.26608011E+04</pdfrwt>
<totfact> 0.21594250E+00</totfact>
</mgrwt>
</event>
<event>
 6    1  0.1817112E-005  0.2334470E+04  0.7818608E-02  0.8464453E-01
          2   -1    0    0  501    0  0.00000000000E+00  0.00000000000E+00  0.95108556264E+03  0.95108556264E+03  0.00000000000E+00 0. -1.
         -2   -1    0    0    0  501 -0.00000000000E+00 -0.00000000000E+00 -0.14325073184E+04  0.14325073184E+04  0.00000000000E+00 0.  1.
         23    2    1    2    0    0 -0.46382073281E+03  0.32786063021E+03  0.79777135331E+03  0.98396533225E+03  0.95532077733E+02 0.  0.
         13    1    3    3    0    0 -0.24125739665E+03  0.21220332932E+03  0.50375388640E+03  0.59749758366E+03  0.00000000000E+00 0.  1.
        -13    1    3    3    0    0 -0.22256333616E+03  0.11565730089E+03  0.29401746691E+03  0.38646774859E+03  0.00000000000E+00 0. -1.
         22    1    1    2    0    0  0.46382073281E+03 -0.32786063021E+03 -0.12791931091E+04  0.13996275488E+04  0.00000000000E+00 0.  1.
<mgrwt>
<rscale>  0 0.23344696E+04</rscale>
<asrwt>0</asrwt>
<pdfrwt beam="1">  1        2 0.14632086E+00 0.23344696E+04</pdfrwt>
<pdfrwt beam="2">  1       -2 0.22038574E+00 0.23344696E+04</pdfrwt>
<totfact> 0.24077546E+00</totfact>
</mgrwt>
</event>
<event>
 6    1  0.1817112E-005  0.7230283E+03  0.7818608E-02  0.9678641E-01
          3   -1    0    0  501    0  0.00000000000E+00  0.00000000000E+00  0.91377122457E+02  0.91377122457E+02  0.00000000000E+00 0. -1.
         -3   -1    0    0    0  501 -0.00000000000E+00 -0.00000000000E+00 -0.14302538047E+04  0.14302538047E+04  0.00000000000E+00 0.  1.
         23    2    1    2    0    0  0.29849474723E+03 -0.16072001168E+03 -0.44926586069E+03  0.56961335899E+03  0.87689958798E+02 0.  0.
         11    1    3    3    0    0  0.71572606465E+02 -0.23722784099E+02 -0.50373648076E+02  0.90680278463E+02  0.00000000000E+00 0. -1.
        -11    1    3    3    0    0  0.22692214077E+03 -0.13699722758E+03 -0.39889221262E+03  0.47893308053E+03  0.00000000000E+00 0.  1.
         22    1    1    2    0    0 -0.29849474723E+03  0.16072001168E+03 -0.88961082152E+03  0.95201756814E+03  0.00000000000E+00 0. -1.
<mgrwt>
<rscale>  0 0.72302829E+03</rscale>
<asrwt>0</asrwt>
<pdfrwt beam="1">  1        3 0.14058020E-01 0.72302829E+03</pdfrwt>
<pdfrwt beam="2">  1       -3 0.22003902E+00 0.72302829E+03</pdfrwt>
<totfact> 0.12589608E+01</totfact>
</mgrwt>
</event>
<event>
 6    1  0.1817112E-005  0.6635951E+04  0.7818608E-02  0.7616191E-01
         -2   -1    0    0    0  501 -0.00000000000E+00  0.00000000000E+00  0.25944010516E+04  0.25944010516E+04  0.00000000000E+00 0. -1.
          2   -1    0    0  501    0  0.00000000000E+00 -0.00000000000E+00 -0.42433534779E+04  0.42433534779E+04  0.00000000000E+00 0.  1.
         23    2    1    2    0    0  0.96940779528E+03 -0.13375396701E+04  0.21396728195E+04  0.27046630600E+04  0.90767013119E+02 0.  0.
         13    1    3    3    0    0  0.65594051885E+03 -0.92427585141E+03  0.15331344170E+04  0.19065793858E+04  0.00000000000E+00 0.  1.
        -13    1    3    3    0    0  0.31346727643E+03 -0.41326381868E+03  0.60653840259E+03  0.79808367421E+03  0.00000000000E+00 0. -1.
         22    1    1    2    0    0 -0.96940779528E+03  0.13375396701E+04 -0.37886252458E+04  0.41330914696E+04  0.00000000000E+00 0.  1.
<mgrwt>
<rscale>  0 0.66359508E+04</rscale>
<asrwt>0</asrwt>
<pdfrwt beam="1">  1        2 0.65282361E+00 0.66359508E+04</pdfrwt>
<pdfrwt beam="2">  1       -2 0.39913863E+00 0.66359508E+04</pdfrwt>
<totfact> 0.10197544E-03</totfact>
</mgrwt>
</event>
<event>
 6    1  0.1817112E-005  0.5707490E+03  0.7818608E-02  0.9968023E-01
          2   -1    0    0  501    0  0.00000000000E+00  0.00000000000E+00  0.47266101058E+03  0.47266101058E+03  0.00000000000E+00 0. -1.
         -2   -1    0    0    0  501 -0.00000000000E+00 -0.00000000000E+00 -0.17229809741E+03  0.17229809741E+03  0.00000000000E+00 0.  1.
         23    2    1    2    0    0 -0.19747921666E+03  0.46788799721E+02  0.36948492386E+03  0.43056441321E+03  0.87632027052E+02 0.  0.
         13    1    3    3    0    0 -0.16796782891E+03  0.67424340953E+02  0.27271340976E+03  0.32731000162E+03  0.00000000000E+00 0.  1.
        -13    1    3    3    0    0 -0.29511387751E+02 -0.20635541231E+02  0.96771514106E+02  0.10325441158E+03  0.00000000000E+00 0. -1.
         22    1    1    2    0    0  0.19747921666E+03 -0.46788799721E+02 -0.69122010692E+02  0.21439469479E+03  0.00000000000E+00 0.  1.
<mgrwt>
<rscale>  0 0.57074896E+03</rscale>
<asrwt>0</asrwt>
<pdfrwt beam="1">  1        2 0.72717078E-01 0.57074896E+03</pdfrwt>
<pdfrwt beam="2">  1       -2 0.26507400E-01 0.57074896E+03</pdfrwt>
<totfact> 0.85037974E+02</totfact>
</mgrwt>
</event>
<event>
 6    1  0.1817112E-005  0.3157753E+04  0.7818608E-02  0.8200065E-01
         -2   -1    0    0    0  501 -0.00000000000E+00  0.00000000000E+00  0.13496586562E+04  0.13496586562E+04  0.00000000000E+00 0.  1.
          2   -1    0    0  501    0  0.00000000000E+00 -0.00000000000E+00 -0.18470228047E+04  0.18470228047E+04  0.00000000000E+00 0. -1.
         23    2    1    2    0    0  0.68356919315E+03  0.85275969408E+03 -0.14003448779E+04  0.17789931541E+04  0.96875836603E+02 0.  0.
         13    1    3    3    0    0  0.31372531139E+03  0.31875538198E+03 -0.54801095621E+03  0.70735038889E+03  0.00000000000E+00 0. -1.
        -13    1    3    3    0    0  0.36984388176E+03  0.53400431210E+03 -0.85233392165E+03  0.10716427652E+04  0.00000000000E+00 0.  1.
         22    1    1    2    0    0 -0.68356919315E+03 -0.85275969408E+03  0.90298072930E+03  0.14176883068E+04  0.00000000000E+00 0.  1.
<mgrwt>
<rscale>  0 0.31577526E+04</rscale>
<asrwt>0</asrwt>
<pdfrwt beam="1">  1        2 0.28415735E+00 0.31577526E+04</pdfrwt>
<pdfrwt beam="2">  1       -2 0.20763980E+00 0.31577526E+04</pdfrwt>
<totfact> 0.81434003E-01</totfact>
</mgrwt>
</event>
<event>
 6    1  0.1817112E-005  0.8613322E+03  0.7818608E-02  0.9475252E-01
         -2   -1    0    0    0  501 -0.00000000000E+00  0.00000000000E+00  0.14536658221E+04  0.14536658221E+04  0.00000000000E+00 0.  1.
          2   -1    0    0  501    0  0.00000000000E+00 -0.00000000000E+00 -0.12759005652E+03  0.12759005652E+03  0.00000000000E+00 0. -1.
         23    2    1    2    0    0  0.34862634804E+03  0.92769686592E+01  0.11192131334E+04  0.11757703163E+04  0.90395828870E+02 0.  0.
         11    1    3    3    0    0  0.26571679712E+03 -0.51380626066E+00  0.70920697175E+03  0.75735078336E+03  0.00000000000E+00 0. -1.
        -11    1    3    3    0    0  0.82909550917E+02  0.97907749198E+01  0.41000616167E+03  0.41841953291E+03  0.00000000000E+00 0.  1.
         22    1    1    2    0    0 -0.34862634804E+03 -0.92769686592E+01  0.20686263212E+03  0.40548556233E+03  0.00000000000E+00 0. -1.
<mgrwt>
<rscale>  0 0.86133223E+03</rscale>
<asrwt>0</asrwt>
<pdfrwt beam="1">  1        2 0.19629241E-01 0.86133223E+03</pdfrwt>
<pdfrwt beam="2">  1       -2 0.22364088E+00 0.86133223E+03</pdfrwt>
<totfact> 0.27590483E+01</totfact>
</mgrwt>
</event>
<event>
 6    1  0.1817112E-005  0.2266516E+04  0.7818608E-02  0.8491242E-01
         -2   -1    0    0    0  501 -0.00000000000E+00  0.00000000000E+00  0.19443320287E+04  0.19443320287E+04  0.00000000000E+00 0.  1.
          2   -1    0    0  501    0  0.00000000000E+00 -0.00000000000E+00 -0.66052160798E+03  0.66052160798E+03  0.00000000000E+00 0. -1.
         23    2    1    2    0    0 -0.29828244355E+03  0.10315624181E+04  0.10527387382E+04  0.15064513602E+04  0.89685066588E+02 0.  0.
         11    1    3    3    0    0 -0.22037000519E+03  0.84459513207E+03  0.81602671236E+03  0.11949073067E+04  0.00000000000E+00 0.  1.
        -11    1    3    3    0    0 -0.77912438360E+02  0.18696728602E+03  0.23671202583E+03  0.31154405349E+03  0.00000000000E+00 0. -1.
         22    1    1    2    0    0  0.29828244355E+03 -0.10315624181E+04  0.23107168254E+03  0.10984022765E+04  0.00000000000E+00 0.  1.
<mgrwt>
<rscale>  0 0.22665157E+04</rscale>
<asrwt>0</asrwt>
<pdfrwt beam="1">  1        2 0.10161871E+00 0.22665157E+04</pdfrwt>
<pdfrwt beam="2">  1       -2 0.29912800E+00 0.22665157E+04</pdfrwt>
<totfact> 0.12897997E+00</totfact>
</mgrwt>
</event>
<event>
 6    1  0.1817112E-005  0.1626217E+04  0.7818608E-02  0.8804602E-01
          2   -1    0    0  501    0  0.00000000000E+00  0.00000000000E+00  0.45385453854E+03  0.45385453854E+03  0.00000000000E+00 0.  1.
         -2   -1    0    0    0  501 -0.00000000000E+00 -0.00000000000E+00 -0.14567336481E+04  0.14567336481E+04  0.00000000000E+00 0. -1.
         23    2    1    2    0    0  0.70952617273E+03 -0.13764374571E+03 -0.93402455882E+03  0.11845619201E+04  0.91716277754E+02 0.  0.
         13    1    3    3    0    0  0.31053392512E+03 -0.14326485298E+02 -0.40677776399E+03  0.51196163538E+03  0.00000000000E+00 0. -1.
        -13    1    3    3    0    0  0.39899224761E+03 -0.12331726042E+03 -0.52724679484E+03  0.67260028474E+03  0.00000000000E+00 0.  1.
         22    1    1    2    0    0 -0.70952617273E+03  0.13764374571E+03 -0.68854550741E+02  0.72602626652E+03  0.00000000000E+00 0.  1.
<mgrwt>
<rscale>  0 0.16262167E+04</rscale>
<asrwt>0</asrwt>
<pdfrwt beam="1">  1        2 0.69823774E-01 0.16262167E+04</pdfrwt>
<pdfrwt beam="2">  1       -2 0.22411287E+00 0.16262167E+04</pdfrwt>
<totfact> 0.61321652E+00</totfact>
</mgrwt>
</event>
<event>
 6    1  0.1817112E-005  0.2423929E+04  0.7818608E-02  0.8430599E-01
          2   -1    0    0  501    0  0.00000000000E+00  0.00000000000E+00  0.72525014994E+03  0.72525014994E+03  0.00000000000E+00 0. -1.
         -2   -1    0    0    0  501 -0.00000000000E+00 -0.00000000000E+00 -0.20253119919E+04  0.20253119919E+04  0.00000000000E+00 0.  1.
         23    2    1    2    0    0 -0.11998231822E+04 -0.36983780161E+02 -0.82581406981E+03  0.14598823140E+04  0.91345631677E+02 0.  0.
         11    1    3    3    0    0 -0.47984186876E+03 -0.54723561474E+01 -0.27746708114E+03  0.55431592690E+03  0.00000000000E+00 0. -1.
        -11    1    3    3    0    0 -0.71998131342E+03 -0.31511424014E+02 -0.54834698867E+03  0.90556638713E+03  0.00000000000E+00 0.  1.
         22    1    1    2    0    0  0.11998231822E+04  0.36983780161E+02 -0.47424777215E+03  0.12906798278E+04  0.00000000000E+00 0.  1.
<mgrwt>
<rscale>  0 0.24239289E+04</rscale>
<asrwt>0</asrwt>
<pdfrwt beam="1">  1        2 0.11157695E+00 0.24239289E+04</pdfrwt>
<pdfrwt beam="2">  1       -2 0.31158646E+00 0.24239289E+04</pdfrwt>
<totfact> 0.94866001E-01</totfact>
</mgrwt>
</event>
<event>
 6    1  0.1817112E-005  0.5259255E+04  0.7818608E-02  0.7789713E-01
          2   -1    0    0  501    0  0.00000000000E+00  0.00000000000E+00  0.20815379064E+04  0.20815379064E+04  0.00000000000E+00 0. -1.
         -2   -1    0    0    0  501 -0.00000000000E+00 -0.00000000000E+00 -0.33220351289E+04  0.33220351289E+04  0.00000000000E+00 0.  1.
         23    2    1    2    0    0 -0.21562876160E+04 -0.58008069891E+03 -0.20458674707E+04  0.30298225984E+04  0.90450923177E+02 0.  0.
         11    1    3    3    0    0 -0.10229590059E+04 -0.23172637627E+03 -0.93782029442E+03  0.14070000518E+04  0.00000000000E+00 0. -1.
        -11    1    3    3    0    0 -0.11333286102E+04 -0.34835432264E+03 -0.11080471763E+04  0.16228225466E+04  0.00000000000E+00 0.  1.
         22    1    1    2    0    0  0.21562876160E+04  0.58008069891E+03  0.80537024825E+03  0.23737504370E+04  0.00000000000E+00 0. -1.
<mgrwt>
<rscale>  0 0.52592555E+04</rscale>
<asrwt>0</asrwt>
<pdfrwt beam="1">  1        2 0.32023660E+00 0.52592555E+04</pdfrwt>
<pdfrwt beam="2">  1       -2 0.51108232E+00 0.52592555E+04</pdfrwt>
<totfact> 0.61128703E-03</totfact>
</mgrwt>
</event>
<event>
 6    1  0.1817112E-005  0.1468220E+04  0.7818608E-02  0.8905866E-01
         -2   -1    0    0    0  501 -0.00000000000E+00  0.00000000000E+00  0.68618220841E+03  0.68618220841E+03  0.00000000000E+00 0. -1.
          2   -1    0    0  501    0  0.00000000000E+00 -0.00000000000E+00 -0.78538502125E+03  0.78538502125E+03  0.00000000000E+00 0.  1.
         23    2    1    2    0    0 -0.43291427831E+03  0.17407219837E+03 -0.61146534513E+03  0.77865395616E+03  0.12122793627E+03 0.  0.
         13    1    3    3    0    0 -0.41828735629E+03  0.15165713878E+03 -0.60522048554E+03  0.75116977861E+03  0.00000000000E+00 0. -1.
        -13    1    3    3    0    0 -0.14626922021E+02  0.22415059589E+02 -0.62448595877E+01  0.27484177547E+02  0.00000000000E+00 0.  1.
         22    1    1    2    0    0  0.43291427831E+03 -0.17407219837E+03  0.51226253228E+03  0.69291327350E+03  0.00000000000E+00 0. -1.
<mgrwt>
<rscale>  0 0.14682196E+04</rscale>
<asrwt>0</asrwt>
<pdfrwt beam="1">  1        2 0.12082846E+00 0.14682196E+04</pdfrwt>
<pdfrwt beam="2">  1       -2 0.10556649E+00 0.14682196E+04</pdfrwt>
<totfact> 0.24811380E+01</totfact>
</mgrwt>
</event>
<event>
 6    1  0.1817112E-005  0.3466519E+04  0.7818608E-02  0.8121771E-01
          2   -1    0    0  501    0  0.00000000000E+00  0.00000000000E+00  0.20674931441E+04  0.20674931441E+04  0.00000000000E+00 0. -1.
         -2   -1    0    0    0  501 -0.00000000000E+00 -0.00000000000E+00 -0.14530587124E+04  0.14530587124E+04  0.00000000000E+00 0.  1.
         23    2    1    2    0    0 -0.41142588188E+03 -0.16822555360E+04  0.29449194826E+03  0.17594107101E+04  0.97701558219E+02 0.  0.
         13    1    3    3    0    0 -0.20682911728E+03 -0.98236289083E+03  0.13436678602E+03  0.10128521937E+04  0.00000000000E+00 0.  1.
        -13    1    3    3    0    0 -0.20459676459E+03 -0.69989264519E+03  0.16012516224E+03  0.74655851643E+03  0.00000000000E+00 0. -1.
         22    1    1    2    0    0  0.41142588188E+03  0.16822555360E+04  0.31994248341E+03  0.17611411464E+04  0.00000000000E+00 0.  1.
<mgrwt>
<rscale>  0 0.34665192E+04</rscale>
<asrwt>0</asrwt>
<pdfrwt beam="1">  1        2 0.31807587E+00 0.34665192E+04</pdfrwt>
<pdfrwt beam="2">  1       -2 0.22354750E+00 0.34665192E+04</pdfrwt>
<totfact> 0.47385910E-01</totfact>
</mgrwt>
</event>
<event>
 6    1  0.1817112E-005  0.2292075E+04  0.7818608E-02  0.8481052E-01
          2   -1    0    0  501    0  0.00000000000E+00  0.00000000000E+00  0.27488491751E+04  0.27488491751E+04  0.00000000000E+00 0. -1.
         -2   -1    0    0    0  501 -0.00000000000E+00 -0.00000000000E+00 -0.47780084637E+03  0.47780084637E+03  0.00000000000E+00 0.  1.
         23    2    1    2    0    0  0.10706529757E+04  0.30307633461E+03  0.15135487311E+04  0.18805598687E+04  0.86732919402E+02 0.  0.
         11    1    3    3    0    0  0.57832446508E+03  0.18381903071E+03  0.75953436628E+03  0.97218366399E+03  0.00000000000E+00 0.  1.
        -11    1    3    3    0    0  0.49232851062E+03  0.11925730390E+03  0.75401436483E+03  0.90837620471E+03  0.00000000000E+00 0. -1.
         22    1    1    2    0    0 -0.10706529757E+04 -0.30307633461E+03  0.75749959761E+03  0.13460901528E+04  0.00000000000E+00 0.  1.
<mgrwt>
<rscale>  0 0.22920754E+04</rscale>
<asrwt>0</asrwt>
<pdfrwt beam="1">  1        2 0.42289987E+00 0.22920754E+04</pdfrwt>
<pdfrwt beam="2">  1       -2 0.73507824E-01 0.22920754E+04</pdfrwt>
<totfact> 0.37612125E+00</totfact>
</mgrwt>
</event>
<event>
 6    1  0.1817112E-005  0.2696421E+04  0.7818608E-02  0.8336167E-01
          2   -1    0    0  501    0  0.00000000000E+00  0.00000000000E+00  0.19671305116E+04  0.19671305116E+04  0.00000000000E+00 0. -1.
         -2   -1    0    0    0  501 -0.00000000000E+00 -0.00000000000E+00 -0.92402207242E+03  0.92402207242E+03  0.00000000000E+00 0.  1.
         23    2    1    2    0    0  0.97746550021E+03  0.71562088311E+03 -0.10859981837E+03  0.12196311325E+04  0.90300201118E+02 0.  0.
         13    1    3    3    0    0  0.56919783682E+03  0.36888454329E+03 -0.83577714898E+02  0.68340852947E+03  0.00000000000E+00 0. -1.
        -13    1    3    3    0    0  0.40826766338E+03  0.34673633982E+03 -0.25022103476E+02  0.53622260301E+03  0.00000000000E+00 0.  1.
         22    1    1    2    0    0 -0.97746550021E+03 -0.71562088311E+03  0.11517082575E+04  0.16715214515E+04  0.00000000000E+00 0. -1.
<mgrwt>
<rscale>  0 0.26964213E+04</rscale>
<asrwt>0</asrwt>
<pdfrwt beam="1">  1        2 0.30263546E+00 0.26964213E+04</pdfrwt>
<pdfrwt beam="2">  1       -2 0.14215724E+00 0.26964213E+04</pdfrwt>
<totfact> 0.21106838E+00</totfact>
</mgrwt>
</event>
<event>
 6    1  0.1817112E-005  0.3148870E+04  0.7818608E-02  0.8202452E-01
         -2   -1    0    0    0  501 -0.00000000000E+00  0.00000000000E+00  0.11170140053E+04  0.11170140053E+04  0.00000000000E+00 0.  1.
          2   -1    0    0  501    0  0.00000000000E+00 -0.00000000000E+00 -0.22191719269E+04  0.22191719269E+04  0.00000000000E+00 0. -1.
         23    2    1    2    0    0 -0.94309204653E+03 -0.12162418923E+04 -0.20582551310E+03  0.15551528793E+04  0.86425617741E+02 0.  0.
         11    1    3    3    0    0 -0.67607251768E+03 -0.84491582352E+03 -0.18076606052E+03  0.10971021678E+04  0.00000000000E+00 0. -1.
        -11    1    3    3    0    0 -0.26701952884E+03 -0.37132606880E+03 -0.25059452579E+02  0.45805071151E+03  0.00000000000E+00 0.  1.
         22    1    1    2    0    0  0.94309204653E+03  0.12162418923E+04 -0.89633240852E+03  0.17810330529E+04  0.00000000000E+00 0. -1.
<mgrwt>
<rscale>  0 0.31488704E+04</rscale>
<asrwt>0</asrwt>
<pdfrwt beam="1">  1        2 0.34141107E+00 0.31488704E+04</pdfrwt>
<pdfrwt beam="2">  1       -2 0.17184831E+00 0.31488704E+04</pdfrwt>
<totfact> 0.88078308E-01</totfact>
</mgrwt>
</event>
<event>
 6    1  0.1817112E-005  0.2016196E+04  0.7818608E-02  0.8599086E-01
         -2   -1    0    0    0  501 -0.00000000000E+00  0.00000000000E+00  0.25343563035E+03  0.25343563035E+03  0.00000000000E+00 0.  1.
          2   -1    0    0  501    0  0.00000000000E+00 -0.00000000000E+00 -0.40099378636E+04  0.40099378636E+04  0.00000000000E+00 0. -1.
         23    2    1    2    0    0 -0.87746821406E+03 -0.26585084511E+02 -0.29210408190E+04  0.30514935460E+04  0.92066073748E+02 0.  0.
         13    1    3    3    0    0 -0.13740454953E+03  0.47362463118E+01 -0.57942897453E+03  0.59551690050E+03  0.00000000000E+00 0. -1.
        -13    1    3    3    0    0 -0.74006366453E+03 -0.31321330822E+02 -0.23416118445E+04  0.24559766455E+04  0.00000000000E+00 0.  1.
         22    1    1    2    0    0  0.87746821406E+03  0.26585084511E+02 -0.83546141424E+03  0.12118799479E+04  0.00000000000E+00 0.  1.
<mgrwt>
<rscale>  0 0.20161956E+04</rscale>
<asrwt>0</asrwt>
<pdfrwt beam="1">  1        2 0.61691353E+00 0.20161956E+04</pdfrwt>
<pdfrwt beam="2">  1       -2 0.38990096E-01 0.20161956E+04</pdfrwt>
<totfact> 0.19575773E+00</totfact>
</mgrwt>
</event>
<event>
 6    1  0.1817112E-005  0.1654802E+04  0.7818608E-02  0.8787571E-01
          2   -1    0    0  501    0  0.00000000000E+00  0.00000000000E+00  0.13801344462E+04  0.13801344462E+04  0.00000000000E+00 0. -1.
         -2   -1    0    0    0  501 -0.00000000000E+00 -0.00000000000E+00 -0.49603290766E+03  0.49603290766E+03  0.00000000000E+00 0.  1.
         23    2    1    2    0    0  0.13044276873E+02  0.45839891369E+03  0.12207828667E+04  0.13072613564E+04  0.91223512082E+02 0.  0.
         13    1    3    3    0    0 -0.78782868729E+01  0.39581186327E+03  0.11078491217E+04  0.11764602734E+04  0.00000000000E+00 0. -1.
        -13    1    3    3    0    0  0.20922563746E+02  0.62587050421E+02  0.11293374499E+03  0.13080108299E+03  0.00000000000E+00 0.  1.
         22    1    1    2    0    0 -0.13044276873E+02 -0.45839891369E+03 -0.33668132813E+03  0.56890599746E+03  0.00000000000E+00 0.  1.
<mgrwt>
<rscale>  0 0.16548016E+04</rscale>
<asrwt>0</asrwt>
<pdfrwt beam="1">  1        2 0.21232837E+00 0.16548016E+04</pdfrwt>
<pdfrwt beam="2">  1       -2 0.76312756E-01 0.16548016E+04</pdfrwt>
<totfact> 0.21794769E+01</totfact>
</mgrwt>
</event>
<event>
 6    1  0.1817112E-005  0.2262173E+04  0.7818608E-02  0.8492987E-01
          2   -1    0    0  501    0  0.00000000000E+00  0.00000000000E+00  0.12991054723E+04  0.12991054723E+04  0.00000000000E+00 0.  1.
         -2   -1    0    0    0  501 -0.00000000000E+00 -0.00000000000E+00 -0.98479800733E+03  0.98479800733E+03  0.00000000000E+00 0. -1.
         23    2    1    2    0    0  0.12130131119E+03 -0.10979309098E+04 -0.79137791596E+02  0.11113142674E+04  0.92683979771E+02 0.  0.
         11    1    3    3    0    0  0.75853394262E+00 -0.37901592913E+03 -0.10851787980E+02  0.37917200742E+03  0.00000000000E+00 0. -1.
        -11    1    3    3    0    0  0.12054277725E+03 -0.71891498065E+03 -0.68286003617E+02  0.73214225998E+03  0.00000000000E+00 0.  1.
         22    1    1    2    0    0 -0.12130131119E+03  0.10979309098E+04  0.39344525659E+03  0.11725892123E+04  0.00000000000E+00 0. -1.
<mgrwt>
<rscale>  0 0.22621728E+04</rscale>
<asrwt>0</asrwt>
<pdfrwt beam="1">  1        2 0.19986238E+00 0.22621728E+04</pdfrwt>
<pdfrwt beam="2">  1       -2 0.15150739E+00 0.22621728E+04</pdfrwt>
<totfact> 0.43921374E+00</totfact>
</mgrwt>
</event>
<event>
 6    1  0.3242338E-005  0.5123484E+04  0.7818608E-02  0.7809736E-01
         -2   -1    0    0    0  501 -0.00000000000E+00  0.00000000000E+00  0.27838888097E+04  0.27838888097E+04  0.00000000000E+00 0.  1.
          2   -1    0    0  501    0  0.00000000000E+00 -0.00000000000E+00 -0.23573218768E+04  0.23573218768E+04  0.00000000000E+00 0. -1.
         23    2    1    2    0    0  0.25272040713E+04 -0.38877526535E+03  0.35736566313E+03  0.25833413700E+04  0.89642577852E+02 0.  0.
         11    1    3    3    0    0  0.77472821825E+03 -0.77717074015E+02  0.11342605650E+03  0.78683494205E+03  0.00000000000E+00 0.  1.
        -11    1    3    3    0    0  0.17524758530E+04 -0.31105819133E+03  0.24393960662E+03  0.17965064279E+04  0.00000000000E+00 0. -1.
         22    1    1    2    0    0 -0.25272040713E+04  0.38877526535E+03  0.69201269789E+02  0.25578693165E+04  0.00000000000E+00 0. -1.
<mgrwt>
<rscale>  0 0.51234840E+04</rscale>
<asrwt>0</asrwt>
<pdfrwt beam="1">  1        2 0.36266490E+00 0.51234840E+04</pdfrwt>
<pdfrwt beam="2">  1       -2 0.42829059E+00 0.51234840E+04</pdfrwt>
<totfact> 0.14679311E-02</totfact>
</mgrwt>
</event>
<event>
 6    1  0.1817112E-005  0.1719687E+04  0.7818608E-02  0.8750215E-01
         -1   -1    0    0    0  501 -0.00000000000E+00  0.00000000000E+00  0.13421099032E+04  0.13421099032E+04  0.00000000000E+00 0.  1.
          1   -1    0    0  501    0  0.00000000000E+00 -0.00000000000E+00 -0.55087226571E+03  0.55087226571E+03  0.00000000000E+00 0. -1.
         23    2    1    2    0    0  0.68563081258E+03 -0.32631915752E+03  0.83494364838E+03  0.11324007998E+04  0.92880954472E+02 0.  0.
         11    1    3    3    0    0  0.58776641041E+03 -0.24267269135E+03  0.68127533376E+03  0.93193104290E+03  0.00000000000E+00 0.  1.
        -11    1    3    3    0    0  0.97864402172E+02 -0.83646466170E+02  0.15366831461E+03  0.20046975690E+03  0.00000000000E+00 0. -1.
         22    1    1    2    0    0 -0.68563081258E+03  0.32631915752E+03 -0.43706010847E+02  0.76058136916E+03  0.00000000000E+00 0. -1.
<mgrwt>
<rscale>  0 0.17196873E+04</rscale>
<asrwt>0</asrwt>
<pdfrwt beam="1">  1        1 0.84749580E-01 0.17196873E+04</pdfrwt>
<pdfrwt beam="2">  1       -1 0.20647845E+00 0.17196873E+04</pdfrwt>
<totfact> 0.49945403E+00</totfact>
</mgrwt>
</event>
<event>
 6    1  0.1817112E-005  0.2553264E+04  0.7818608E-02  0.8384252E-01
         -2   -1    0    0    0  501 -0.00000000000E+00  0.00000000000E+00  0.82854007767E+03  0.82854007767E+03  0.00000000000E+00 0.  1.
          2   -1    0    0  501    0  0.00000000000E+00 -0.00000000000E+00 -0.19670620492E+04  0.19670620492E+04  0.00000000000E+00 0. -1.
         23    2    1    2    0    0 -0.88668641720E+03 -0.92541050826E+02  0.42797383753E+03  0.99319102828E+03  0.92142088631E+02 0.  0.
         13    1    3    3    0    0 -0.78498155166E+03 -0.10886691148E+03  0.39144518731E+03  0.88389896228E+03  0.00000000000E+00 0.  1.
        -13    1    3    3    0    0 -0.10170486555E+03  0.16325860656E+02  0.36528650216E+02  0.10929206599E+03  0.00000000000E+00 0. -1.
         22    1    1    2    0    0  0.88668641720E+03  0.92541050826E+02 -0.15664958090E+04  0.18024110986E+04  0.00000000000E+00 0. -1.
<mgrwt>
<rscale>  0 0.25532644E+04</rscale>
<asrwt>0</asrwt>
<pdfrwt beam="1">  1        2 0.30262493E+00 0.25532644E+04</pdfrwt>
<pdfrwt beam="2">  1       -2 0.12746770E+00 0.25532644E+04</pdfrwt>
<totfact> 0.28248343E+00</totfact>
</mgrwt>
</event>
<event>
 6    1  0.1817112E-005  0.2048722E+04  0.7818608E-02  0.8584174E-01
          2   -1    0    0  501    0  0.00000000000E+00  0.00000000000E+00  0.19043483957E+04  0.19043483957E+04  0.00000000000E+00 0.  1.
         -2   -1    0    0    0  501 -0.00000000000E+00 -0.00000000000E+00 -0.55101015770E+03  0.55101015770E+03  0.00000000000E+00 0. -1.
         23    2    1    2    0    0 -0.74912447634E+03 -0.66940726805E+03  0.90366430906E+03  0.13546768492E+04  0.96159299153E+02 0.  0.
         13    1    3    3    0    0 -0.16207535930E+03 -0.20101059052E+03  0.23203301291E+03  0.34714982165E+03  0.00000000000E+00 0.  1.
        -13    1    3    3    0    0 -0.58704911705E+03 -0.46839667753E+03  0.67163129615E+03  0.10075270276E+04  0.00000000000E+00 0. -1.
         22    1    1    2    0    0  0.74912447634E+03  0.66940726805E+03  0.44967392899E+03  0.11006817042E+04  0.00000000000E+00 0.  1.
<mgrwt>
<rscale>  0 0.20487219E+04</rscale>
<asrwt>0</asrwt>
<pdfrwt beam="1">  1        2 0.29297667E+00 0.20487219E+04</pdfrwt>
<pdfrwt beam="2">  1       -2 0.84770795E-01 0.20487219E+04</pdfrwt>
<totfact> 0.84712682E+00</totfact>
</mgrwt>
</event>
<event>
 6    1  0.1817112E-005  0.1703898E+04  0.7818608E-02  0.8759145E-01
          2   -1    0    0  501    0  0.00000000000E+00  0.00000000000E+00  0.17199229737E+04  0.17199229737E+04  0.00000000000E+00 0. -1.
         -2   -1    0    0    0  501 -0.00000000000E+00 -0.00000000000E+00 -0.42200540481E+03  0.42200540481E+03  0.00000000000E+00 0.  1.
         23    2    1    2    0    0 -0.24510854070E+03  0.80645222863E+03  0.51628071599E+03  0.99240692869E+03  0.88782546842E+02 0.  0.
         11    1    3    3    0    0 -0.12522414097E+03  0.34080461232E+03  0.17702448179E+03  0.40393877805E+03  0.00000000000E+00 0. -1.
        -11    1    3    3    0    0 -0.11988439973E+03  0.46564761631E+03  0.33925623420E+03  0.58846815064E+03  0.00000000000E+00 0.  1.
         22    1    1    2    0    0  0.24510854070E+03 -0.80645222863E+03  0.78163685288E+03  0.11495214498E+04  0.00000000000E+00 0.  1.
<mgrwt>
<rscale>  0 0.17038976E+04</rscale>
<asrwt>0</asrwt>
<pdfrwt beam="1">  1        2 0.26460353E+00 0.17038976E+04</pdfrwt>
<pdfrwt beam="2">  1       -2 0.64923909E-01 0.17038976E+04</pdfrwt>
<totfact> 0.19901017E+01</totfact>
</mgrwt>
</event>
<event>
 6    1  0.1817112E-005  0.1603542E+04  0.7818608E-02  0.8818375E-01
          2   -1    0    0  501    0  0.00000000000E+00  0.00000000000E+00  0.22529929757E+04  0.22529929757E+04  0.00000000000E+00 0.  1.
         -2   -1    0    0    0  501 -0.00000000000E+00 -0.00000000000E+00 -0.28532562148E+03  0.28532562148E+03  0.00000000000E+00 0. -1.
         23    2    1    2    0    0 -0.31063968385E+03  0.48556313753E+03  0.11105018116E+03  0.59427747081E+03  0.92547262872E+02 0.  0.
         11    1    3    3    0    0 -0.18410554965E+03  0.20218047947E+03  0.54211944353E+02  0.27876645171E+03  0.00000000000E+00 0.  1.
        -11    1    3    3    0    0 -0.12653413420E+03  0.28338265806E+03  0.56838236810E+02  0.31551101910E+03  0.00000000000E+00 0. -1.
         22    1    1    2    0    0  0.31063968385E+03 -0.48556313753E+03  0.18566171730E+04  0.19440411263E+04  0.00000000000E+00 0.  1.
<mgrwt>
<rscale>  0 0.16035419E+04</rscale>
<asrwt>0</asrwt>
<pdfrwt beam="1">  1        2 0.34661429E+00 0.16035419E+04</pdfrwt>
<pdfrwt beam="2">  1       -2 0.43896251E-01 0.16035419E+04</pdfrwt>
<totfact> 0.22764222E+01</totfact>
</mgrwt>
</event>
<event>
 6    1  0.1817112E-005  0.1366870E+04  0.7818608E-02  0.8978155E-01
         -2   -1    0    0    0  501 -0.00000000000E+00  0.00000000000E+00  0.36578253959E+03  0.36578253959E+03  0.00000000000E+00 0.  1.
          2   -1    0    0  501    0  0.00000000000E+00 -0.00000000000E+00 -0.12769427123E+04  0.12769427123E+04  0.00000000000E+00 0. -1.
         23    2    1    2    0    0 -0.24879672498E+02 -0.66559234022E+03 -0.62293735620E+03  0.91698111419E+03  0.95766656868E+02 0.  0.
         13    1    3    3    0    0  0.21466923417E+02 -0.51194257691E+03 -0.47782817177E+03  0.70061815034E+03  0.00000000000E+00 0. -1.
        -13    1    3    3    0    0 -0.46346595915E+02 -0.15364976331E+03 -0.14510918443E+03  0.21636296384E+03  0.00000000000E+00 0.  1.
         22    1    1    2    0    0  0.24879672498E+02  0.66559234022E+03 -0.28822281651E+03  0.72574413771E+03  0.00000000000E+00 0.  1.
<mgrwt>
<rscale>  0 0.13668699E+04</rscale>
<asrwt>0</asrwt>
<pdfrwt beam="1">  1        2 0.19645273E+00 0.13668699E+04</pdfrwt>
<pdfrwt beam="2">  1       -2 0.56274236E-01 0.13668699E+04</pdfrwt>
<totfact> 0.49306075E+01</totfact>
</mgrwt>
</event>
<event>
 6    1  0.1817112E-005  0.2817659E+04  0.7818608E-02  0.8297807E-01
          2   -1    0    0  501    0  0.00000000000E+00  0.00000000000E+00  0.25948003818E+04  0.25948003818E+04  0.00000000000E+00 0. -1.
         -2   -1    0    0    0  501 -0.00000000000E+00 -0.00000000000E+00 -0.76491438010E+03  0.76491438010E+03  0.00000000000E+00 0.  1.
         23    2    1    2    0    0  0.74443349927E+03 -0.10305647172E+04  0.16355339443E+04  0.20736286087E+04  0.93378009276E+02 0.  0.
         11    1    3    3    0    0  0.28401451616E+03 -0.43704317478E+03  0.60860087150E+03  0.80129021134E+03  0.00000000000E+00 0. -1.
        -11    1    3    3    0    0  0.46041898310E+03 -0.59352154247E+03  0.10269330728E+04  0.12723383974E+04  0.00000000000E+00 0.  1.
         22    1    1    2    0    0 -0.74443349927E+03  0.10305647172E+04  0.19435205742E+03  0.12860861532E+04  0.00000000000E+00 0.  1.
<mgrwt>
<rscale>  0 0.28176587E+04</rscale>
<asrwt>0</asrwt>
<pdfrwt beam="1">  1        2 0.39920005E+00 0.28176587E+04</pdfrwt>
<pdfrwt beam="2">  1       -2 0.11767914E+00 0.28176587E+04</pdfrwt>
<totfact> 0.14836557E+00</totfact>
</mgrwt>
</event>
<event>
 6    1  0.1817112E-005  0.4780229E+04  0.7818608E-02  0.7863333E-01
         -2   -1    0    0    0  501 -0.00000000000E+00  0.00000000000E+00  0.15490540805E+04  0.15490540805E+04  0.00000000000E+00 0.  1.
          2   -1    0    0  501    0  0.00000000000E+00 -0.00000000000E+00 -0.36878294926E+04  0.36878294926E+04  0.00000000000E+00 0. -1.
         23    2    1    2    0    0  0.79333845053E+03 -0.21530955317E+04 -0.17991357479E+04  0.29172798640E+04  0.91793789388E+02 0.  0.
         11    1    3    3    0    0  0.38600275382E+03 -0.11106898762E+04 -0.87048058149E+03  0.14629991694E+04  0.00000000000E+00 0.  1.
        -11    1    3    3    0    0  0.40733569671E+03 -0.10424056555E+04 -0.92865516642E+03  0.14542806946E+04  0.00000000000E+00 0. -1.
         22    1    1    2    0    0 -0.79333845053E+03  0.21530955317E+04 -0.33963966422E+03  0.23196037091E+04  0.00000000000E+00 0.  1.
<mgrwt>
<rscale>  0 0.47802290E+04</rscale>
<asrwt>0</asrwt>
<pdfrwt beam="1">  1        2 0.56735837E+00 0.47802290E+04</pdfrwt>
<pdfrwt beam="2">  1       -2 0.23831602E+00 0.47802290E+04</pdfrwt>
<totfact> 0.33404575E-02</totfact>
</mgrwt>
</event>
<event>
 6    1  0.1817112E-005  0.1931957E+04  0.7818608E-02  0.8639111E-01
          1   -1    0    0  501    0  0.00000000000E+00  0.00000000000E+00  0.12622523039E+04  0.12622523039E+04  0.00000000000E+00 0. -1.
         -1   -1    0    0    0  501 -0.00000000000E+00 -0.00000000000E+00 -0.73924596982E+03  0.73924596982E+03  0.00000000000E+00 0.  1.
         23    2    1    2    0    0  0.54966148424E+03 -0.59798153448E+03 -0.27516980978E+03  0.86272928068E+03  0.94200449551E+02 0.  0.
         11    1    3    3    0    0  0.26847413209E+03 -0.22347688773E+03 -0.12174512266E+03  0.36992182126E+03  0.00000000000E+00 0. -1.
        -11    1    3    3    0    0  0.28118735215E+03 -0.37450464675E+03 -0.15342468712E+03  0.49280745942E+03  0.00000000000E+00 0.  1.
         22    1    1    2    0    0 -0.54966148424E+03  0.59798153448E+03  0.79817614382E+03  0.11387689930E+04  0.00000000000E+00 0. -1.
<mgrwt>
<rscale>  0 0.19319575E+04</rscale>
<asrwt>0</asrwt>
<pdfrwt beam="1">  1        1 0.19419266E+00 0.19319575E+04</pdfrwt>
<pdfrwt beam="2">  1       -1 0.11373015E+00 0.19319575E+04</pdfrwt>
<totfact> 0.63336498E+00</totfact>
</mgrwt>
</event>
<event>
 6    1  0.1817112E-005  0.1161105E+04  0.7818608E-02  0.9147599E-01
          2   -1    0    0  501    0  0.00000000000E+00  0.00000000000E+00  0.62129779360E+03  0.62129779360E+03  0.00000000000E+00 0. -1.
         -2   -1    0    0    0  501 -0.00000000000E+00 -0.00000000000E+00 -0.54247960738E+03  0.54247960738E+03  0.00000000000E+00 0.  1.
         23    2    1    2    0    0 -0.40151939115E+03  0.18904310755E+03  0.40908426899E+03  0.61057689175E+03  0.92190474655E+02 0.  0.
         13    1    3    3    0    0 -0.34775336821E+03  0.13136281184E+03  0.31062636798E+03  0.48443506677E+03  0.00000000000E+00 0. -1.
        -13    1    3    3    0    0 -0.53766022947E+02  0.57680295718E+02  0.98457901011E+02  0.12614182498E+03  0.00000000000E+00 0.  1.
         22    1    1    2    0    0  0.40151939115E+03 -0.18904310755E+03 -0.33026608277E+03  0.55320050923E+03  0.00000000000E+00 0.  1.
<mgrwt>
<rscale>  0 0.11611053E+04</rscale>
<asrwt>0</asrwt>
<pdfrwt beam="1">  1        2 0.95584276E-01 0.11611053E+04</pdfrwt>
<pdfrwt beam="2">  1       -2 0.83458401E-01 0.11611053E+04</pdfrwt>
<totfact> 0.59094628E+01</totfact>
</mgrwt>
</event>
<event>
 6    1  0.1817112E-005  0.2379869E+04  0.7818608E-02  0.8447079E-01
         -2   -1    0    0    0  501 -0.00000000000E+00  0.00000000000E+00  0.64926096535E+03  0.64926096535E+03  0.00000000000E+00 0.  1.
          2   -1    0    0  501    0  0.00000000000E+00 -0.00000000000E+00 -0.21808558687E+04  0.21808558687E+04  0.00000000000E+00 0. -1.
         23    2    1    2    0    0 -0.26827649517E+03  0.34436831059E+03  0.54701818688E+03  0.70615963343E+03  0.94184499338E+02 0.  0.
         11    1    3    3    0    0 -0.20504276952E+03  0.24637829356E+03  0.33159002945E+03  0.46119057720E+03  0.00000000000E+00 0.  1.
        -11    1    3    3    0    0 -0.63233725645E+02  0.97990017035E+02  0.21542815743E+03  0.24496905623E+03  0.00000000000E+00 0. -1.
         22    1    1    2    0    0  0.26827649517E+03 -0.34436831059E+03 -0.20786130903E+04  0.21239572007E+04  0.00000000000E+00 0. -1.
<mgrwt>
<rscale>  0 0.23798694E+04</rscale>
<asrwt>0</asrwt>
<pdfrwt beam="1">  1        2 0.33551628E+00 0.23798694E+04</pdfrwt>
<pdfrwt beam="2">  1       -2 0.99886303E-01 0.23798694E+04</pdfrwt>
<totfact> 0.39485300E+00</totfact>
</mgrwt>
</event>
<event>
 6    1  0.1817112E-005  0.4598521E+04  0.7818608E-02  0.7893612E-01
          2   -1    0    0  501    0  0.00000000000E+00  0.00000000000E+00  0.33079764807E+04  0.33079764807E+04  0.00000000000E+00 0. -1.
         -2   -1    0    0    0  501 -0.00000000000E+00 -0.00000000000E+00 -0.15981369593E+04  0.15981369593E+04  0.00000000000E+00 0.  1.
         23    2    1    2    0    0  0.85000786964E+03  0.20411633706E+04  0.18499580380E+03  0.22202225921E+04  0.79395385962E+02 0.  0.
         11    1    3    3    0    0  0.66310706899E+03  0.16342704434E+04  0.17512351931E+03  0.17723484743E+04  0.00000000000E+00 0. -1.
        -11    1    3    3    0    0  0.18690080065E+03  0.40689292716E+03  0.98722844889E+01  0.44787411787E+03  0.00000000000E+00 0.  1.
         22    1    1    2    0    0 -0.85000786964E+03 -0.20411633706E+04  0.15248437176E+04  0.26858908479E+04  0.00000000000E+00 0. -1.
<mgrwt>
<rscale>  0 0.45985213E+04</rscale>
<asrwt>0</asrwt>
<pdfrwt beam="1">  1        2 0.50891946E+00 0.45985213E+04</pdfrwt>
<pdfrwt beam="2">  1       -2 0.24586723E+00 0.45985213E+04</pdfrwt>
<totfact> 0.56287071E-02</totfact>
</mgrwt>
</event>
<event>
 6    1  0.1817112E-005  0.4627538E+04  0.7818608E-02  0.7888681E-01
         -2   -1    0    0    0  501 -0.00000000000E+00  0.00000000000E+00  0.16150932830E+04  0.16150932830E+04  0.00000000000E+00 0.  1.
          2   -1    0    0  501    0  0.00000000000E+00 -0.00000000000E+00 -0.33146861764E+04  0.33146861764E+04  0.00000000000E+00 0. -1.
         23    2    1    2    0    0  0.70056387914E+03 -0.16885224252E+04  0.65925315436E+03  0.19454784682E+04  0.91509669420E+02 0.  0.
         13    1    3    3    0    0  0.13055152012E+03 -0.32877257318E+03  0.16607807674E+03  0.39079026581E+03  0.00000000000E+00 0. -1.
        -13    1    3    3    0    0  0.57001235902E+03 -0.13597498520E+04  0.49317507763E+03  0.15546882024E+04  0.00000000000E+00 0.  1.
         22    1    1    2    0    0 -0.70056387914E+03  0.16885224252E+04 -0.23588460477E+04  0.29843009912E+04  0.00000000000E+00 0. -1.
<mgrwt>
<rscale>  0 0.46275382E+04</rscale>
<asrwt>0</asrwt>
<pdfrwt beam="1">  1        2 0.50995172E+00 0.46275382E+04</pdfrwt>
<pdfrwt beam="2">  1       -2 0.24847589E+00 0.46275382E+04</pdfrwt>
<totfact> 0.53556375E-02</totfact>
</mgrwt>
</event>
<event>
 6    1  0.1817112E-005  0.1617219E+04  0.7818608E-02  0.8810039E-01
          2   -1    0    0  501    0  0.00000000000E+00  0.00000000000E+00  0.17044118531E+04  0.17044118531E+04  0.00000000000E+00 0. -1.
         -2   -1    0    0    0  501 -0.00000000000E+00 -0.00000000000E+00 -0.38362147230E+03  0.38362147230E+03  0.00000000000E+00 0.  1.
         23    2    1    2    0    0  0.60733639573E+03  0.41893641051E+03  0.10818447550E+04  0.13124946573E+04  0.88819693666E+02 0.  0.
         11    1    3    3    0    0  0.12025973645E+03  0.12476405264E+03  0.27949276614E+03  0.32885358348E+03  0.00000000000E+00 0. -1.
        -11    1    3    3    0    0  0.48707665928E+03  0.29417235787E+03  0.80235198885E+03  0.98364107385E+03  0.00000000000E+00 0.  1.
         22    1    1    2    0    0 -0.60733639573E+03 -0.41893641051E+03  0.23894562584E+03  0.77553866811E+03  0.00000000000E+00 0.  1.
<mgrwt>
<rscale>  0 0.16172186E+04</rscale>
<asrwt>0</asrwt>
<pdfrwt beam="1">  1        2 0.26221720E+00 0.16172186E+04</pdfrwt>
<pdfrwt beam="2">  1       -2 0.59018689E-01 0.16172186E+04</pdfrwt>
<totfact> 0.25042027E+01</totfact>
</mgrwt>
</event>
<event>
 6    1  0.1817112E-005  0.2276932E+04  0.7818608E-02  0.8487072E-01
         -2   -1    0    0    0  501 -0.00000000000E+00  0.00000000000E+00  0.10818007402E+04  0.10818007402E+04  0.00000000000E+00 0.  1.
          2   -1    0    0  501    0  0.00000000000E+00 -0.00000000000E+00 -0.11980999139E+04  0.11980999139E+04  0.00000000000E+00 0. -1.
         23    2    1    2    0    0 -0.80956281967E+03 -0.78947949515E+03  0.57857841848E+02  0.11357850575E+04  0.89388672307E+02 0.  0.
         11    1    3    3    0    0 -0.70701652812E+03 -0.65308238178E+03  0.30609006072E+02  0.96297761121E+03  0.00000000000E+00 0. -1.
        -11    1    3    3    0    0 -0.10254629154E+03 -0.13639711337E+03  0.27248835776E+02  0.17280744630E+03  0.00000000000E+00 0.  1.
         22    1    1    2    0    0  0.80956281967E+03  0.78947949515E+03 -0.17415701548E+03  0.11441155966E+04  0.00000000000E+00 0. -1.
<mgrwt>
<rscale>  0 0.22769325E+04</rscale>
<asrwt>0</asrwt>
<pdfrwt beam="1">  1        2 0.18432306E+00 0.22769325E+04</pdfrwt>
<pdfrwt beam="2">  1       -2 0.16643088E+00 0.22769325E+04</pdfrwt>
<totfact> 0.38996292E+00</totfact>
</mgrwt>
</event>
<event>
 6    1  0.1817112E-005  0.7963570E+04  0.7818608E-02  0.7485479E-01
         -2   -1    0    0    0  501 -0.00000000000E+00  0.00000000000E+00  0.41314989117E+04  0.41314989117E+04  0.00000000000E+00 0.  1.
          2   -1    0    0  501    0  0.00000000000E+00 -0.00000000000E+00 -0.38374963338E+04  0.38374963338E+04  0.00000000000E+00 0. -1.
         23    2    1    2    0    0 -0.18460463450E+04  0.29893974748E+04 -0.17266875413E+04  0.39159010043E+04  0.91904514412E+02 0.  0.
         11    1    3    3    0    0 -0.67349672102E+03  0.11618004061E+04 -0.63265539593E+03  0.14844631578E+04  0.00000000000E+00 0. -1.
        -11    1    3    3    0    0 -0.11725496240E+04  0.18275970688E+04 -0.10940321454E+04  0.24314378465E+04  0.00000000000E+00 0.  1.
         22    1    1    2    0    0  0.18460463450E+04 -0.29893974748E+04  0.20206901192E+04  0.40530942413E+04  0.00000000000E+00 0.  1.
<mgrwt>
<rscale>  0 0.79635700E+04</rscale>
<asrwt>0</asrwt>
<pdfrwt beam="1">  1        2 0.59038405E+00 0.79635700E+04</pdfrwt>
<pdfrwt beam="2">  1       -2 0.63561522E+00 0.79635700E+04</pdfrwt>
<totfact> 0.10361923E-04</totfact>
</mgrwt>
</event>
<event>
 6    1  0.1817112E-005  0.4114671E+04  0.7818608E-02  0.7981805E-01
          2   -1    0    0  501    0  0.00000000000E+00  0.00000000000E+00  0.31731468185E+04  0.31731468185E+04  0.00000000000E+00 0. -1.
         -2   -1    0    0    0  501 -0.00000000000E+00 -0.00000000000E+00 -0.13338903200E+04  0.13338903200E+04  0.00000000000E+00 0.  1.
         23    2    1    2    0    0 -0.13307944668E+04  0.94030383074E+03  0.22940517188E+04  0.28152854134E+04  0.89294250010E+02 0.  0.
         13    1    3    3    0    0 -0.18546882644E+03  0.14467146277E+03  0.38391073977E+03  0.45023990698E+03  0.00000000000E+00 0.  1.
        -13    1    3    3    0    0 -0.11453256404E+04  0.79563236796E+03  0.19101409790E+04  0.23650455064E+04  0.00000000000E+00 0. -1.
         22    1    1    2    0    0  0.13307944668E+04 -0.94030383074E+03 -0.45479522034E+03  0.16917517251E+04  0.00000000000E+00 0.  1.
<mgrwt>
<rscale>  0 0.41146712E+04</rscale>
<asrwt>0</asrwt>
<pdfrwt beam="1">  1        2 0.48817643E+00 0.41146712E+04</pdfrwt>
<pdfrwt beam="2">  1       -2 0.20521390E+00 0.41146712E+04</pdfrwt>
<totfact> 0.12963554E-01</totfact>
</mgrwt>
</event>
<event>
 6    1  0.1817112E-005  0.1062830E+04  0.7818608E-02  0.9242197E-01
         -1   -1    0    0    0  501 -0.00000000000E+00  0.00000000000E+00  0.23123947593E+03  0.23123947593E+03  0.00000000000E+00 0.  1.
          1   -1    0    0  501    0  0.00000000000E+00 -0.00000000000E+00 -0.12212537120E+04  0.12212537120E+04  0.00000000000E+00 0. -1.
         23    2    1    2    0    0  0.37107037966E+03 -0.15776829818E+03 -0.33370150713E+02  0.41434485140E+03  0.89353379083E+02 0.  0.
         13    1    3    3    0    0  0.10219690834E+03 -0.85418638227E+02 -0.26607423871E+02  0.13582528055E+03  0.00000000000E+00 0. -1.
        -13    1    3    3    0    0  0.26887347132E+03 -0.72349659957E+02 -0.67627268421E+01  0.27851957086E+03  0.00000000000E+00 0.  1.
         22    1    1    2    0    0 -0.37107037966E+03  0.15776829818E+03 -0.95664408534E+03  0.10381483365E+04  0.00000000000E+00 0. -1.
<mgrwt>
<rscale>  0 0.10628303E+04</rscale>
<asrwt>0</asrwt>
<pdfrwt beam="1">  1        1 0.18788519E+00 0.10628303E+04</pdfrwt>
<pdfrwt beam="2">  1       -1 0.35575303E-01 0.10628303E+04</pdfrwt>
<totfact> 0.77540440E+01</totfact>
</mgrwt>
</event>
<event>
 6    1  0.1817112E-005  0.3939171E+04  0.7818608E-02  0.8016931E-01
          2   -1    0    0  501    0  0.00000000000E+00  0.00000000000E+00  0.34988286109E+04  0.34988286109E+04  0.00000000000E+00 0. -1.
         -2   -1    0    0    0  501 -0.00000000000E+00 -0.00000000000E+00 -0.11087329011E+04  0.11087329011E+04  0.00000000000E+00 0.  1.
         23    2    1    2    0    0  0.75824222373E+03  0.10310947222E+04  0.29451654507E+04  0.32125023687E+04  0.89912964575E+02 0.  0.
         13    1    3    3    0    0  0.64503431332E+03  0.84967136241E+03  0.25231886998E+04  0.27394327705E+04  0.00000000000E+00 0.  1.
        -13    1    3    3    0    0  0.11320791040E+03  0.18142335976E+03  0.42197675093E+03  0.47306959823E+03  0.00000000000E+00 0. -1.
         22    1    1    2    0    0 -0.75824222373E+03 -0.10310947222E+04 -0.55506974084E+03  0.13950591432E+04  0.00000000000E+00 0.  1.
<mgrwt>
<rscale>  0 0.39391707E+04</rscale>
<asrwt>0</asrwt>
<pdfrwt beam="1">  1        2 0.53828132E+00 0.39391707E+04</pdfrwt>
<pdfrwt beam="2">  1       -2 0.17057429E+00 0.39391707E+04</pdfrwt>
<totfact> 0.13608784E-01</totfact>
</mgrwt>
</event>
<event>
 6    1  0.1817112E-005  0.2130394E+04  0.7818608E-02  0.8547971E-01
          2   -1    0    0  501    0  0.00000000000E+00  0.00000000000E+00  0.17834204668E+04  0.17834204668E+04  0.00000000000E+00 0. -1.
         -2   -1    0    0    0  501 -0.00000000000E+00 -0.00000000000E+00 -0.63621835470E+03  0.63621835470E+03  0.00000000000E+00 0.  1.
         23    2    1    2    0    0 -0.78617533835E+03  0.54188204132E+02 -0.23588795498E+03  0.82780146871E+03  0.92758396860E+02 0.  0.
         13    1    3    3    0    0 -0.53668032749E+03 -0.64645536453E+01 -0.15930168639E+03  0.55986122536E+03  0.00000000000E+00 0.  1.
        -13    1    3    3    0    0 -0.24949501086E+03  0.60652757777E+02 -0.76586268591E+02  0.26794024335E+03  0.00000000000E+00 0. -1.
         22    1    1    2    0    0  0.78617533835E+03 -0.54188204132E+02  0.13830900671E+04  0.15918373528E+04  0.00000000000E+00 0. -1.
<mgrwt>
<rscale>  0 0.21303942E+04</rscale>
<asrwt>0</asrwt>
<pdfrwt beam="1">  1        2 0.27437238E+00 0.21303942E+04</pdfrwt>
<pdfrwt beam="2">  1       -2 0.97879748E-01 0.21303942E+04</pdfrwt>
<totfact> 0.70400168E+00</totfact>
</mgrwt>
</event>
<event>
 6    1  0.1817112E-005  0.3790730E+04  0.7818608E-02  0.8048147E-01
         -2   -1    0    0    0  501 -0.00000000000E+00  0.00000000000E+00  0.20365508727E+04  0.20365508727E+04  0.00000000000E+00 0.  1.
          2   -1    0    0  501    0  0.00000000000E+00 -0.00000000000E+00 -0.17639673061E+04  0.17639673061E+04  0.00000000000E+00 0. -1.
         23    2    1    2    0    0  0.16803158463E+04 -0.78750340589E+03 -0.24489425597E+03  0.18740171395E+04  0.91345963079E+02 0.  0.
         11    1    3    3    0    0  0.60097702301E+03 -0.32694765879E+03 -0.73966176965E+02  0.68814180886E+03  0.00000000000E+00 0.  1.
        -11    1    3    3    0    0  0.10793388233E+04 -0.46055574710E+03 -0.17092807901E+03  0.11858753307E+04  0.00000000000E+00 0. -1.
         22    1    1    2    0    0 -0.16803158463E+04  0.78750340589E+03  0.51747782259E+03  0.19265010393E+04  0.00000000000E+00 0.  1.
<mgrwt>
<rscale>  0 0.37907304E+04</rscale>
<asrwt>0</asrwt>
<pdfrwt beam="1">  1        2 0.27137959E+00 0.37907304E+04</pdfrwt>
<pdfrwt beam="2">  1       -2 0.31331552E+00 0.37907304E+04</pdfrwt>
<totfact> 0.19087717E-01</totfact>
</mgrwt>
</event>
<event>
 6    1  0.1817112E-005  0.1556706E+04  0.7818608E-02  0.8847596E-01
          2   -1    0    0  501    0  0.00000000000E+00  0.00000000000E+00  0.18479278416E+04  0.18479278416E+04  0.00000000000E+00 0. -1.
         -2   -1    0    0    0  501 -0.00000000000E+00 -0.00000000000E+00 -0.32784464334E+03  0.32784464334E+03  0.00000000000E+00 0.  1.
         23    2    1    2    0    0 -0.43254532523E+03  0.26256022726E+03  0.15842852003E+04  0.16657183424E+04  0.92869096391E+02 0.  0.
         13    1    3    3    0    0 -0.35375063202E+03  0.18732678504E+03  0.11386901660E+04  0.12069988103E+04  0.00000000000E+00 0.  1.
        -13    1    3    3    0    0 -0.78794693207E+02  0.75233442223E+02  0.44559503428E+03  0.45871953204E+03  0.00000000000E+00 0. -1.
         22    1    1    2    0    0  0.43254532523E+03 -0.26256022726E+03 -0.64202001973E+02  0.51005414259E+03  0.00000000000E+00 0.  1.
<mgrwt>
<rscale>  0 0.15567058E+04</rscale>
<asrwt>0</asrwt>
<pdfrwt beam="1">  1        2 0.28429659E+00 0.15567058E+04</pdfrwt>
<pdfrwt beam="2">  1       -2 0.50437638E-01 0.15567058E+04</pdfrwt>
<totfact> 0.29027049E+01</totfact>
</mgrwt>
</event>
<event>
 6    1  0.1817112E-005  0.1534834E+04  0.7818608E-02  0.8861614E-01
         -2   -1    0    0    0  501 -0.00000000000E+00  0.00000000000E+00  0.72298807687E+03  0.72298807687E+03  0.00000000000E+00 0.  1.
          2   -1    0    0  501    0  0.00000000000E+00 -0.00000000000E+00 -0.81457567764E+03  0.81457567764E+03  0.00000000000E+00 0. -1.
         23    2    1    2    0    0  0.17633453444E+03  0.30754639216E+02  0.69887100537E+03  0.72709196357E+03  0.90566690740E+02 0.  0.
         11    1    3    3    0    0  0.10541337110E+03  0.51511511782E+02  0.31427671450E+03  0.33546276683E+03  0.00000000000E+00 0.  1.
        -11    1    3    3    0    0  0.70921163333E+02 -0.20756872566E+02  0.38459429088E+03  0.39162919674E+03  0.00000000000E+00 0. -1.
         22    1    1    2    0    0 -0.17633453444E+03 -0.30754639216E+02 -0.79045860615E+03  0.81047179093E+03  0.00000000000E+00 0. -1.
<mgrwt>
<rscale>  0 0.15348335E+04</rscale>
<asrwt>0</asrwt>
<pdfrwt beam="1">  1        2 0.12531934E+00 0.15348335E+04</pdfrwt>
<pdfrwt beam="2">  1       -2 0.11122893E+00 0.15348335E+04</pdfrwt>
<totfact> 0.20724393E+01</totfact>
</mgrwt>
</event>
<event>
 6    1  0.1817112E-005  0.2177343E+04  0.7818608E-02  0.8527918E-01
         -2   -1    0    0    0  501 -0.00000000000E+00  0.00000000000E+00  0.15059398016E+04  0.15059398016E+04  0.00000000000E+00 0.  1.
          2   -1    0    0  501    0  0.00000000000E+00 -0.00000000000E+00 -0.78702082441E+03  0.78702082441E+03  0.00000000000E+00 0. -1.
         23    2    1    2    0    0  0.74395985399E+03 -0.12083616336E+03  0.11845361395E+04  0.14070277930E+04  0.92323897239E+02 0.  0.
         11    1    3    3    0    0  0.57275044347E+03 -0.91356593163E+02  0.97899461224E+03  0.11379013790E+04  0.00000000000E+00 0. -1.
        -11    1    3    3    0    0  0.17120941051E+03 -0.29479570199E+02  0.20554152722E+03  0.26912641401E+03  0.00000000000E+00 0.  1.
         22    1    1    2    0    0 -0.74395985399E+03  0.12083616336E+03 -0.46561716227E+03  0.88593283296E+03  0.00000000000E+00 0. -1.
<mgrwt>
<rscale>  0 0.21773433E+04</rscale>
<asrwt>0</asrwt>
<pdfrwt beam="1">  1        2 0.12108013E+00 0.21773433E+04</pdfrwt>
<pdfrwt beam="2">  1       -2 0.23168305E+00 0.21773433E+04</pdfrwt>
<totfact> 0.26892562E+00</totfact>
</mgrwt>
</event>
<event>
 6    1  0.1817112E-005  0.1596107E+04  0.7818608E-02  0.8822943E-01
          2   -1    0    0  501    0  0.00000000000E+00  0.00000000000E+00  0.10061832666E+04  0.10061832666E+04  0.00000000000E+00 0. -1.
         -2   -1    0    0    0  501 -0.00000000000E+00 -0.00000000000E+00 -0.63297552081E+03  0.63297552081E+03  0.00000000000E+00 0.  1.
         23    2    1    2    0    0 -0.55779315348E+03 -0.56870919429E+03  0.21024191943E+03  0.82606518250E+03  0.60155393138E+02 0.  0.
         13    1    3    3    0    0 -0.30567827870E+03 -0.30246600703E+03  0.83154901756E+02  0.43799501500E+03  0.00000000000E+00 0. -1.
        -13    1    3    3    0    0 -0.25211487477E+03 -0.26624318726E+03  0.12708701767E+03  0.38807016750E+03  0.00000000000E+00 0.  1.
         22    1    1    2    0    0  0.55779315348E+03  0.56870919429E+03  0.16296582633E+03  0.81309360487E+03  0.00000000000E+00 0. -1.
<mgrwt>
<rscale>  0 0.15961070E+04</rscale>
<asrwt>0</asrwt>
<pdfrwt beam="1">  1        2 0.15479743E+00 0.15961070E+04</pdfrwt>
<pdfrwt beam="2">  1       -2 0.97380849E-01 0.15961070E+04</pdfrwt>
<totfact> 0.21058697E+01</totfact>
</mgrwt>
</event>
<event>
 6    1  0.1817112E-005  0.1464445E+04  0.7818608E-02  0.8908447E-01
         -2   -1    0    0    0  501 -0.00000000000E+00  0.00000000000E+00  0.31369345329E+03  0.31369345329E+03  0.00000000000E+00 0. -1.
          2   -1    0    0  501    0  0.00000000000E+00 -0.00000000000E+00 -0.17091508711E+04  0.17091508711E+04  0.00000000000E+00 0.  1.
         23    2    1    2    0    0  0.30317839952E+03  0.39867517685E+03  0.32477116395E+02  0.50961728506E+03  0.88294821917E+02 0.  0.
         11    1    3    3    0    0  0.11982190139E+03  0.10193560955E+03  0.33286055852E+02  0.16079837704E+03  0.00000000000E+00 0. -1.
        -11    1    3    3    0    0  0.18335649813E+03  0.29673956730E+03 -0.80893945755E+00  0.34881890802E+03  0.00000000000E+00 0.  1.
         22    1    1    2    0    0 -0.30317839952E+03 -0.39867517685E+03 -0.14279345342E+04  0.15132270394E+04  0.00000000000E+00 0.  1.
<mgrwt>
<rscale>  0 0.14644445E+04</rscale>
<asrwt>0</asrwt>
<pdfrwt beam="1">  1        2 0.26294629E+00 0.14644445E+04</pdfrwt>
<pdfrwt beam="2">  1       -2 0.48260531E-01 0.14644445E+04</pdfrwt>
<totfact> 0.38185018E+01</totfact>
</mgrwt>
</event>
<event>
 6    1  0.1817112E-005  0.2246523E+04  0.7818608E-02  0.8499310E-01
          2   -1    0    0  501    0  0.00000000000E+00  0.00000000000E+00  0.16369313116E+04  0.16369313116E+04  0.00000000000E+00 0. -1.
         -2   -1    0    0    0  501 -0.00000000000E+00 -0.00000000000E+00 -0.77078126909E+03  0.77078126909E+03  0.00000000000E+00 0.  1.
         23    2    1    2    0    0  0.10014155927E+04 -0.52609963141E+02 -0.10386944689E+03  0.10125284325E+04  0.93935974138E+02 0.  0.
         11    1    3    3    0    0  0.78085575472E+03 -0.55188529757E+02 -0.44323635892E+02  0.78405743935E+03  0.00000000000E+00 0. -1.
        -11    1    3    3    0    0  0.22055983793E+03  0.25785666169E+01 -0.59545810999E+02  0.22847099317E+03  0.00000000000E+00 0.  1.
         22    1    1    2    0    0 -0.10014155927E+04  0.52609963141E+02  0.97001948936E+03  0.13951841481E+04  0.00000000000E+00 0. -1.
<mgrwt>
<rscale>  0 0.22465226E+04</rscale>
<asrwt>0</asrwt>
<pdfrwt beam="1">  1        2 0.25183559E+00 0.22465226E+04</pdfrwt>
<pdfrwt beam="2">  1       -2 0.11858173E+00 0.22465226E+04</pdfrwt>
<totfact> 0.52965321E+00</totfact>
</mgrwt>
</event>
<event>
 6    1  0.1817112E-005  0.3526907E+03  0.7818608E-02  0.1061516E+00
         -2   -1    0    0    0  501 -0.00000000000E+00  0.00000000000E+00  0.16680096701E+02  0.16680096701E+02  0.00000000000E+00 0.  1.
          2   -1    0    0  501    0  0.00000000000E+00 -0.00000000000E+00 -0.18643590323E+04  0.18643590323E+04  0.00000000000E+00 0. -1.
         23    2    1    2    0    0  0.98279553815E+02  0.12820553252E+03 -0.11545746223E+04  0.11693586401E+04  0.90893021135E+02 0.  0.
         13    1    3    3    0    0  0.12083294761E+02  0.89836236245E+02 -0.52930512239E+03  0.53701067768E+03  0.00000000000E+00 0.  1.
        -13    1    3    3    0    0  0.86196259054E+02  0.38369296275E+02 -0.62526949995E+03  0.63234796239E+03  0.00000000000E+00 0. -1.
         22    1    1    2    0    0 -0.98279553815E+02 -0.12820553252E+03 -0.69310431327E+03  0.71168048894E+03  0.00000000000E+00 0.  1.
<mgrwt>
<rscale>  0 0.35269074E+03</rscale>
<asrwt>0</asrwt>
<pdfrwt beam="1">  1        2 0.28682446E+00 0.35269074E+03</pdfrwt>
<pdfrwt beam="2">  1       -2 0.25661688E-02 0.35269074E+03</pdfrwt>
<totfact> 0.46792363E+03</totfact>
</mgrwt>
</event>
<event>
 6    1  0.1817112E-005  0.3043625E+04  0.7818608E-02  0.8231382E-01
          2   -1    0    0  501    0  0.00000000000E+00  0.00000000000E+00  0.30188690810E+04  0.30188690810E+04  0.00000000000E+00 0. -1.
         -2   -1    0    0    0  501 -0.00000000000E+00 -0.00000000000E+00 -0.76714594234E+03  0.76714594234E+03  0.00000000000E+00 0.  1.
         23    2    1    2    0    0  0.34244764203E+03 -0.10923286578E+04 -0.11786293143E+03  0.11544013686E+04  0.91096460646E+02 0.  0.
         13    1    3    3    0    0  0.22985124991E+03 -0.65893862065E+03 -0.33024257545E+02  0.69865750154E+03  0.00000000000E+00 0. -1.
        -13    1    3    3    0    0  0.11259639212E+03 -0.43339003713E+03 -0.84838673883E+02  0.45574386709E+03  0.00000000000E+00 0.  1.
         22    1    1    2    0    0 -0.34244764203E+03  0.10923286578E+04  0.23695860701E+04  0.26316136548E+04  0.00000000000E+00 0. -1.
<mgrwt>
<rscale>  0 0.30436249E+04</rscale>
<asrwt>0</asrwt>
<pdfrwt beam="1">  1        2 0.46444139E+00 0.30436249E+04</pdfrwt>
<pdfrwt beam="2">  1       -2 0.11802245E+00 0.30436249E+04</pdfrwt>
<totfact> 0.79912696E-01</totfact>
</mgrwt>
</event>
<event>
 6    1  0.2904378E-005  0.2546553E+04  0.7818608E-02  0.8386586E-01
         -2   -1    0    0    0  501 -0.00000000000E+00  0.00000000000E+00  0.12606997713E+04  0.12606997713E+04  0.00000000000E+00 0.  1.
          2   -1    0    0  501    0  0.00000000000E+00 -0.00000000000E+00 -0.12859783641E+04  0.12859783641E+04  0.00000000000E+00 0. -1.
         23    2    1    2    0    0 -0.31134779105E+03  0.12715150427E+03  0.12137937487E+04  0.12627757951E+04  0.90567611303E+02 0.  0.
         13    1    3    3    0    0 -0.14923047828E+03  0.97441876067E+02  0.73902885707E+03  0.76021596040E+03  0.00000000000E+00 0.  1.
        -13    1    3    3    0    0 -0.16211731278E+03  0.29709628199E+02  0.47476489162E+03  0.50255983467E+03  0.00000000000E+00 0. -1.
         22    1    1    2    0    0  0.31134779105E+03 -0.12715150427E+03 -0.12390723415E+04  0.12839023404E+04  0.00000000000E+00 0. -1.
<mgrwt>
<rscale>  0 0.25465527E+04</rscale>
<asrwt>0</asrwt>
<pdfrwt beam="1">  1        2 0.19784283E+00 0.25465527E+04</pdfrwt>
<pdfrwt beam="2">  1       -2 0.19395381E+00 0.25465527E+04</pdfrwt>
<totfact> 0.21829395E+00</totfact>
</mgrwt>
</event>
<event>
 6    1  0.1817112E-005  0.1359688E+04  0.7818608E-02  0.8983527E-01
         -2   -1    0    0    0  501 -0.00000000000E+00  0.00000000000E+00  0.87873802186E+03  0.87873802186E+03  0.00000000000E+00 0.  1.
          2   -1    0    0  501    0  0.00000000000E+00 -0.00000000000E+00 -0.52596746000E+03  0.52596746000E+03  0.00000000000E+00 0. -1.
         23    2    1    2    0    0 -0.19928146245E+03 -0.48870140526E+03 -0.26049183148E+03  0.59561158875E+03  0.91405719723E+02 0.  0.
         13    1    3    3    0    0 -0.13391947098E+03 -0.38397638795E+03 -0.23459749638E+03  0.46947659848E+03  0.00000000000E+00 0. -1.
        -13    1    3    3    0    0 -0.65361991464E+02 -0.10472501732E+03 -0.25894335104E+02  0.12613499027E+03  0.00000000000E+00 0.  1.
         22    1    1    2    0    0  0.19928146245E+03  0.48870140526E+03  0.61326239334E+03  0.80909389311E+03  0.00000000000E+00 0.  1.
<mgrwt>
<rscale>  0 0.13596876E+04</rscale>
<asrwt>0</asrwt>
<pdfrwt beam="1">  1        2 0.80918071E-01 0.13596876E+04</pdfrwt>
<pdfrwt beam="2">  1       -2 0.13519047E+00 0.13596876E+04</pdfrwt>
<totfact> 0.22255038E+01</totfact>
</mgrwt>
</event>
<event>
 6    1  0.1817112E-005  0.5987415E+04  0.7818608E-02  0.7691964E-01
         -2   -1    0    0    0  501 -0.00000000000E+00  0.00000000000E+00  0.20960362548E+04  0.20960362548E+04  0.00000000000E+00 0.  1.
          2   -1    0    0  501    0  0.00000000000E+00 -0.00000000000E+00 -0.42758252213E+04  0.42758252213E+04  0.00000000000E+00 0. -1.
         23    2    1    2    0    0 -0.92981388097E+03 -0.16683429328E+04 -0.35424950536E+04  0.40256113031E+04  0.91395643551E+02 0.  0.
         13    1    3    3    0    0 -0.47362038872E+03 -0.92270359313E+03 -0.19822555647E+04  0.22371936253E+04  0.00000000000E+00 0. -1.
        -13    1    3    3    0    0 -0.45619349224E+03 -0.74563933972E+03 -0.15602394889E+04  0.17884176777E+04  0.00000000000E+00 0.  1.
         22    1    1    2    0    0  0.92981388097E+03  0.16683429328E+04  0.13627060870E+04  0.23462501730E+04  0.00000000000E+00 0.  1.
<mgrwt>
<rscale>  0 0.59874150E+04</rscale>
<asrwt>0</asrwt>
<pdfrwt beam="1">  1        2 0.65781926E+00 0.59874150E+04</pdfrwt>
<pdfrwt beam="2">  1       -2 0.32246712E+00 0.59874150E+04</pdfrwt>
<totfact> 0.30794318E-03</totfact>
</mgrwt>
</event>
<event>
 6    1  0.1817112E-005  0.1729710E+04  0.7818608E-02  0.8744599E-01
          2   -1    0    0  501    0  0.00000000000E+00  0.00000000000E+00  0.12721086206E+04  0.12721086206E+04  0.00000000000E+00 0. -1.
         -2   -1    0    0    0  501 -0.00000000000E+00 -0.00000000000E+00 -0.58797990187E+03  0.58797990187E+03  0.00000000000E+00 0.  1.
         23    2    1    2    0    0 -0.69531364735E+03 -0.27283998645E+03  0.80713353815E+03  0.11030991487E+04  0.86373937887E+02 0.  0.
         13    1    3    3    0    0 -0.29032173817E+03 -0.15574997283E+03  0.32791107909E+03  0.46483377833E+03  0.00000000000E+00 0. -1.
        -13    1    3    3    0    0 -0.40499190918E+03 -0.11709001362E+03  0.47922245906E+03  0.63826537041E+03  0.00000000000E+00 0.  1.
         22    1    1    2    0    0  0.69531364735E+03  0.27283998645E+03 -0.12300481938E+03  0.75698937376E+03  0.00000000000E+00 0.  1.
<mgrwt>
<rscale>  0 0.17297102E+04</rscale>
<asrwt>0</asrwt>
<pdfrwt beam="1">  1        2 0.19570902E+00 0.17297102E+04</pdfrwt>
<pdfrwt beam="2">  1       -2 0.90458447E-01 0.17297102E+04</pdfrwt>
<totfact> 0.17022477E+01</totfact>
</mgrwt>
</event>
<event>
 6    1  0.1817112E-005  0.3395078E+04  0.7818608E-02  0.8139115E-01
          1   -1    0    0  501    0  0.00000000000E+00  0.00000000000E+00  0.11281037825E+04  0.11281037825E+04  0.00000000000E+00 0. -1.
         -1   -1    0    0    0  501 -0.00000000000E+00 -0.00000000000E+00 -0.25544091846E+04  0.25544091846E+04  0.00000000000E+00 0.  1.
         23    2    1    2    0    0 -0.13407644252E+04 -0.10211930401E+04 -0.50392656284E+03  0.17612458872E+04  0.86951855913E+02 0.  0.
         13    1    3    3    0    0 -0.93737445004E+03 -0.76313928462E+03 -0.35872778708E+03  0.12608481481E+04  0.00000000000E+00 0. -1.
        -13    1    3    3    0    0 -0.40338997518E+03 -0.25805375549E+03 -0.14519877577E+03  0.50039773908E+03  0.00000000000E+00 0.  1.
         22    1    1    2    0    0  0.13407644252E+04  0.10211930401E+04 -0.92237883932E+03  0.19212670799E+04  0.00000000000E+00 0.  1.
<mgrwt>
<rscale>  0 0.33950780E+04</rscale>
<asrwt>0</asrwt>
<pdfrwt beam="1">  1        1 0.17355443E+00 0.33950780E+04</pdfrwt>
<pdfrwt beam="2">  1       -1 0.39298603E+00 0.33950780E+04</pdfrwt>
<totfact> 0.79332651E-02</totfact>
</mgrwt>
</event>
<event>
 6    1  0.1817112E-005  0.2459399E+04  0.7818608E-02  0.8417594E-01
          2   -1    0    0  501    0  0.00000000000E+00  0.00000000000E+00  0.34378366633E+04  0.34378366633E+04  0.00000000000E+00 0. -1.
         -2   -1    0    0    0  501 -0.00000000000E+00 -0.00000000000E+00 -0.43985820165E+03  0.43985820165E+03  0.00000000000E+00 0.  1.
         23    2    1    2    0    0 -0.37520134207E+03  0.54960783547E+02  0.33427117899E+04  0.33652128629E+04  0.84491230485E+02 0.  0.
         13    1    3    3    0    0 -0.15884768115E+03 -0.59608353676E+01  0.11324711233E+04  0.11435728934E+04  0.00000000000E+00 0.  1.
        -13    1    3    3    0    0 -0.21635366091E+03  0.60921618914E+02  0.22102406665E+04  0.22216399695E+04  0.00000000000E+00 0. -1.
         22    1    1    2    0    0  0.37520134207E+03 -0.54960783547E+02 -0.34473332820E+03  0.51248200202E+03  0.00000000000E+00 0.  1.
<mgrwt>
<rscale>  0 0.24593988E+04</rscale>
<asrwt>0</asrwt>
<pdfrwt beam="1">  1        2 0.52889793E+00 0.24593988E+04</pdfrwt>
<pdfrwt beam="2">  1       -2 0.67670495E-01 0.24593988E+04</pdfrwt>
<totfact> 0.16103534E+00</totfact>
</mgrwt>
</event>
<event>
 6    1  0.1817112E-005  0.2018715E+04  0.7818608E-02  0.8597921E-01
          2   -1    0    0  501    0  0.00000000000E+00  0.00000000000E+00  0.29126246735E+04  0.29126246735E+04  0.00000000000E+00 0. -1.
         -2   -1    0    0    0  501 -0.00000000000E+00 -0.00000000000E+00 -0.34978839796E+03  0.34978839796E+03  0.00000000000E+00 0.  1.
         23    2    1    2    0    0 -0.18133610025E+03 -0.51604664310E+03  0.26509894877E+04  0.27083752498E+04  0.91456605538E+02 0.  0.
         13    1    3    3    0    0 -0.96239904351E+02 -0.15143925564E+03  0.92533135523E+03  0.94256781417E+03  0.00000000000E+00 0.  1.
        -13    1    3    3    0    0 -0.85096195903E+02 -0.36460738746E+03  0.17256581324E+04  0.17658074356E+04  0.00000000000E+00 0. -1.
         22    1    1    2    0    0  0.18133610025E+03  0.51604664310E+03 -0.88153212083E+02  0.55403782173E+03  0.00000000000E+00 0.  1.
<mgrwt>
<rscale>  0 0.20187148E+04</rscale>
<asrwt>0</asrwt>
<pdfrwt beam="1">  1        2 0.44809609E+00 0.20187148E+04</pdfrwt>
<pdfrwt beam="2">  1       -2 0.53813602E-01 0.20187148E+04</pdfrwt>
<totfact> 0.59662218E+00</totfact>
</mgrwt>
</event>
<event>
 6    1  0.1817112E-005  0.2026708E+04  0.7818608E-02  0.8594235E-01
         -1   -1    0    0    0  501 -0.00000000000E+00  0.00000000000E+00  0.78142791458E+03  0.78142791458E+03  0.00000000000E+00 0.  1.
          1   -1    0    0  501    0  0.00000000000E+00 -0.00000000000E+00 -0.13141153854E+04  0.13141153854E+04  0.00000000000E+00 0. -1.
         23    2    1    2    0    0  0.97855054176E+03 -0.20661203679E+03 -0.11184733992E+03  0.10104828813E+04  0.91192814071E+02 0.  0.
         13    1    3    3    0    0  0.42465894466E+03 -0.69190066157E+02 -0.74190356916E+01  0.43032258437E+03  0.00000000000E+00 0. -1.
        -13    1    3    3    0    0  0.55389159711E+03 -0.13742197063E+03 -0.10442830422E+03  0.58016029688E+03  0.00000000000E+00 0.  1.
         22    1    1    2    0    0 -0.97855054176E+03  0.20661203679E+03 -0.42084013093E+03  0.10850604187E+04  0.00000000000E+00 0.  1.
<mgrwt>
<rscale>  0 0.20267081E+04</rscale>
<asrwt>0</asrwt>
<pdfrwt beam="1">  1        1 0.20217160E+00 0.20267081E+04</pdfrwt>
<pdfrwt beam="2">  1       -1 0.12021968E+00 0.20267081E+04</pdfrwt>
<totfact> 0.50414979E+00</totfact>
</mgrwt>
</event>
<event>
 6    1  0.1817112E-005  0.3385423E+04  0.7818608E-02  0.8141493E-01
         -2   -1    0    0    0  501 -0.00000000000E+00  0.00000000000E+00  0.99481589349E+03  0.99481589349E+03  0.00000000000E+00 0.  1.
          2   -1    0    0  501    0  0.00000000000E+00 -0.00000000000E+00 -0.28802032158E+04  0.28802032158E+04  0.00000000000E+00 0. -1.
         23    2    1    2    0    0 -0.15735859276E+04 -0.54243998671E+03 -0.60022171453E+03  0.17721485831E+04  0.99149802517E+02 0.  0.
         13    1    3    3    0    0 -0.55055606528E+03 -0.16108557498E+03 -0.24790000092E+03  0.62491195695E+03  0.00000000000E+00 0.  1.
        -13    1    3    3    0    0 -0.10230298623E+04 -0.38135441173E+03 -0.35232171361E+03  0.11472366261E+04  0.00000000000E+00 0. -1.
         22    1    1    2    0    0  0.15735859276E+04  0.54243998671E+03 -0.12851656078E+04  0.21028705262E+04  0.00000000000E+00 0. -1.
<mgrwt>
<rscale>  0 0.33854228E+04</rscale>
<asrwt>0</asrwt>
<pdfrwt beam="1">  1        2 0.44310819E+00 0.33854228E+04</pdfrwt>
<pdfrwt beam="2">  1       -2 0.15304860E+00 0.33854228E+04</pdfrwt>
<totfact> 0.48641373E-01</totfact>
</mgrwt>
</event>
<event>
 6    1  0.4724838E-005  0.3815603E+04  0.7818608E-02  0.8042815E-01
         -2   -1    0    0    0  501 -0.00000000000E+00  0.00000000000E+00  0.19711294234E+04  0.19711294234E+04  0.00000000000E+00 0.  1.
          2   -1    0    0  501    0  0.00000000000E+00 -0.00000000000E+00 -0.18465082106E+04  0.18465082106E+04  0.00000000000E+00 0. -1.
         23    2    1    2    0    0  0.22147575349E+03 -0.97666578395E+03 -0.15610068062E+04  0.18569567876E+04  0.92836948074E+02 0.  0.
         13    1    3    3    0    0  0.17344560940E+03 -0.74032828818E+03 -0.11090261255E+04  0.13446591764E+04  0.00000000000E+00 0.  1.
        -13    1    3    3    0    0  0.48030144093E+02 -0.23633749577E+03 -0.45198068067E+03  0.51229761111E+03  0.00000000000E+00 0. -1.
         22    1    1    2    0    0 -0.22147575349E+03  0.97666578395E+03  0.16856280191E+04  0.19606808464E+04  0.00000000000E+00 0.  1.
<mgrwt>
<rscale>  0 0.38156031E+04</rscale>
<asrwt>0</asrwt>
<pdfrwt beam="1">  1        2 0.28407818E+00 0.38156031E+04</pdfrwt>
<pdfrwt beam="2">  1       -2 0.30325068E+00 0.38156031E+04</pdfrwt>
<totfact> 0.19766214E-01</totfact>
</mgrwt>
</event>
<event>
 6    1  0.1817112E-005  0.4267441E+03  0.7818608E-02  0.1034893E+00
          2   -1    0    0  501    0  0.00000000000E+00  0.00000000000E+00  0.55246766130E+02  0.55246766130E+02  0.00000000000E+00 0. -1.
         -2   -1    0    0    0  501 -0.00000000000E+00 -0.00000000000E+00 -0.82407790855E+03  0.82407790855E+03  0.00000000000E+00 0.  1.
         23    2    1    2    0    0 -0.91390140818E+02  0.83296452209E+02 -0.69599049805E+02  0.16924300604E+03  0.92242672186E+02 0.  0.
         13    1    3    3    0    0 -0.73987677764E+02  0.15374576560E+02 -0.81417654973E+01  0.76005541973E+02  0.00000000000E+00 0.  1.
        -13    1    3    3    0    0 -0.17402463054E+02  0.67921875648E+02 -0.61457284307E+02  0.93237464071E+02  0.00000000000E+00 0. -1.
         22    1    1    2    0    0  0.91390140818E+02 -0.83296452209E+02 -0.69923209261E+03  0.71008166863E+03  0.00000000000E+00 0.  1.
<mgrwt>
<rscale>  0 0.42674414E+03</rscale>
<asrwt>0</asrwt>
<pdfrwt beam="1">  1        2 0.84995022E-02 0.42674414E+03</pdfrwt>
<pdfrwt beam="2">  1       -2 0.12678122E+00 0.42674414E+03</pdfrwt>
<totfact> 0.38338197E+02</totfact>
</mgrwt>
</event>
<event>
 6    1  0.1817112E-005  0.8050131E+03  0.7818608E-02  0.9552789E-01
          2   -1    0    0  501    0  0.00000000000E+00  0.00000000000E+00  0.16286788747E+04  0.16286788747E+04  0.00000000000E+00 0. -1.
         -2   -1    0    0    0  501 -0.00000000000E+00 -0.00000000000E+00 -0.99474207342E+02  0.99474207342E+02  0.00000000000E+00 0.  1.
         23    2    1    2    0    0 -0.10807715183E+03 -0.30855987277E+03  0.29059376349E+03  0.44711957857E+03  0.92635394562E+02 0.  0.
         13    1    3    3    0    0 -0.11830802512E+02 -0.15944935045E+03  0.16458171906E+03  0.22945850496E+03  0.00000000000E+00 0. -1.
        -13    1    3    3    0    0 -0.96246349321E+02 -0.14911052232E+03  0.12601204442E+03  0.21766107361E+03  0.00000000000E+00 0.  1.
         22    1    1    2    0    0  0.10807715183E+03  0.30855987277E+03  0.12386109038E+04  0.12810335034E+04  0.00000000000E+00 0. -1.
<mgrwt>
<rscale>  0 0.80501314E+03</rscale>
<asrwt>0</asrwt>
<pdfrwt beam="1">  1        2 0.25056596E+00 0.80501314E+03</pdfrwt>
<pdfrwt beam="2">  1       -2 0.15303725E-01 0.80501314E+03</pdfrwt>
<totfact> 0.36819018E+02</totfact>
</mgrwt>
</event>
<event>
 6    1  0.1817112E-005  0.3140664E+04  0.7818608E-02  0.8204666E-01
         -2   -1    0    0    0  501 -0.00000000000E+00  0.00000000000E+00  0.13118048678E+04  0.13118048678E+04  0.00000000000E+00 0.  1.
          2   -1    0    0  501    0  0.00000000000E+00 -0.00000000000E+00 -0.18798086786E+04  0.18798086786E+04  0.00000000000E+00 0. -1.
         23    2    1    2    0    0 -0.13998160818E+04  0.64553917120E+03  0.13123096306E+02  0.15442173079E+04  0.90713803176E+02 0.  0.
         11    1    3    3    0    0 -0.47119752594E+03  0.20912615101E+03  0.46555152633E+02  0.51761784912E+03  0.00000000000E+00 0.  1.
        -11    1    3    3    0    0 -0.92861855585E+03  0.43641302018E+03 -0.33432056328E+02  0.10265994588E+04  0.00000000000E+00 0. -1.
         22    1    1    2    0    0  0.13998160818E+04 -0.64553917120E+03 -0.58112690715E+03  0.16473962385E+04  0.00000000000E+00 0. -1.
<mgrwt>
<rscale>  0 0.31406637E+04</rscale>
<asrwt>0</asrwt>
<pdfrwt beam="1">  1        2 0.28920134E+00 0.31406637E+04</pdfrwt>
<pdfrwt beam="2">  1       -2 0.20181613E+00 0.31406637E+04</pdfrwt>
<totfact> 0.85328715E-01</totfact>
</mgrwt>
</event>
<event>
 6    1  0.1817112E-005  0.2439902E+04  0.7818608E-02  0.8424714E-01
          2   -1    0    0  501    0  0.00000000000E+00  0.00000000000E+00  0.31546172860E+04  0.31546172860E+04  0.00000000000E+00 0. -1.
         -2   -1    0    0    0  501 -0.00000000000E+00 -0.00000000000E+00 -0.47177859357E+03  0.47177859357E+03  0.00000000000E+00 0.  1.
         23    2    1    2    0    0 -0.55493363373E+01  0.12137569380E+04  0.11867785804E+04  0.16998880134E+04  0.89101962304E+02 0.  0.
         11    1    3    3    0    0  0.27200481944E+02  0.51757814842E+03  0.46077009859E+03  0.69349555853E+03  0.00000000000E+00 0.  1.
        -11    1    3    3    0    0 -0.32749818281E+02  0.69617878953E+03  0.72600848184E+03  0.10063924549E+04  0.00000000000E+00 0. -1.
         22    1    1    2    0    0  0.55493363373E+01 -0.12137569380E+04  0.14960601120E+04  0.19265078661E+04  0.00000000000E+00 0.  1.
<mgrwt>
<rscale>  0 0.24399024E+04</rscale>
<asrwt>0</asrwt>
<pdfrwt beam="1">  1        2 0.48532572E+00 0.24399024E+04</pdfrwt>
<pdfrwt beam="2">  1       -2 0.72581324E-01 0.24399024E+04</pdfrwt>
<totfact> 0.21371328E+00</totfact>
</mgrwt>
</event>
<event>
 6    1  0.1817112E-005  0.1035794E+04  0.7818608E-02  0.9270135E-01
         -2   -1    0    0    0  501 -0.00000000000E+00  0.00000000000E+00  0.18409633400E+03  0.18409633400E+03  0.00000000000E+00 0.  1.
          2   -1    0    0  501    0  0.00000000000E+00 -0.00000000000E+00 -0.14569404156E+04  0.14569404156E+04  0.00000000000E+00 0. -1.
         23    2    1    2    0    0 -0.33822805829E+03  0.13724769557E+03 -0.12139394281E+04  0.12713004821E+04  0.96544451980E+02 0.  0.
         11    1    3    3    0    0 -0.13018285773E+03  0.24671635160E+02 -0.57251101133E+03  0.58764370508E+03  0.00000000000E+00 0. -1.
        -11    1    3    3    0    0 -0.20804520056E+03  0.11257606041E+03 -0.64142841680E+03  0.68365677700E+03  0.00000000000E+00 0.  1.
         22    1    1    2    0    0  0.33822805829E+03 -0.13724769557E+03 -0.58904653514E+02  0.36973626757E+03  0.00000000000E+00 0.  1.
<mgrwt>
<rscale>  0 0.10357942E+04</rscale>
<asrwt>0</asrwt>
<pdfrwt beam="1">  1        2 0.22414468E+00 0.10357942E+04</pdfrwt>
<pdfrwt beam="2">  1       -2 0.28322513E-01 0.10357942E+04</pdfrwt>
<totfact> 0.15255547E+02</totfact>
</mgrwt>
</event>
<event>
 6    1  0.1817112E-005  0.2393368E+04  0.7818608E-02  0.8441991E-01
          2   -1    0    0  501    0  0.00000000000E+00  0.00000000000E+00  0.90246604939E+03  0.90246604939E+03  0.00000000000E+00 0. -1.
         -2   -1    0    0    0  501 -0.00000000000E+00 -0.00000000000E+00 -0.15868209399E+04  0.15868209399E+04  0.00000000000E+00 0.  1.
         23    2    1    2    0    0  0.10181961583E+04 -0.28440323160E+03  0.23630552323E+03  0.10874224408E+04  0.95071812362E+02 0.  0.
         13    1    3    3    0    0  0.46348526548E+03 -0.16031356386E+03  0.14733471798E+03  0.51208060811E+03  0.00000000000E+00 0.  1.
        -13    1    3    3    0    0  0.55471089281E+03 -0.12408966775E+03  0.88970805250E+02  0.57534183268E+03  0.00000000000E+00 0. -1.
         22    1    1    2    0    0 -0.10181961583E+04  0.28440323160E+03 -0.92066041374E+03  0.14018645485E+04  0.00000000000E+00 0.  1.
<mgrwt>
<rscale>  0 0.23933675E+04</rscale>
<asrwt>0</asrwt>
<pdfrwt beam="1">  1        2 0.13884093E+00 0.23933675E+04</pdfrwt>
<pdfrwt beam="2">  1       -2 0.24412630E+00 0.23933675E+04</pdfrwt>
<totfact> 0.18352832E+00</totfact>
</mgrwt>
</event>
<event>
 6    1  0.1817112E-005  0.9488003E+03  0.7818608E-02  0.9366554E-01
         -2   -1    0    0    0  501 -0.00000000000E+00  0.00000000000E+00  0.75785879867E+03  0.75785879867E+03  0.00000000000E+00 0. -1.
          2   -1    0    0  501    0  0.00000000000E+00 -0.00000000000E+00 -0.29696230471E+03  0.29696230471E+03  0.00000000000E+00 0.  1.
         23    2    1    2    0    0  0.18357619648E+03 -0.41929257383E+03  0.11408348269E+03  0.48055135215E+03  0.91695575950E+02 0.  0.
         11    1    3    3    0    0  0.15655683869E+03 -0.29331326884E+03  0.11469169629E+03  0.35170570456E+03  0.00000000000E+00 0. -1.
        -11    1    3    3    0    0  0.27019357788E+02 -0.12597930499E+03 -0.60821359608E+00  0.12884564760E+03  0.00000000000E+00 0.  1.
         22    1    1    2    0    0 -0.18357619648E+03  0.41929257383E+03  0.34681301126E+03  0.57426975122E+03  0.00000000000E+00 0. -1.
<mgrwt>
<rscale>  0 0.94880029E+03</rscale>
<asrwt>0</asrwt>
<pdfrwt beam="1">  1        2 0.45686509E-01 0.94880029E+03</pdfrwt>
<pdfrwt beam="2">  1       -2 0.11659366E+00 0.94880029E+03</pdfrwt>
<totfact> 0.63348767E+01</totfact>
</mgrwt>
</event>
<event>
 6    1  0.1817112E-005  0.4729911E+04  0.7818608E-02  0.7871578E-01
          2   -1    0    0  501    0  0.00000000000E+00  0.00000000000E+00  0.21267972101E+04  0.21267972101E+04  0.00000000000E+00 0. -1.
         -2   -1    0    0    0  501 -0.00000000000E+00 -0.00000000000E+00 -0.26297821787E+04  0.26297821787E+04  0.00000000000E+00 0.  1.
         23    2    1    2    0    0  0.15629991687E+04  0.16877907208E+04  0.29607092828E+03  0.23214009056E+04  0.98184781035E+02 0.  0.
         13    1    3    3    0    0  0.11233885829E+04  0.11582860620E+04  0.23290399678E+03  0.16302983719E+04  0.00000000000E+00 0. -1.
        -13    1    3    3    0    0  0.43961058572E+03  0.52950465885E+03  0.63166931502E+02  0.69110253367E+03  0.00000000000E+00 0.  1.
         22    1    1    2    0    0 -0.15629991687E+04 -0.16877907208E+04 -0.79905589692E+03  0.24351784832E+04  0.00000000000E+00 0.  1.
<mgrwt>
<rscale>  0 0.47299105E+04</rscale>
<asrwt>0</asrwt>
<pdfrwt beam="1">  1        2 0.32719957E+00 0.47299105E+04</pdfrwt>
<pdfrwt beam="2">  1       -2 0.40458187E+00 0.47299105E+04</pdfrwt>
<totfact> 0.29259443E-02</totfact>
</mgrwt>
</event>
<event>
 6    1  0.1817112E-005  0.1829546E+04  0.7818608E-02  0.8690743E-01
          2   -1    0    0  501    0  0.00000000000E+00  0.00000000000E+00  0.53881735992E+03  0.53881735992E+03  0.00000000000E+00 0. -1.
         -2   -1    0    0    0  501 -0.00000000000E+00 -0.00000000000E+00 -0.15530494590E+04  0.15530494590E+04  0.00000000000E+00 0.  1.
         23    2    1    2    0    0  0.85168650712E+03  0.22914772122E+03 -0.24138977072E+03  0.91919301556E+03  0.93638634652E+02 0.  0.
         13    1    3    3    0    0  0.37594855989E+03  0.14518908714E+03 -0.89995513215E+02  0.41293629425E+03  0.00000000000E+00 0.  1.
        -13    1    3    3    0    0  0.47573794723E+03  0.83958634082E+02 -0.15139425751E+03  0.50625672131E+03  0.00000000000E+00 0. -1.
         22    1    1    2    0    0 -0.85168650712E+03 -0.22914772122E+03 -0.77284232833E+03  0.11726738033E+04  0.00000000000E+00 0.  1.
<mgrwt>
<rscale>  0 0.18295464E+04</rscale>
<asrwt>0</asrwt>
<pdfrwt beam="1">  1        2 0.82894978E-01 0.18295464E+04</pdfrwt>
<pdfrwt beam="2">  1       -2 0.23893069E+00 0.18295464E+04</pdfrwt>
<totfact> 0.39945201E+00</totfact>
</mgrwt>
</event>
<event>
 6    1  0.1817112E-005  0.3354019E+04  0.7818608E-02  0.8149285E-01
          2   -1    0    0  501    0  0.00000000000E+00  0.00000000000E+00  0.25301443625E+04  0.25301443625E+04  0.00000000000E+00 0. -1.
         -2   -1    0    0    0  501 -0.00000000000E+00 -0.00000000000E+00 -0.11115416487E+04  0.11115416487E+04  0.00000000000E+00 0.  1.
         23    2    1    2    0    0  0.29623777394E+03 -0.56222282732E+03 -0.97324072933E+03  0.11668594753E+04  0.10252897894E+03 0.  0.
         13    1    3    3    0    0  0.21086817768E+03 -0.41347964798E+03 -0.62307666050E+03  0.77695259348E+03  0.00000000000E+00 0. -1.
        -13    1    3    3    0    0  0.85369596254E+02 -0.14874317934E+03 -0.35016406883E+03  0.38990688179E+03  0.00000000000E+00 0.  1.
         22    1    1    2    0    0 -0.29623777394E+03  0.56222282732E+03  0.23918434431E+04  0.24748265359E+04  0.00000000000E+00 0. -1.
<mgrwt>
<rscale>  0 0.33540190E+04</rscale>
<asrwt>0</asrwt>
<pdfrwt beam="1">  1        2 0.38925298E+00 0.33540190E+04</pdfrwt>
<pdfrwt beam="2">  1       -2 0.17100641E+00 0.33540190E+04</pdfrwt>
<totfact> 0.58277901E-01</totfact>
</mgrwt>
</event>
<event>
 6    1  0.1817112E-005  0.1519770E+04  0.7818608E-02  0.8871412E-01
          2   -1    0    0  501    0  0.00000000000E+00  0.00000000000E+00  0.14037910478E+04  0.14037910478E+04  0.00000000000E+00 0.  1.
         -2   -1    0    0    0  501 -0.00000000000E+00 -0.00000000000E+00 -0.41133254223E+03  0.41133254223E+03  0.00000000000E+00 0. -1.
         23    2    1    2    0    0  0.74403390995E+03 -0.11929920883E+03  0.58651597177E+03  0.95919830057E+03  0.90783447320E+02 0.  0.
         13    1    3    3    0    0  0.47131641472E+03 -0.69623614917E+02  0.42454624324E+03  0.63814271381E+03  0.00000000000E+00 0.  1.
        -13    1    3    3    0    0  0.27271749523E+03 -0.49675593912E+02  0.16196972853E+03  0.32105558677E+03  0.00000000000E+00 0. -1.
         22    1    1    2    0    0 -0.74403390995E+03  0.11929920883E+03  0.40594253382E+03  0.85592528946E+03  0.00000000000E+00 0.  1.
<mgrwt>
<rscale>  0 0.15197696E+04</rscale>
<asrwt>0</asrwt>
<pdfrwt beam="1">  1        2 0.21596785E+00 0.15197696E+04</pdfrwt>
<pdfrwt beam="2">  1       -2 0.63281930E-01 0.15197696E+04</pdfrwt>
<totfact> 0.32118539E+01</totfact>
</mgrwt>
</event>
<event>
 6    1  0.1817112E-005  0.5360555E+04  0.7818608E-02  0.7775174E-01
         -2   -1    0    0    0  501 -0.00000000000E+00  0.00000000000E+00  0.18400661902E+04  0.18400661902E+04  0.00000000000E+00 0.  1.
          2   -1    0    0  501    0  0.00000000000E+00 -0.00000000000E+00 -0.39041468461E+04  0.39041468461E+04  0.00000000000E+00 0. -1.
         23    2    1    2    0    0  0.17794728903E+04  0.11834182820E+04  0.69976388183E+03  0.22505274141E+04  0.90562430414E+02 0.  0.
         13    1    3    3    0    0  0.12566839579E+04  0.78758131547E+03  0.49742272693E+03  0.15642788331E+04  0.00000000000E+00 0.  1.
        -13    1    3    3    0    0  0.52278893246E+03  0.39583696653E+03  0.20234115490E+03  0.68624858101E+03  0.00000000000E+00 0. -1.
         22    1    1    2    0    0 -0.17794728903E+04 -0.11834182820E+04 -0.27638445377E+04  0.34936856221E+04  0.00000000000E+00 0. -1.
<mgrwt>
<rscale>  0 0.53605554E+04</rscale>
<asrwt>0</asrwt>
<pdfrwt beam="1">  1        2 0.60063797E+00 0.53605554E+04</pdfrwt>
<pdfrwt beam="2">  1       -2 0.28308711E+00 0.53605554E+04</pdfrwt>
<totfact> 0.11591541E-02</totfact>
</mgrwt>
</event>
<event>
 6    1  0.1817112E-005  0.3597780E+04  0.7818608E-02  0.8091000E-01
         -2   -1    0    0    0  501 -0.00000000000E+00  0.00000000000E+00  0.20996961450E+04  0.20996961450E+04  0.00000000000E+00 0. -1.
          2   -1    0    0  501    0  0.00000000000E+00 -0.00000000000E+00 -0.15411780398E+04  0.15411780398E+04  0.00000000000E+00 0.  1.
         23    2    1    2    0    0 -0.11946635173E+04 -0.89434706086E+03 -0.73493720260E+03  0.16660060327E+04  0.91464881383E+02 0.  0.
         13    1    3    3    0    0 -0.63203504898E+02 -0.26091936199E+02 -0.43368942985E+02  0.80971213290E+02  0.00000000000E+00 0.  1.
        -13    1    3    3    0    0 -0.11314600124E+04 -0.86825512466E+03 -0.69156825961E+03  0.15850348194E+04  0.00000000000E+00 0. -1.
         22    1    1    2    0    0  0.11946635173E+04  0.89434706086E+03  0.12934553078E+04  0.19748681521E+04  0.00000000000E+00 0.  1.
<mgrwt>
<rscale>  0 0.35977802E+04</rscale>
<asrwt>0</asrwt>
<pdfrwt beam="1">  1        2 0.23710432E+00 0.35977802E+04</pdfrwt>
<pdfrwt beam="2">  1       -2 0.32303017E+00 0.35977802E+04</pdfrwt>
<totfact> 0.22489595E-01</totfact>
</mgrwt>
</event>
<event>
 6    1  0.1817112E-005  0.4408893E+04  0.7818608E-02  0.7926784E-01
          2   -1    0    0  501    0  0.00000000000E+00  0.00000000000E+00  0.26865899100E+04  0.26865899100E+04  0.00000000000E+00 0.  1.
         -2   -1    0    0    0  501 -0.00000000000E+00 -0.00000000000E+00 -0.18088302802E+04  0.18088302802E+04  0.00000000000E+00 0. -1.
         23    2    1    2    0    0  0.19360525824E+04 -0.10215460594E+04  0.69642129877E+03  0.22988912139E+04  0.89678507237E+02 0.  0.
         13    1    3    3    0    0  0.14318504819E+04 -0.71049630506E+03  0.50696709818E+03  0.16769068074E+04  0.00000000000E+00 0.  1.
        -13    1    3    3    0    0  0.50420210051E+03 -0.31104975432E+03  0.18945420060E+03  0.62198440651E+03  0.00000000000E+00 0. -1.
         22    1    1    2    0    0 -0.19360525824E+04  0.10215460594E+04  0.18133833101E+03  0.21965289763E+04  0.00000000000E+00 0.  1.
<mgrwt>
<rscale>  0 0.44088934E+04</rscale>
<asrwt>0</asrwt>
<pdfrwt beam="1">  1        2 0.41332153E+00 0.44088934E+04</pdfrwt>
<pdfrwt beam="2">  1       -2 0.27828158E+00 0.44088934E+04</pdfrwt>
<totfact> 0.89058866E-02</totfact>
</mgrwt>
</event>
<event>
 6    1  0.1817112E-005  0.1541364E+04  0.7818608E-02  0.8857403E-01
          2   -1    0    0  501    0  0.00000000000E+00  0.00000000000E+00  0.18660185169E+04  0.18660185169E+04  0.00000000000E+00 0. -1.
         -2   -1    0    0    0  501 -0.00000000000E+00 -0.00000000000E+00 -0.31829841875E+03  0.31829841875E+03  0.00000000000E+00 0.  1.
         23    2    1    2    0    0  0.73721666270E+01 -0.66234737696E+03  0.13277218124E+04  0.14863501439E+04  0.87367858067E+02 0.  0.
         13    1    3    3    0    0 -0.27618846994E+02 -0.38335261499E+03  0.83066775538E+03  0.91527643254E+03  0.00000000000E+00 0. -1.
        -13    1    3    3    0    0  0.34991013621E+02 -0.27899476198E+03  0.49705405702E+03  0.57107371139E+03  0.00000000000E+00 0.  1.
         22    1    1    2    0    0 -0.73721666270E+01  0.66234737696E+03  0.21999828575E+03  0.69796679172E+03  0.00000000000E+00 0.  1.
<mgrwt>
<rscale>  0 0.15413640E+04</rscale>
<asrwt>0</asrwt>
<pdfrwt beam="1">  1        2 0.28707976E+00 0.15413640E+04</pdfrwt>
<pdfrwt beam="2">  1       -2 0.48968989E-01 0.15413640E+04</pdfrwt>
<totfact> 0.30162600E+01</totfact>
</mgrwt>
</event>
<event>
 6    1  0.1817112E-005  0.2786740E+04  0.7818608E-02  0.8307397E-01
         -1   -1    0    0    0  501 -0.00000000000E+00  0.00000000000E+00  0.12820760612E+04  0.12820760612E+04  0.00000000000E+00 0.  1.
          1   -1    0    0  501    0  0.00000000000E+00 -0.00000000000E+00 -0.15143249705E+04  0.15143249705E+04  0.00000000000E+00 0. -1.
         23    2    1    2    0    0  0.10971533930E+03 -0.12564646545E+04  0.47267978393E+03  0.13515254847E+04  0.11159782263E+03 0.  0.
         13    1    3    3    0    0 -0.45890014775E+01 -0.58246487214E+03  0.21054154251E+03  0.61936590746E+03  0.00000000000E+00 0.  1.
        -13    1    3    3    0    0  0.11430434077E+03 -0.67399978236E+03  0.26213824143E+03  0.73215957725E+03  0.00000000000E+00 0. -1.
         22    1    1    2    0    0 -0.10971533930E+03  0.12564646545E+04 -0.70492869322E+03  0.14448755470E+04  0.00000000000E+00 0. -1.
<mgrwt>
<rscale>  0 0.27867399E+04</rscale>
<asrwt>0</asrwt>
<pdfrwt beam="1">  1        1 0.23297307E+00 0.27867399E+04</pdfrwt>
<pdfrwt beam="2">  1       -1 0.19724247E+00 0.27867399E+04</pdfrwt>
<totfact> 0.87154048E-01</totfact>
</mgrwt>
</event>
<event>
 6    1  0.1817112E-005  0.1119393E+04  0.7818608E-02  0.9186494E-01
          2   -1    0    0  501    0  0.00000000000E+00  0.00000000000E+00  0.97809318115E+03  0.97809318115E+03  0.00000000000E+00 0. -1.
         -2   -1    0    0    0  501 -0.00000000000E+00 -0.00000000000E+00 -0.32027627261E+03  0.32027627261E+03  0.00000000000E+00 0.  1.
         23    2    1    2    0    0  0.44473816572E+03  0.20806453366E+03  0.63392404569E+03  0.80678654610E+03  0.89229754259E+02 0.  0.
         13    1    3    3    0    0  0.17677318692E+03  0.10821048205E+03  0.32819161581E+03  0.38815976701E+03  0.00000000000E+00 0.  1.
        -13    1    3    3    0    0  0.26796497880E+03  0.99854051610E+02  0.30573242988E+03  0.41862677909E+03  0.00000000000E+00 0. -1.
         22    1    1    2    0    0 -0.44473816572E+03 -0.20806453366E+03  0.23892862850E+02  0.49158290767E+03  0.00000000000E+00 0. -1.
<mgrwt>
<rscale>  0 0.11193928E+04</rscale>
<asrwt>0</asrwt>
<pdfrwt beam="1">  1        2 0.15047587E+00 0.11193928E+04</pdfrwt>
<pdfrwt beam="2">  1       -2 0.49273273E-01 0.11193928E+04</pdfrwt>
<totfact> 0.10060581E+02</totfact>
</mgrwt>
</event>
<event>
 6    1  0.1817112E-005  0.3991822E+04  0.7818608E-02  0.8006198E-01
         -2   -1    0    0    0  501 -0.00000000000E+00  0.00000000000E+00  0.11048366026E+04  0.11048366026E+04  0.00000000000E+00 0.  1.
          2   -1    0    0  501    0  0.00000000000E+00 -0.00000000000E+00 -0.36056567379E+04  0.36056567379E+04  0.00000000000E+00 0. -1.
         23    2    1    2    0    0  0.10593140165E+04  0.50614072054E+03 -0.31542431153E+04  0.33668839459E+04  0.91286692603E+02 0.  0.
         11    1    3    3    0    0  0.55897848360E+03  0.24164513696E+03 -0.17473269037E+04  0.18504055301E+04  0.00000000000E+00 0.  1.
        -11    1    3    3    0    0  0.50033553287E+03  0.26449558358E+03 -0.14069162116E+04  0.15164784158E+04  0.00000000000E+00 0. -1.
         22    1    1    2    0    0 -0.10593140165E+04 -0.50614072054E+03  0.65342298004E+03  0.13436093946E+04  0.00000000000E+00 0.  1.
<mgrwt>
<rscale>  0 0.39918224E+04</rscale>
<asrwt>0</asrwt>
<pdfrwt beam="1">  1        2 0.55471641E+00 0.39918224E+04</pdfrwt>
<pdfrwt beam="2">  1       -2 0.16997486E+00 0.39918224E+04</pdfrwt>
<totfact> 0.11487324E-01</totfact>
</mgrwt>
</event>
<event>
 6    1  0.1817112E-005  0.5158950E+04  0.7818608E-02  0.7804445E-01
         -1   -1    0    0    0  501 -0.00000000000E+00  0.00000000000E+00  0.44563267231E+04  0.44563267231E+04  0.00000000000E+00 0.  1.
          1   -1    0    0  501    0  0.00000000000E+00 -0.00000000000E+00 -0.14930885385E+04  0.14930885385E+04  0.00000000000E+00 0. -1.
         23    2    1    2    0    0 -0.27836108012E+03  0.22344818896E+04  0.29310268964E+04  0.36974312979E+04  0.98414069502E+02 0.  0.
         11    1    3    3    0    0 -0.16594153568E+03  0.94414858591E+03  0.12331595001E+04  0.15619332566E+04  0.00000000000E+00 0.  1.
        -11    1    3    3    0    0 -0.11241954444E+03  0.12903333037E+04  0.16978673963E+04  0.21354980412E+04  0.00000000000E+00 0. -1.
         22    1    1    2    0    0  0.27836108012E+03 -0.22344818896E+04  0.32211288192E+02  0.22519839638E+04  0.00000000000E+00 0.  1.
<mgrwt>
<rscale>  0 0.51589496E+04</rscale>
<asrwt>0</asrwt>
<pdfrwt beam="1">  1        1 0.22970593E+00 0.51589496E+04</pdfrwt>
<pdfrwt beam="2">  1       -1 0.68558872E+00 0.51589496E+04</pdfrwt>
<totfact> 0.10686777E-03</totfact>
</mgrwt>
</event>
<event>
 6    1  0.1817112E-005  0.3475910E+04  0.7818608E-02  0.8119523E-01
         -2   -1    0    0    0  501 -0.00000000000E+00  0.00000000000E+00  0.76924315323E+03  0.76924315323E+03  0.00000000000E+00 0.  1.
          2   -1    0    0  501    0  0.00000000000E+00 -0.00000000000E+00 -0.39265708552E+04  0.39265708552E+04  0.00000000000E+00 0. -1.
         23    2    1    2    0    0 -0.58146241297E+03  0.16345930899E+04 -0.16861276729E+04  0.24210782803E+04  0.92738355906E+02 0.  0.
         13    1    3    3    0    0 -0.34294918659E+03  0.10949184235E+04 -0.11168221665E+04  0.16011721489E+04  0.00000000000E+00 0. -1.
        -13    1    3    3    0    0 -0.23851322638E+03  0.53967466640E+03 -0.56930550635E+03  0.81990613138E+03  0.00000000000E+00 0.  1.
         22    1    1    2    0    0  0.58146241297E+03 -0.16345930899E+04 -0.14712000291E+04  0.22747357282E+04  0.00000000000E+00 0.  1.
<mgrwt>
<rscale>  0 0.34759101E+04</rscale>
<asrwt>0</asrwt>
<pdfrwt beam="1">  1        2 0.60408783E+00 0.34759101E+04</pdfrwt>
<pdfrwt beam="2">  1       -2 0.11834510E+00 0.34759101E+04</pdfrwt>
<totfact> 0.17683454E-01</totfact>
</mgrwt>
</event>
<event>
 6    1  0.1817112E-005  0.2409578E+04  0.7818608E-02  0.8435926E-01
         -2   -1    0    0    0  501 -0.00000000000E+00  0.00000000000E+00  0.12272807738E+04  0.12272807738E+04  0.00000000000E+00 0.  1.
          2   -1    0    0  501    0  0.00000000000E+00 -0.00000000000E+00 -0.11827096426E+04  0.11827096426E+04  0.00000000000E+00 0. -1.
         23    2    1    2    0    0  0.78580176973E+03 -0.84181408516E+03  0.37057835370E+03  0.12131545528E+04  0.90996030185E+02 0.  0.
         11    1    3    3    0    0  0.33233428109E+03 -0.42196752341E+03  0.16610562439E+03  0.56222214796E+03  0.00000000000E+00 0.  1.
        -11    1    3    3    0    0  0.45346748864E+03 -0.41984656176E+03  0.20447272931E+03  0.65093240487E+03  0.00000000000E+00 0. -1.
         22    1    1    2    0    0 -0.78580176973E+03  0.84181408516E+03 -0.32600722245E+03  0.11968358636E+04  0.00000000000E+00 0. -1.
<mgrwt>
<rscale>  0 0.24095782E+04</rscale>
<asrwt>0</asrwt>
<pdfrwt beam="1">  1        2 0.18195533E+00 0.24095782E+04</pdfrwt>
<pdfrwt beam="2">  1       -2 0.18881243E+00 0.24095782E+04</pdfrwt>
<totfact> 0.27517835E+00</totfact>
</mgrwt>
</event>
<event>
 6    1  0.1817112E-005  0.4010285E+04  0.7818608E-02  0.8002475E-01
          2   -1    0    0  501    0  0.00000000000E+00  0.00000000000E+00  0.24387322653E+04  0.24387322653E+04  0.00000000000E+00 0. -1.
         -2   -1    0    0    0  501 -0.00000000000E+00 -0.00000000000E+00 -0.16486417208E+04  0.16486417208E+04  0.00000000000E+00 0.  1.
         23    2    1    2    0    0 -0.18062672564E+04 -0.59508989603E+03  0.10397462503E+04  0.21692860431E+04  0.89421953220E+02 0.  0.
         13    1    3    3    0    0 -0.51960040173E+03 -0.20143059028E+03  0.33759197343E+03  0.65155751910E+03  0.00000000000E+00 0.  1.
        -13    1    3    3    0    0 -0.12866668547E+04 -0.39365930575E+03  0.70215427689E+03  0.15177285240E+04  0.00000000000E+00 0. -1.
         22    1    1    2    0    0  0.18062672564E+04  0.59508989603E+03 -0.24965570586E+03  0.19180879431E+04  0.00000000000E+00 0.  1.
<mgrwt>
<rscale>  0 0.40102847E+04</rscale>
<asrwt>0</asrwt>
<pdfrwt beam="1">  1        2 0.37518958E+00 0.40102847E+04</pdfrwt>
<pdfrwt beam="2">  1       -2 0.25363719E+00 0.40102847E+04</pdfrwt>
<totfact> 0.18171288E-01</totfact>
</mgrwt>
</event>
<event>
 6    1  0.1817112E-005  0.1512530E+04  0.7818608E-02  0.8876163E-01
         -2   -1    0    0    0  501 -0.00000000000E+00  0.00000000000E+00  0.15079391514E+04  0.15079391514E+04  0.00000000000E+00 0. -1.
          2   -1    0    0  501    0  0.00000000000E+00 -0.00000000000E+00 -0.37928353760E+03  0.37928353760E+03  0.00000000000E+00 0.  1.
         23    2    1    2    0    0  0.20891280483E+03 -0.62728978176E+03  0.10172358248E+04  0.12167367460E+04  0.92425946188E+02 0.  0.
         11    1    3    3    0    0  0.20361660245E+03 -0.59278206477E+03  0.91821283964E+03  0.11117396800E+04  0.00000000000E+00 0.  1.
        -11    1    3    3    0    0  0.52962023738E+01 -0.34507716987E+02  0.99022985154E+02  0.10499706605E+03  0.00000000000E+00 0. -1.
         22    1    1    2    0    0 -0.20891280483E+03  0.62728978176E+03  0.11141978896E+03  0.67048594295E+03  0.00000000000E+00 0.  1.
<mgrwt>
<rscale>  0 0.15125297E+04</rscale>
<asrwt>0</asrwt>
<pdfrwt beam="1">  1        2 0.58351314E-01 0.15125297E+04</pdfrwt>
<pdfrwt beam="2">  1       -2 0.23199064E+00 0.15125297E+04</pdfrwt>
<totfact> 0.67699570E+00</totfact>
</mgrwt>
</event>
<event>
 6    1  0.1817112E-005  0.1903640E+04  0.7818608E-02  0.8653047E-01
          2   -1    0    0  501    0  0.00000000000E+00  0.00000000000E+00  0.89837716426E+03  0.89837716426E+03  0.00000000000E+00 0. -1.
         -2   -1    0    0    0  501 -0.00000000000E+00 -0.00000000000E+00 -0.10084416896E+04  0.10084416896E+04  0.00000000000E+00 0.  1.
         23    2    1    2    0    0  0.74412564761E+03 -0.38076476823E+02 -0.64432612180E+03  0.98997194688E+03  0.98567270684E+02 0.  0.
         11    1    3    3    0    0  0.66154891506E+03 -0.80687740092E+01 -0.59146217914E+03  0.88743426883E+03  0.00000000000E+00 0.  1.
        -11    1    3    3    0    0  0.82576732543E+02 -0.30007702814E+02 -0.52863942661E+02  0.10253767805E+03  0.00000000000E+00 0. -1.
         22    1    1    2    0    0 -0.74412564761E+03  0.38076476823E+02  0.53426159642E+03  0.91684690702E+03  0.00000000000E+00 0. -1.
<mgrwt>
<rscale>  0 0.19036397E+04</rscale>
<asrwt>0</asrwt>
<pdfrwt beam="1">  1        2 0.13821187E+00 0.19036397E+04</pdfrwt>
<pdfrwt beam="2">  1       -2 0.15514487E+00 0.19036397E+04</pdfrwt>
<totfact> 0.75348075E+00</totfact>
</mgrwt>
</event>
<event>
 6    1  0.1817112E-005  0.2492172E+04  0.7818608E-02  0.8405780E-01
         -2   -1    0    0    0  501 -0.00000000000E+00  0.00000000000E+00  0.84845130458E+03  0.84845130458E+03  0.00000000000E+00 0.  1.
          2   -1    0    0  501    0  0.00000000000E+00 -0.00000000000E+00 -0.18300756484E+04  0.18300756484E+04  0.00000000000E+00 0. -1.
         23    2    1    2    0    0 -0.78459938678E+03 -0.42167811634E+03  0.44252131469E+03  0.99876521743E+03  0.91094533609E+02 0.  0.
         11    1    3    3    0    0 -0.67196879660E+03 -0.37883097546E+03  0.35128647160E+03  0.84761852074E+03  0.00000000000E+00 0. -1.
        -11    1    3    3    0    0 -0.11263059018E+03 -0.42847140884E+02  0.91234843098E+02  0.15114669670E+03  0.00000000000E+00 0.  1.
         22    1    1    2    0    0  0.78459938678E+03  0.42167811634E+03 -0.14241456585E+04  0.16797617355E+04  0.00000000000E+00 0. -1.
<mgrwt>
<rscale>  0 0.24921718E+04</rscale>
<asrwt>0</asrwt>
<pdfrwt beam="1">  1        2 0.28155010E+00 0.24921718E+04</pdfrwt>
<pdfrwt beam="2">  1       -2 0.13053097E+00 0.24921718E+04</pdfrwt>
<totfact> 0.31855474E+00</totfact>
</mgrwt>
</event>
<event>
 6    1  0.1817112E-005  0.1519395E+04  0.7818608E-02  0.8871657E-01
          2   -1    0    0  501    0  0.00000000000E+00  0.00000000000E+00  0.27912798508E+03  0.27912798508E+03  0.00000000000E+00 0. -1.
         -2   -1    0    0    0  501 -0.00000000000E+00 -0.00000000000E+00 -0.20676544060E+04  0.20676544060E+04  0.00000000000E+00 0.  1.
         23    2    1    2    0    0 -0.18933964513E+03  0.67318109572E+03 -0.45026343109E+03  0.83682539871E+03  0.92289228553E+02 0.  0.
         11    1    3    3    0    0 -0.11363032755E+03  0.25357259386E+03 -0.20076850997E+03  0.34281030657E+03  0.00000000000E+00 0. -1.
        -11    1    3    3    0    0 -0.75709317579E+02  0.41960850186E+03 -0.24949492112E+03  0.49401509214E+03  0.00000000000E+00 0.  1.
         22    1    1    2    0    0  0.18933964513E+03 -0.67318109572E+03 -0.13382629899E+04  0.15099569924E+04  0.00000000000E+00 0.  1.
<mgrwt>
<rscale>  0 0.15193949E+04</rscale>
<asrwt>0</asrwt>
<pdfrwt beam="1">  1        2 0.42942767E-01 0.15193949E+04</pdfrwt>
<pdfrwt beam="2">  1       -2 0.31810068E+00 0.15193949E+04</pdfrwt>
<totfact> 0.28375907E+00</totfact>
</mgrwt>
</event>
<event>
 6    1  0.1817112E-005  0.1011303E+04  0.7818608E-02  0.9296235E-01
          2   -1    0    0  501    0  0.00000000000E+00  0.00000000000E+00  0.13248265965E+04  0.13248265965E+04  0.00000000000E+00 0. -1.
         -2   -1    0    0    0  501 -0.00000000000E+00 -0.00000000000E+00 -0.19299370031E+03  0.19299370031E+03  0.00000000000E+00 0.  1.
         23    2    1    2    0    0  0.44347653676E+03 -0.45077804097E+02  0.22756447463E+03  0.50965125081E+03  0.96204782953E+02 0.  0.
         13    1    3    3    0    0  0.21338179193E+03 -0.61821524191E+02  0.14162980905E+03  0.26346288694E+03  0.00000000000E+00 0. -1.
        -13    1    3    3    0    0  0.23009474483E+03  0.16743720094E+02  0.85934665580E+02  0.24618836387E+03  0.00000000000E+00 0.  1.
         22    1    1    2    0    0 -0.44347653676E+03  0.45077804097E+02  0.90426842153E+03  0.10081690460E+04  0.00000000000E+00 0. -1.
<mgrwt>
<rscale>  0 0.10113025E+04</rscale>
<asrwt>0</asrwt>
<pdfrwt beam="1">  1        2 0.20381947E+00 0.10113025E+04</pdfrwt>
<pdfrwt beam="2">  1       -2 0.29691339E-01 0.10113025E+04</pdfrwt>
<totfact> 0.16657772E+02</totfact>
</mgrwt>
</event>
<event>
 6    1  0.1817112E-005  0.3599700E+04  0.7818608E-02  0.8090560E-01
         -1   -1    0    0    0  501 -0.00000000000E+00  0.00000000000E+00  0.11041981938E+04  0.11041981938E+04  0.00000000000E+00 0.  1.
          1   -1    0    0  501    0  0.00000000000E+00 -0.00000000000E+00 -0.29337670622E+04  0.29337670622E+04  0.00000000000E+00 0. -1.
         23    2    1    2    0    0  0.16196606228E+04 -0.72506325974E+03 -0.58526493460E+03  0.18706375136E+04  0.87934065923E+02 0.  0.
         11    1    3    3    0    0  0.73646060166E+03 -0.36161795326E+03 -0.30495945550E+03  0.87529539666E+03  0.00000000000E+00 0. -1.
        -11    1    3    3    0    0  0.88320002113E+03 -0.36344530648E+03 -0.28030547910E+03  0.99534211693E+03  0.00000000000E+00 0.  1.
         22    1    1    2    0    0 -0.16196606228E+04  0.72506325974E+03 -0.12443039337E+04  0.21673277424E+04  0.00000000000E+00 0. -1.
<mgrwt>
<rscale>  0 0.35997001E+04</rscale>
<asrwt>0</asrwt>
<pdfrwt beam="1">  1        1 0.45134878E+00 0.35997001E+04</pdfrwt>
<pdfrwt beam="2">  1       -1 0.16987664E+00 0.35997001E+04</pdfrwt>
<totfact> 0.13315680E-01</totfact>
</mgrwt>
</event>
<event>
 6    1  0.4800526E-005  0.5114506E+04  0.7818608E-02  0.7811082E-01
         -2   -1    0    0    0  501 -0.00000000000E+00  0.00000000000E+00  0.22184271629E+04  0.22184271629E+04  0.00000000000E+00 0. -1.
          2   -1    0    0  501    0  0.00000000000E+00 -0.00000000000E+00 -0.29478279983E+04  0.29478279983E+04  0.00000000000E+00 0.  1.
         23    2    1    2    0    0  0.52446415224E+03  0.27805563237E+03  0.21469085348E+04  0.22293293577E+04  0.91189618469E+02 0.  0.
         11    1    3    3    0    0  0.39307243333E+03  0.17454759495E+03  0.14369202400E+04  0.14999041892E+04  0.00000000000E+00 0.  1.
        -11    1    3    3    0    0  0.13139171891E+03  0.10350803741E+03  0.70998829482E+03  0.72942516847E+03  0.00000000000E+00 0. -1.
         22    1    1    2    0    0 -0.52446415224E+03 -0.27805563237E+03 -0.28763093703E+04  0.29369258035E+04  0.00000000000E+00 0.  1.
<mgrwt>
<rscale>  0 0.51145055E+04</rscale>
<asrwt>0</asrwt>
<pdfrwt beam="1">  1        2 0.45351200E+00 0.51145055E+04</pdfrwt>
<pdfrwt beam="2">  1       -2 0.34129649E+00 0.51145055E+04</pdfrwt>
<totfact> 0.23886780E-02</totfact>
</mgrwt>
</event>
<event>
 6    1  0.1817112E-005  0.1882067E+04  0.7818608E-02  0.8663834E-01
          2   -1    0    0  501    0  0.00000000000E+00  0.00000000000E+00  0.12905877005E+04  0.12905877005E+04  0.00000000000E+00 0. -1.
         -2   -1    0    0    0  501 -0.00000000000E+00 -0.00000000000E+00 -0.68615595566E+03  0.68615595566E+03  0.00000000000E+00 0.  1.
         23    2    1    2    0    0  0.64440591483E+03  0.47004301124E+01  0.10199696029E+04  0.12099628606E+04  0.91602707786E+02 0.  0.
         11    1    3    3    0    0  0.34934877113E+03  0.46496150293E+02  0.52971698938E+03  0.63624409209E+03  0.00000000000E+00 0.  1.
        -11    1    3    3    0    0  0.29505714370E+03 -0.41795720181E+02  0.49025261351E+03  0.57371876849E+03  0.00000000000E+00 0. -1.
         22    1    1    2    0    0 -0.64440591483E+03 -0.47004301124E+01 -0.41553785799E+03  0.76678079562E+03  0.00000000000E+00 0.  1.
<mgrwt>
<rscale>  0 0.18820674E+04</rscale>
<asrwt>0</asrwt>
<pdfrwt beam="1">  1        2 0.19855195E+00 0.18820674E+04</pdfrwt>
<pdfrwt beam="2">  1       -2 0.10556245E+00 0.18820674E+04</pdfrwt>
<totfact> 0.11397391E+01</totfact>
</mgrwt>
</event>
<event>
 6    1  0.1817112E-005  0.2591371E+04  0.7818608E-02  0.8371138E-01
          2   -1    0    0  501    0  0.00000000000E+00  0.00000000000E+00  0.19232179976E+04  0.19232179976E+04  0.00000000000E+00 0. -1.
         -2   -1    0    0    0  501 -0.00000000000E+00 -0.00000000000E+00 -0.87291258886E+03  0.87291258886E+03  0.00000000000E+00 0.  1.
         23    2    1    2    0    0 -0.55203130772E+03  0.78143318482E+03  0.14661698059E+04  0.17529050193E+04  0.87439807061E+02 0.  0.
         13    1    3    3    0    0 -0.26014200114E+03  0.35246253948E+03  0.74941208070E+03  0.86805654723E+03  0.00000000000E+00 0.  1.
        -13    1    3    3    0    0 -0.29188930659E+03  0.42897064534E+03  0.71675772520E+03  0.88484847206E+03  0.00000000000E+00 0. -1.
         22    1    1    2    0    0  0.55203130772E+03 -0.78143318482E+03 -0.41586439721E+03  0.10432255671E+04  0.00000000000E+00 0.  1.
<mgrwt>
<rscale>  0 0.25913712E+04</rscale>
<asrwt>0</asrwt>
<pdfrwt beam="1">  1        2 0.29587969E+00 0.25913712E+04</pdfrwt>
<pdfrwt beam="2">  1       -2 0.13429424E+00 0.25913712E+04</pdfrwt>
<totfact> 0.26091276E+00</totfact>
</mgrwt>
</event>
<event>
 6    1  0.1817112E-005  0.2101938E+04  0.7818608E-02  0.8560390E-01
          2   -1    0    0  501    0  0.00000000000E+00  0.00000000000E+00  0.61652121902E+03  0.61652121902E+03  0.00000000000E+00 0. -1.
         -2   -1    0    0    0  501 -0.00000000000E+00 -0.00000000000E+00 -0.17915611826E+04  0.17915611826E+04  0.00000000000E+00 0.  1.
         23    2    1    2    0    0  0.16586857657E+03  0.51007528663E+02 -0.17738389125E+04  0.17846448876E+04  0.91316671590E+02 0.  0.
         13    1    3    3    0    0  0.90036984989E+02  0.46282725778E+02 -0.13689953814E+04  0.13727334423E+04  0.00000000000E+00 0. -1.
        -13    1    3    3    0    0  0.75831591578E+02  0.47248028854E+01 -0.40484353117E+03  0.41191144530E+03  0.00000000000E+00 0.  1.
         22    1    1    2    0    0 -0.16586857657E+03 -0.51007528663E+02  0.59879894894E+03  0.62343751405E+03  0.00000000000E+00 0. -1.
<mgrwt>
<rscale>  0 0.21019377E+04</rscale>
<asrwt>0</asrwt>
<pdfrwt beam="1">  1        2 0.94849419E-01 0.21019377E+04</pdfrwt>
<pdfrwt beam="2">  1       -2 0.27562479E+00 0.21019377E+04</pdfrwt>
<totfact> 0.19804035E+00</totfact>
</mgrwt>
</event>
<event>
 6    1  0.1817112E-005  0.1259458E+04  0.7818608E-02  0.9062348E-01
         -2   -1    0    0    0  501 -0.00000000000E+00  0.00000000000E+00  0.28831846608E+03  0.28831846608E+03  0.00000000000E+00 0.  1.
          2   -1    0    0  501    0  0.00000000000E+00 -0.00000000000E+00 -0.13754196140E+04  0.13754196140E+04  0.00000000000E+00 0. -1.
         23    2    1    2    0    0 -0.43957784824E+02 -0.13265881263E+03 -0.13530546361E+04  0.13633018884E+04  0.91129266620E+02 0.  0.
         13    1    3    3    0    0 -0.41859281838E+02 -0.85984700783E+01 -0.35752527966E+03  0.36007007479E+03  0.00000000000E+00 0.  1.
        -13    1    3    3    0    0 -0.20985029860E+01 -0.12406034255E+03 -0.99552935646E+03  0.10032318136E+04  0.00000000000E+00 0. -1.
         22    1    1    2    0    0  0.43957784824E+02  0.13265881263E+03  0.26595348816E+03  0.30043619170E+03  0.00000000000E+00 0.  1.
<mgrwt>
<rscale>  0 0.12594584E+04</rscale>
<asrwt>0</asrwt>
<pdfrwt beam="1">  1        2 0.21160302E+00 0.12594584E+04</pdfrwt>
<pdfrwt beam="2">  1       -2 0.44356686E-01 0.12594584E+04</pdfrwt>
<totfact> 0.70787811E+01</totfact>
</mgrwt>
</event>
<event>
 6    1  0.1817112E-005  0.2042778E+04  0.7818608E-02  0.8586878E-01
         -2   -1    0    0    0  501 -0.00000000000E+00  0.00000000000E+00  0.13818856435E+04  0.13818856435E+04  0.00000000000E+00 0.  1.
          2   -1    0    0  501    0  0.00000000000E+00 -0.00000000000E+00 -0.75493604725E+03  0.75493604725E+03  0.00000000000E+00 0. -1.
         23    2    1    2    0    0 -0.24164536146E+03  0.96813439659E+03  0.95945662568E+02  0.10064934781E+04  0.90259962359E+02 0.  0.
         13    1    3    3    0    0 -0.72705246758E+02  0.16375519658E+03  0.32755996769E+02  0.18213943186E+03  0.00000000000E+00 0. -1.
        -13    1    3    3    0    0 -0.16894011470E+03  0.80437920002E+03  0.63189665799E+02  0.82435404629E+03  0.00000000000E+00 0.  1.
         22    1    1    2    0    0  0.24164536146E+03 -0.96813439659E+03  0.53100393366E+03  0.11303282126E+04  0.00000000000E+00 0. -1.
<mgrwt>
<rscale>  0 0.20427778E+04</rscale>
<asrwt>0</asrwt>
<pdfrwt beam="1">  1        2 0.11614401E+00 0.20427778E+04</pdfrwt>
<pdfrwt beam="2">  1       -2 0.21259779E+00 0.20427778E+04</pdfrwt>
<totfact> 0.37911163E+00</totfact>
</mgrwt>
</event>
<event>
 6    1  0.1817112E-005  0.1939282E+04  0.7818608E-02  0.8635547E-01
         -2   -1    0    0    0  501 -0.00000000000E+00  0.00000000000E+00  0.28104974095E+03  0.28104974095E+03  0.00000000000E+00 0.  1.
          2   -1    0    0  501    0  0.00000000000E+00 -0.00000000000E+00 -0.33453285972E+04  0.33453285972E+04  0.00000000000E+00 0. -1.
         23    2    1    2    0    0  0.61454233460E+03  0.35864205571E+03 -0.30892236698E+03  0.78063137328E+03  0.87555165379E+02 0.  0.
         11    1    3    3    0    0  0.30183184432E+03  0.22647297009E+03 -0.16769707029E+03  0.41293434806E+03  0.00000000000E+00 0.  1.
        -11    1    3    3    0    0  0.31271049028E+03  0.13216908562E+03 -0.14122529668E+03  0.36769702521E+03  0.00000000000E+00 0. -1.
         22    1    1    2    0    0 -0.61454233460E+03 -0.35864205571E+03 -0.27553564893E+04  0.28457469649E+04  0.00000000000E+00 0. -1.
<mgrwt>
<rscale>  0 0.19392821E+04</rscale>
<asrwt>0</asrwt>
<pdfrwt beam="1">  1        2 0.51466600E+00 0.19392821E+04</pdfrwt>
<pdfrwt beam="2">  1       -2 0.43238417E-01 0.19392821E+04</pdfrwt>
<totfact> 0.49423048E+00</totfact>
</mgrwt>
</event>
<event>
 6    1  0.1817112E-005  0.3226032E+04  0.7818608E-02  0.8181976E-01
          2   -1    0    0  501    0  0.00000000000E+00  0.00000000000E+00  0.13034547349E+04  0.13034547349E+04  0.00000000000E+00 0. -1.
         -2   -1    0    0    0  501 -0.00000000000E+00 -0.00000000000E+00 -0.19960961304E+04  0.19960961304E+04  0.00000000000E+00 0.  1.
         23    2    1    2    0    0 -0.15478492918E+04  0.43199966377E+03 -0.22084743955E+03  0.16247223139E+04  0.92129617237E+02 0.  0.
         11    1    3    3    0    0 -0.22032794114E+03  0.29237387488E+02 -0.37021811091E+02  0.22532163894E+03  0.00000000000E+00 0. -1.
        -11    1    3    3    0    0 -0.13275213506E+04  0.40276227628E+03 -0.18382562846E+03  0.13994006750E+04  0.00000000000E+00 0.  1.
         22    1    1    2    0    0  0.15478492918E+04 -0.43199966377E+03 -0.47179395595E+03  0.16748285513E+04  0.00000000000E+00 0.  1.
<mgrwt>
<rscale>  0 0.32260322E+04</rscale>
<asrwt>0</asrwt>
<pdfrwt beam="1">  1        2 0.20053150E+00 0.32260322E+04</pdfrwt>
<pdfrwt beam="2">  1       -2 0.30709171E+00 0.32260322E+04</pdfrwt>
<totfact> 0.39751353E-01</totfact>
</mgrwt>
</event>
<event>
 6    1  0.1817112E-005  0.9188048E+03  0.7818608E-02  0.9402375E-01
         -2   -1    0    0    0  501 -0.00000000000E+00  0.00000000000E+00  0.12866143804E+03  0.12866143804E+03  0.00000000000E+00 0.  1.
          2   -1    0    0  501    0  0.00000000000E+00 -0.00000000000E+00 -0.16403558840E+04  0.16403558840E+04  0.00000000000E+00 0. -1.
         23    2    1    2    0    0  0.42190338332E+03 -0.94507036004E+02 -0.10358661147E+04  0.11260969183E+04  0.90230910173E+02 0.  0.
         13    1    3    3    0    0  0.38003003786E+02 -0.31480970614E+02 -0.16636650484E+03  0.17353124716E+03  0.00000000000E+00 0. -1.
        -13    1    3    3    0    0  0.38390037954E+03 -0.63026065389E+02 -0.86949960982E+03  0.95256567113E+03  0.00000000000E+00 0.  1.
         22    1    1    2    0    0 -0.42190338332E+03  0.94507036004E+02 -0.47582833131E+03  0.64292040378E+03  0.00000000000E+00 0.  1.
<mgrwt>
<rscale>  0 0.91880476E+03</rscale>
<asrwt>0</asrwt>
<pdfrwt beam="1">  1        2 0.25236243E+00 0.91880476E+03</pdfrwt>
<pdfrwt beam="2">  1       -2 0.19794068E-01 0.91880476E+03</pdfrwt>
<totfact> 0.23114315E+02</totfact>
</mgrwt>
</event>
<event>
 6    1  0.1817112E-005  0.1220878E+04  0.7818608E-02  0.9094776E-01
          1   -1    0    0  501    0  0.00000000000E+00  0.00000000000E+00  0.70831487106E+03  0.70831487106E+03  0.00000000000E+00 0. -1.
         -1   -1    0    0    0  501 -0.00000000000E+00 -0.00000000000E+00 -0.52608762683E+03  0.52608762683E+03  0.00000000000E+00 0.  1.
         23    2    1    2    0    0  0.48681125867E+03  0.20886219769E+02 -0.27433866884E+03  0.56666462362E+03  0.91791365029E+02 0.  0.
         13    1    3    3    0    0  0.69175242529E+02 -0.29376626746E+02 -0.43653721322E+02  0.86912874554E+02  0.00000000000E+00 0.  1.
        -13    1    3    3    0    0  0.41763601614E+03  0.50262846515E+02 -0.23068494752E+03  0.47975174907E+03  0.00000000000E+00 0. -1.
         22    1    1    2    0    0 -0.48681125867E+03 -0.20886219769E+02  0.45656591307E+03  0.66773787426E+03  0.00000000000E+00 0. -1.
<mgrwt>
<rscale>  0 0.12208779E+04</rscale>
<asrwt>0</asrwt>
<pdfrwt beam="1">  1        1 0.10897152E+00 0.12208779E+04</pdfrwt>
<pdfrwt beam="2">  1       -1 0.80936557E-01 0.12208779E+04</pdfrwt>
<totfact> 0.40254569E+01</totfact>
</mgrwt>
</event>
<event>
 6    1  0.1817112E-005  0.2069618E+04  0.7818608E-02  0.8574746E-01
          2   -1    0    0  501    0  0.00000000000E+00  0.00000000000E+00  0.13684824714E+04  0.13684824714E+04  0.00000000000E+00 0. -1.
         -2   -1    0    0    0  501 -0.00000000000E+00 -0.00000000000E+00 -0.78249435994E+03  0.78249435994E+03  0.00000000000E+00 0.  1.
         23    2    1    2    0    0  0.25713483012E+03  0.88358280068E+03 -0.19372507559E+03  0.94483026455E+03  0.91312306830E+02 0.  0.
         13    1    3    3    0    0  0.47679147786E+02  0.12039695888E+03  0.22752178950E+01  0.12951411296E+03  0.00000000000E+00 0.  1.
        -13    1    3    3    0    0  0.20945568233E+03  0.76318584180E+03 -0.19600029348E+03  0.81531615159E+03  0.00000000000E+00 0. -1.
         22    1    1    2    0    0 -0.25713483012E+03 -0.88358280068E+03  0.77971318701E+03  0.12061465668E+04  0.00000000000E+00 0. -1.
<mgrwt>
<rscale>  0 0.20696181E+04</rscale>
<asrwt>0</asrwt>
<pdfrwt beam="1">  1        2 0.21053577E+00 0.20696181E+04</pdfrwt>
<pdfrwt beam="2">  1       -2 0.12038375E+00 0.20696181E+04</pdfrwt>
<totfact> 0.73436566E+00</totfact>
</mgrwt>
</event>
<event>
 6    1  0.1817112E-005  0.1437904E+04  0.7818608E-02  0.8926830E-01
         -2   -1    0    0    0  501 -0.00000000000E+00  0.00000000000E+00  0.40937903860E+03  0.40937903860E+03  0.00000000000E+00 0.  1.
          2   -1    0    0  501    0  0.00000000000E+00 -0.00000000000E+00 -0.12626241851E+04  0.12626241851E+04  0.00000000000E+00 0. -1.
         23    2    1    2    0    0 -0.60524049768E+03  0.37796677842E+03 -0.49629519279E+03  0.87413843875E+03  0.92920106016E+02 0.  0.
         13    1    3    3    0    0 -0.18838488466E+03  0.16982099786E+03 -0.17856428618E+03  0.31018259201E+03  0.00000000000E+00 0.  1.
        -13    1    3    3    0    0 -0.41685561302E+03  0.20814578055E+03 -0.31773090661E+03  0.56395584675E+03  0.00000000000E+00 0. -1.
         22    1    1    2    0    0  0.60524049768E+03 -0.37796677842E+03 -0.35694995373E+03  0.79786478496E+03  0.00000000000E+00 0.  1.
<mgrwt>
<rscale>  0 0.14379039E+04</rscale>
<asrwt>0</asrwt>
<pdfrwt beam="1">  1        2 0.19424988E+00 0.14379039E+04</pdfrwt>
<pdfrwt beam="2">  1       -2 0.62981390E-01 0.14379039E+04</pdfrwt>
<totfact> 0.39423547E+01</totfact>
</mgrwt>
</event>
<event>
 6    1  0.1817112E-005  0.2642331E+04  0.7818608E-02  0.8353963E-01
         -2   -1    0    0    0  501 -0.00000000000E+00  0.00000000000E+00  0.89692597539E+03  0.89692597539E+03  0.00000000000E+00 0.  1.
          2   -1    0    0  501    0  0.00000000000E+00 -0.00000000000E+00 -0.19460679953E+04  0.19460679953E+04  0.00000000000E+00 0. -1.
         23    2    1    2    0    0  0.31181582433E+03 -0.67092180462E+03  0.65059799221E+03  0.98921909627E+03  0.88946594911E+02 0.  0.
         13    1    3    3    0    0  0.97192348172E+02 -0.21307244168E+03  0.15270141451E+03  0.27957814639E+03  0.00000000000E+00 0. -1.
        -13    1    3    3    0    0  0.21462347616E+03 -0.45784936294E+03  0.49789657770E+03  0.70964094988E+03  0.00000000000E+00 0.  1.
         22    1    1    2    0    0 -0.31181582433E+03  0.67092180462E+03 -0.16997400121E+04  0.18537748744E+04  0.00000000000E+00 0. -1.
<mgrwt>
<rscale>  0 0.26423315E+04</rscale>
<asrwt>0</asrwt>
<pdfrwt beam="1">  1        2 0.29939507E+00 0.26423315E+04</pdfrwt>
<pdfrwt beam="2">  1       -2 0.13798861E+00 0.26423315E+04</pdfrwt>
<totfact> 0.23533874E+00</totfact>
</mgrwt>
</event>
<event>
 6    1  0.1817112E-005  0.6516266E+03  0.7818608E-02  0.9803732E-01
         -2   -1    0    0    0  501 -0.00000000000E+00  0.00000000000E+00  0.15570302609E+03  0.15570302609E+03  0.00000000000E+00 0.  1.
          2   -1    0    0  501    0  0.00000000000E+00 -0.00000000000E+00 -0.68177409930E+03  0.68177409930E+03  0.00000000000E+00 0. -1.
         23    2    1    2    0    0  0.92216659271E+02  0.15225771516E+03 -0.60919475975E+03  0.64101880580E+03  0.90002944468E+02 0.  0.
         13    1    3    3    0    0  0.61006261741E+02  0.27746152938E+02 -0.15144600469E+03  0.16561251557E+03  0.00000000000E+00 0.  1.
        -13    1    3    3    0    0  0.31210397531E+02  0.12451156222E+03 -0.45774875505E+03  0.47540629024E+03  0.00000000000E+00 0. -1.
         22    1    1    2    0    0 -0.92216659271E+02 -0.15225771516E+03  0.83123686542E+02  0.19645831959E+03  0.00000000000E+00 0.  1.
<mgrwt>
<rscale>  0 0.65162655E+03</rscale>
<asrwt>0</asrwt>
<pdfrwt beam="1">  1        2 0.10488832E+00 0.65162655E+03</pdfrwt>
<pdfrwt beam="2">  1       -2 0.23954312E-01 0.65162655E+03</pdfrwt>
<totfact> 0.65963740E+02</totfact>
</mgrwt>
</event>
<event>
 6    1  0.1817112E-005  0.3461575E+04  0.7818608E-02  0.8122957E-01
         -2   -1    0    0    0  501 -0.00000000000E+00  0.00000000000E+00  0.12685448326E+04  0.12685448326E+04  0.00000000000E+00 0.  1.
          2   -1    0    0  501    0  0.00000000000E+00 -0.00000000000E+00 -0.23614664124E+04  0.23614664124E+04  0.00000000000E+00 0. -1.
         23    2    1    2    0    0  0.16440174226E+04  0.21489184304E+03 -0.31322131447E+02  0.16612641360E+04  0.99225317874E+02 0.  0.
         11    1    3    3    0    0  0.10477913073E+04  0.17174777002E+03  0.12821734520E+02  0.10618513630E+04  0.00000000000E+00 0.  1.
        -11    1    3    3    0    0  0.59622611528E+03  0.43144073025E+02 -0.44143865967E+02  0.59941277303E+03  0.00000000000E+00 0. -1.
         22    1    1    2    0    0 -0.16440174226E+04 -0.21489184304E+03 -0.10615994484E+04  0.19687471089E+04  0.00000000000E+00 0.  1.
<mgrwt>
<rscale>  0 0.34615754E+04</rscale>
<asrwt>0</asrwt>
<pdfrwt beam="1">  1        2 0.36330252E+00 0.34615754E+04</pdfrwt>
<pdfrwt beam="2">  1       -2 0.19516074E+00 0.34615754E+04</pdfrwt>
<totfact> 0.49356672E-01</totfact>
</mgrwt>
</event>
<event>
 6    1  0.1817112E-005  0.1687126E+04  0.7818608E-02  0.8768741E-01
         -2   -1    0    0    0  501 -0.00000000000E+00  0.00000000000E+00  0.35488101446E+03  0.35488101446E+03  0.00000000000E+00 0.  1.
          2   -1    0    0  501    0  0.00000000000E+00 -0.00000000000E+00 -0.20051739197E+04  0.20051739197E+04  0.00000000000E+00 0. -1.
         23    2    1    2    0    0 -0.29366266868E+01  0.83185432045E+03 -0.10031469529E+04  0.13061156011E+04  0.87429514531E+02 0.  0.
         11    1    3    3    0    0  0.29093075753E+02  0.69533999530E+03 -0.82227234222E+03  0.10772538795E+04  0.00000000000E+00 0. -1.
        -11    1    3    3    0    0 -0.32029702440E+02  0.13651432515E+03 -0.18087461068E+03  0.22886172157E+03  0.00000000000E+00 0.  1.
         22    1    1    2    0    0  0.29366266868E+01 -0.83185432045E+03 -0.64714595237E+03  0.10539393331E+04  0.00000000000E+00 0.  1.
<mgrwt>
<rscale>  0 0.16871255E+04</rscale>
<asrwt>0</asrwt>
<pdfrwt beam="1">  1        2 0.30848830E+00 0.16871255E+04</pdfrwt>
<pdfrwt beam="2">  1       -2 0.54597079E-01 0.16871255E+04</pdfrwt>
<totfact> 0.19959910E+01</totfact>
</mgrwt>
</event>
<event>
 6    1  0.1817112E-005  0.2049534E+04  0.7818608E-02  0.8583806E-01
         -2   -1    0    0    0  501 -0.00000000000E+00  0.00000000000E+00  0.56527236445E+03  0.56527236445E+03  0.00000000000E+00 0.  1.
          2   -1    0    0  501    0  0.00000000000E+00 -0.00000000000E+00 -0.18577724477E+04  0.18577724477E+04  0.00000000000E+00 0. -1.
         23    2    1    2    0    0  0.57743231420E+03 -0.60026233518E+03  0.53768328519E+02  0.83995240011E+03  0.94265862237E+02 0.  0.
         13    1    3    3    0    0  0.15339762484E+03 -0.10324836957E+03  0.12228049601E+02  0.18531212136E+03  0.00000000000E+00 0.  1.
        -13    1    3    3    0    0  0.42403468936E+03 -0.49701396561E+03  0.41540278917E+02  0.65464027875E+03  0.00000000000E+00 0. -1.
         22    1    1    2    0    0 -0.57743231420E+03  0.60026233518E+03 -0.13462684118E+04  0.15830924120E+04  0.00000000000E+00 0. -1.
<mgrwt>
<rscale>  0 0.20495340E+04</rscale>
<asrwt>0</asrwt>
<pdfrwt beam="1">  1        2 0.28581115E+00 0.20495340E+04</pdfrwt>
<pdfrwt beam="2">  1       -2 0.86964978E-01 0.20495340E+04</pdfrwt>
<totfact> 0.84805761E+00</totfact>
</mgrwt>
</event>
<event>
 6    1  0.1817112E-005  0.2009062E+04  0.7818608E-02  0.8602396E-01
         -1   -1    0    0    0  501 -0.00000000000E+00  0.00000000000E+00  0.18687612396E+04  0.18687612396E+04  0.00000000000E+00 0.  1.
          1   -1    0    0  501    0  0.00000000000E+00 -0.00000000000E+00 -0.53997385486E+03  0.53997385486E+03  0.00000000000E+00 0. -1.
         23    2    1    2    0    0  0.49495453924E+03  0.83797712183E+03  0.37734986122E+03  0.10476990869E+04  0.89971142030E+02 0.  0.
         13    1    3    3    0    0  0.50677195990E+02  0.12028460535E+03  0.24322199685E+02  0.13277098280E+03  0.00000000000E+00 0. -1.
        -13    1    3    3    0    0  0.44427734325E+03  0.71769251648E+03  0.35302766154E+03  0.91492810414E+03  0.00000000000E+00 0.  1.
         22    1    1    2    0    0 -0.49495453924E+03 -0.83797712183E+03  0.95143752352E+03  0.13610360075E+04  0.00000000000E+00 0.  1.
<mgrwt>
<rscale>  0 0.20090617E+04</rscale>
<asrwt>0</asrwt>
<pdfrwt beam="1">  1        1 0.83072902E-01 0.20090617E+04</pdfrwt>
<pdfrwt beam="2">  1       -1 0.28750173E+00 0.20090617E+04</pdfrwt>
<totfact> 0.14692726E+00</totfact>
</mgrwt>
</event>
<event>
 6    1  0.1817112E-005  0.9151765E+03  0.7818608E-02  0.9406806E-01
         -2   -1    0    0    0  501 -0.00000000000E+00  0.00000000000E+00  0.22448327735E+03  0.22448327735E+03  0.00000000000E+00 0.  1.
          2   -1    0    0  501    0  0.00000000000E+00 -0.00000000000E+00 -0.93275111523E+03  0.93275111523E+03  0.00000000000E+00 0. -1.
         23    2    1    2    0    0 -0.24716234375E+03  0.28625787456E+03 -0.41585465553E+02  0.39075009367E+03  0.89013986801E+02 0.  0.
         13    1    3    3    0    0 -0.14422761434E+03  0.12153614103E+03  0.12799958775E+02  0.18904094070E+03  0.00000000000E+00 0.  1.
        -13    1    3    3    0    0 -0.10293472940E+03  0.16472173352E+03 -0.54385424329E+02  0.20170915297E+03  0.00000000000E+00 0. -1.
         22    1    1    2    0    0  0.24716234375E+03 -0.28625787456E+03 -0.66668237232E+03  0.76648429891E+03  0.00000000000E+00 0. -1.
<mgrwt>
<rscale>  0 0.91517655E+03</rscale>
<asrwt>0</asrwt>
<pdfrwt beam="1">  1        2 0.14350017E+00 0.91517655E+03</pdfrwt>
<pdfrwt beam="2">  1       -2 0.34535889E-01 0.91517655E+03</pdfrwt>
<totfact> 0.21926707E+02</totfact>
</mgrwt>
</event>
<event>
 6    1  0.1817112E-005  0.2715066E+04  0.7818608E-02  0.8330133E-01
          2   -1    0    0  501    0  0.00000000000E+00  0.00000000000E+00  0.10212959444E+04  0.10212959444E+04  0.00000000000E+00 0. -1.
         -2   -1    0    0    0  501 -0.00000000000E+00 -0.00000000000E+00 -0.18044682642E+04  0.18044682642E+04  0.00000000000E+00 0.  1.
         23    2    1    2    0    0  0.68089876520E+03  0.10343151087E+04 -0.96715552981E+03  0.15738533915E+04  0.90519646855E+02 0.  0.
         13    1    3    3    0    0  0.25398370701E+03  0.46362429906E+03 -0.42855893385E+03  0.68052771721E+03  0.00000000000E+00 0. -1.
        -13    1    3    3    0    0  0.42691505819E+03  0.57069080963E+03 -0.53859659596E+03  0.89332567426E+03  0.00000000000E+00 0.  1.
         22    1    1    2    0    0 -0.68089876520E+03 -0.10343151087E+04  0.18398320996E+03  0.12519108171E+04  0.00000000000E+00 0.  1.
<mgrwt>
<rscale>  0 0.27150662E+04</rscale>
<asrwt>0</asrwt>
<pdfrwt beam="1">  1        2 0.15712245E+00 0.27150662E+04</pdfrwt>
<pdfrwt beam="2">  1       -2 0.27761050E+00 0.27150662E+04</pdfrwt>
<totfact> 0.93142621E-01</totfact>
</mgrwt>
</event>
<event>
 6    1  0.1817112E-005  0.2438828E+04  0.7818608E-02  0.8425108E-01
          2   -1    0    0  501    0  0.00000000000E+00  0.00000000000E+00  0.17922534702E+04  0.17922534702E+04  0.00000000000E+00 0. -1.
         -2   -1    0    0    0  501 -0.00000000000E+00 -0.00000000000E+00 -0.82966544283E+03  0.82966544283E+03  0.00000000000E+00 0.  1.
         23    2    1    2    0    0  0.13262309142E+03 -0.68121175494E+03 -0.59371982191E+03  0.91788474049E+03  0.91492242570E+02 0.  0.
         11    1    3    3    0    0  0.97429311151E+02 -0.27368638812E+03 -0.26289950516E+03  0.39180717136E+03  0.00000000000E+00 0.  1.
        -11    1    3    3    0    0  0.35193780272E+02 -0.40752536682E+03 -0.33082031676E+03  0.52607756914E+03  0.00000000000E+00 0. -1.
         22    1    1    2    0    0 -0.13262309142E+03  0.68121175494E+03  0.15563078492E+04  0.17040341725E+04  0.00000000000E+00 0. -1.
<mgrwt>
<rscale>  0 0.24388282E+04</rscale>
<asrwt>0</asrwt>
<pdfrwt beam="1">  1        2 0.27573130E+00 0.24388282E+04</pdfrwt>
<pdfrwt beam="2">  1       -2 0.12764084E+00 0.24388282E+04</pdfrwt>
<totfact> 0.35538017E+00</totfact>
</mgrwt>
</event>
<event>
 6    1  0.1817112E-005  0.2502676E+04  0.7818608E-02  0.8402033E-01
          2   -1    0    0  501    0  0.00000000000E+00  0.00000000000E+00  0.47898880918E+03  0.47898880918E+03  0.00000000000E+00 0.  1.
         -2   -1    0    0    0  501 -0.00000000000E+00 -0.00000000000E+00 -0.32690676297E+04  0.32690676297E+04  0.00000000000E+00 0. -1.
         23    2    1    2    0    0  0.63028205565E+02 -0.12477232191E+04 -0.13659863764E+04  0.18536369828E+04  0.96257453795E+02 0.  0.
         13    1    3    3    0    0  0.15431111965E+02 -0.78477377294E+03 -0.79797247398E+03  0.11193158907E+04  0.00000000000E+00 0. -1.
        -13    1    3    3    0    0  0.47597093600E+02 -0.46294944614E+03 -0.56801390241E+03  0.73432109212E+03  0.00000000000E+00 0.  1.
         22    1    1    2    0    0 -0.63028205565E+02  0.12477232191E+04 -0.14240924441E+04  0.18944194561E+04  0.00000000000E+00 0.  1.
<mgrwt>
<rscale>  0 0.25026760E+04</rscale>
<asrwt>0</asrwt>
<pdfrwt beam="1">  1        2 0.73690589E-01 0.25026760E+04</pdfrwt>
<pdfrwt beam="2">  1       -2 0.50293346E+00 0.25026760E+04</pdfrwt>
<totfact> 0.90909848E-02</totfact>
</mgrwt>
</event>
<event>
 6    1  0.1817112E-005  0.2894826E+04  0.7818608E-02  0.8274418E-01
          2   -1    0    0  501    0  0.00000000000E+00  0.00000000000E+00  0.22104210302E+04  0.22104210302E+04  0.00000000000E+00 0. -1.
         -2   -1    0    0    0  501 -0.00000000000E+00 -0.00000000000E+00 -0.94778534133E+03  0.94778534133E+03  0.00000000000E+00 0.  1.
         23    2    1    2    0    0  0.39039887936E+03  0.13049977388E+04  0.10233128169E+03  0.13688666328E+04  0.88846968813E+02 0.  0.
         13    1    3    3    0    0  0.91847547708E+02  0.33396115946E+03  0.64160895995E+02  0.35225367084E+03  0.00000000000E+00 0. -1.
        -13    1    3    3    0    0  0.29855133165E+03  0.97103657935E+03  0.38170385690E+02  0.10166129620E+04  0.00000000000E+00 0.  1.
         22    1    1    2    0    0 -0.39039887936E+03 -0.13049977388E+04  0.11603044072E+04  0.17893397388E+04  0.00000000000E+00 0. -1.
<mgrwt>
<rscale>  0 0.28948262E+04</rscale>
<asrwt>0</asrwt>
<pdfrwt beam="1">  1        2 0.34006477E+00 0.28948262E+04</pdfrwt>
<pdfrwt beam="2">  1       -2 0.14581313E+00 0.28948262E+04</pdfrwt>
<totfact> 0.14202697E+00</totfact>
</mgrwt>
</event>
<event>
 6    1  0.1817112E-005  0.3804859E+04  0.7818608E-02  0.8045113E-01
         -2   -1    0    0    0  501 -0.00000000000E+00  0.00000000000E+00  0.16706848597E+04  0.16706848597E+04  0.00000000000E+00 0.  1.
          2   -1    0    0  501    0  0.00000000000E+00 -0.00000000000E+00 -0.21663198666E+04  0.21663198666E+04  0.00000000000E+00 0. -1.
         23    2    1    2    0    0  0.34992238379E+03 -0.16730496843E+04  0.59355444060E+03  0.18102154987E+04  0.55066840407E+02 0.  0.
         13    1    3    3    0    0  0.82559141763E+02 -0.51020648433E+03  0.16991280366E+03  0.54405609030E+03  0.00000000000E+00 0. -1.
        -13    1    3    3    0    0  0.26736324203E+03 -0.11628432000E+04  0.42364163693E+03  0.12661594084E+04  0.00000000000E+00 0.  1.
         22    1    1    2    0    0 -0.34992238379E+03  0.16730496843E+04 -0.10891894475E+04  0.20267892277E+04  0.00000000000E+00 0.  1.
<mgrwt>
<rscale>  0 0.38048589E+04</rscale>
<asrwt>0</asrwt>
<pdfrwt beam="1">  1        2 0.33327998E+00 0.38048589E+04</pdfrwt>
<pdfrwt beam="2">  1       -2 0.25702844E+00 0.38048589E+04</pdfrwt>
<totfact> 0.25154791E-01</totfact>
</mgrwt>
</event>
<event>
 6    1  0.1817112E-005  0.2469688E+04  0.7818608E-02  0.8413864E-01
         -2   -1    0    0    0  501 -0.00000000000E+00  0.00000000000E+00  0.25675157983E+04  0.25675157983E+04  0.00000000000E+00 0.  1.
          2   -1    0    0  501    0  0.00000000000E+00 -0.00000000000E+00 -0.59389710544E+03  0.59389710544E+03  0.00000000000E+00 0. -1.
         23    2    1    2    0    0 -0.53322590638E+03 -0.48962305093E+03  0.22660263616E+04  0.23806678467E+04  0.92969486506E+02 0.  0.
         11    1    3    3    0    0 -0.41750658962E+03 -0.34437546072E+03  0.15892933405E+04  0.16789161779E+04  0.00000000000E+00 0.  1.
        -11    1    3    3    0    0 -0.11571931676E+03 -0.14524759021E+03  0.67673302116E+03  0.70175166880E+03  0.00000000000E+00 0. -1.
         22    1    1    2    0    0  0.53322590638E+03  0.48962305093E+03 -0.29240766882E+03  0.78074505699E+03  0.00000000000E+00 0. -1.
<mgrwt>
<rscale>  0 0.24696884E+04</rscale>
<asrwt>0</asrwt>
<pdfrwt beam="1">  1        2 0.91368787E-01 0.24696884E+04</pdfrwt>
<pdfrwt beam="2">  1       -2 0.39500242E+00 0.24696884E+04</pdfrwt>
<totfact> 0.35943061E-01</totfact>
</mgrwt>
</event>
<event>
 6    1  0.1817112E-005  0.4057923E+04  0.7818608E-02  0.7992962E-01
         -2   -1    0    0    0  501 -0.00000000000E+00  0.00000000000E+00  0.11440886990E+04  0.11440886990E+04  0.00000000000E+00 0.  1.
          2   -1    0    0  501    0  0.00000000000E+00 -0.00000000000E+00 -0.35982222386E+04  0.35982222386E+04  0.00000000000E+00 0. -1.
         23    2    1    2    0    0 -0.15309267710E+03 -0.17889067575E+04 -0.23295975900E+04  0.29425515210E+04  0.89217530358E+02 0.  0.
         11    1    3    3    0    0 -0.14326808768E+03 -0.14683282846E+04 -0.18642062540E+04  0.23773469780E+04  0.00000000000E+00 0.  1.
        -11    1    3    3    0    0 -0.98245894187E+01 -0.32057847295E+03 -0.46539133595E+03  0.56520454303E+03  0.00000000000E+00 0. -1.
         22    1    1    2    0    0  0.15309267710E+03  0.17889067575E+04 -0.12453594967E+03  0.17997594166E+04  0.00000000000E+00 0.  1.
<mgrwt>
<rscale>  0 0.40579233E+04</rscale>
<asrwt>0</asrwt>
<pdfrwt beam="1">  1        2 0.55357264E+00 0.40579233E+04</pdfrwt>
<pdfrwt beam="2">  1       -2 0.17601365E+00 0.40579233E+04</pdfrwt>
<totfact> 0.10486557E-01</totfact>
</mgrwt>
</event>
<event>
 6    1  0.1817112E-005  0.1642330E+04  0.7818608E-02  0.8794957E-01
          2   -1    0    0  501    0  0.00000000000E+00  0.00000000000E+00  0.14841371142E+04  0.14841371142E+04  0.00000000000E+00 0. -1.
         -2   -1    0    0    0  501 -0.00000000000E+00 -0.00000000000E+00 -0.45434640068E+03  0.45434640068E+03  0.00000000000E+00 0.  1.
         23    2    1    2    0    0 -0.12674650332E+03  0.79686628679E+03  0.35224958364E+03  0.88485998734E+03  0.88526114274E+02 0.  0.
         11    1    3    3    0    0 -0.12360821990E+03  0.54658210945E+03  0.22266349345E+03  0.60300085050E+03  0.00000000000E+00 0. -1.
        -11    1    3    3    0    0 -0.31382834198E+01  0.25028417734E+03  0.12958609019E+03  0.28185913684E+03  0.00000000000E+00 0.  1.
         22    1    1    2    0    0  0.12674650332E+03 -0.79686628679E+03  0.67754112992E+03  0.10536235276E+04  0.00000000000E+00 0. -1.
<mgrwt>
<rscale>  0 0.16423305E+04</rscale>
<asrwt>0</asrwt>
<pdfrwt beam="1">  1        2 0.22832878E+00 0.16423305E+04</pdfrwt>
<pdfrwt beam="2">  1       -2 0.69899447E-01 0.16423305E+04</pdfrwt>
<totfact> 0.23096320E+01</totfact>
</mgrwt>
</event>
<event>
 6    1  0.1817112E-005  0.2671960E+04  0.7818608E-02  0.8344161E-01
         -2   -1    0    0    0  501 -0.00000000000E+00  0.00000000000E+00  0.82808816021E+03  0.82808816021E+03  0.00000000000E+00 0. -1.
          2   -1    0    0  501    0  0.00000000000E+00 -0.00000000000E+00 -0.21553775687E+04  0.21553775687E+04  0.00000000000E+00 0.  1.
         23    2    1    2    0    0 -0.70472416860E+03  0.10293122090E+04 -0.11935299717E+04  0.17288696328E+04  0.91414641462E+02 0.  0.
         11    1    3    3    0    0 -0.56201736543E+02  0.93758275619E+02 -0.14175257375E+03  0.17900570271E+03  0.00000000000E+00 0. -1.
        -11    1    3    3    0    0 -0.64852243205E+03  0.93555393336E+03 -0.10517773979E+04  0.15498639301E+04  0.00000000000E+00 0.  1.
         22    1    1    2    0    0  0.70472416860E+03 -0.10293122090E+04 -0.13375943679E+03  0.12545960961E+04  0.00000000000E+00 0. -1.
<mgrwt>
<rscale>  0 0.26719601E+04</rscale>
<asrwt>0</asrwt>
<pdfrwt beam="1">  1        2 0.33159655E+00 0.26719601E+04</pdfrwt>
<pdfrwt beam="2">  1       -2 0.12739818E+00 0.26719601E+04</pdfrwt>
<totfact> 0.21987106E+00</totfact>
</mgrwt>
</event>
<event>
 6    1  0.1817112E-005  0.3036855E+04  0.7818608E-02  0.8233284E-01
         -2   -1    0    0    0  501 -0.00000000000E+00  0.00000000000E+00  0.17150617835E+04  0.17150617835E+04  0.00000000000E+00 0.  1.
          2   -1    0    0  501    0  0.00000000000E+00 -0.00000000000E+00 -0.13443378041E+04  0.13443378041E+04  0.00000000000E+00 0. -1.
         23    2    1    2    0    0 -0.11853135331E+04 -0.94682707834E+03  0.18460385942E+03  0.15309721646E+04  0.91364631862E+02 0.  0.
         11    1    3    3    0    0 -0.49345212758E+03 -0.41131939269E+03  0.12163190228E+03  0.65381416677E+03  0.00000000000E+00 0. -1.
        -11    1    3    3    0    0 -0.69186140553E+03 -0.53550768565E+03  0.62971957137E+02  0.87715799787E+03  0.00000000000E+00 0.  1.
         22    1    1    2    0    0  0.11853135331E+04  0.94682707834E+03  0.18612011996E+03  0.15284274229E+04  0.00000000000E+00 0. -1.
<mgrwt>
<rscale>  0 0.30368552E+04</rscale>
<asrwt>0</asrwt>
<pdfrwt beam="1">  1        2 0.20682120E+00 0.30368552E+04</pdfrwt>
<pdfrwt beam="2">  1       -2 0.26385566E+00 0.30368552E+04</pdfrwt>
<totfact> 0.70258780E-01</totfact>
</mgrwt>
</event>
<event>
 6    1  0.1817112E-005  0.1885324E+04  0.7818608E-02  0.8662196E-01
         -2   -1    0    0    0  501 -0.00000000000E+00  0.00000000000E+00  0.98837673121E+03  0.98837673121E+03  0.00000000000E+00 0.  1.
          2   -1    0    0  501    0  0.00000000000E+00 -0.00000000000E+00 -0.89906213711E+03  0.89906213711E+03  0.00000000000E+00 0. -1.
         23    2    1    2    0    0 -0.46336228901E+03  0.66886018331E+03  0.51679737389E+03  0.96829792009E+03  0.91884605289E+02 0.  0.
         11    1    3    3    0    0 -0.36890813035E+03  0.48588155926E+03  0.42072811876E+03  0.74107101427E+03  0.00000000000E+00 0. -1.
        -11    1    3    3    0    0 -0.94454158658E+02  0.18297862405E+03  0.96069255123E+02  0.22722690582E+03  0.00000000000E+00 0.  1.
         22    1    1    2    0    0  0.46336228901E+03 -0.66886018331E+03 -0.42748277979E+03  0.91914094823E+03  0.00000000000E+00 0. -1.
<mgrwt>
<rscale>  0 0.18853245E+04</rscale>
<asrwt>0</asrwt>
<pdfrwt beam="1">  1        2 0.13831725E+00 0.18853245E+04</pdfrwt>
<pdfrwt beam="2">  1       -2 0.15205796E+00 0.18853245E+04</pdfrwt>
<totfact> 0.79541025E+00</totfact>
</mgrwt>
</event>
<event>
 6    1  0.1817112E-005  0.1672534E+04  0.7818608E-02  0.8777186E-01
         -4   -1    0    0    0  501 -0.00000000000E+00  0.00000000000E+00  0.14301517818E+04  0.14301517818E+04  0.00000000000E+00 0.  1.
          4   -1    0    0  501    0  0.00000000000E+00 -0.00000000000E+00 -0.48899898841E+03  0.48899898841E+03  0.00000000000E+00 0. -1.
         23    2    1    2    0    0  0.32169446320E+03 -0.27557214178E+02  0.13542254290E+04  0.13948648462E+04  0.86456341032E+02 0.  0.
         11    1    3    3    0    0  0.12958289818E+03 -0.53565315214E+02  0.54680378420E+03  0.56449565890E+03  0.00000000000E+00 0. -1.
        -11    1    3    3    0    0  0.19211156502E+03  0.26008101036E+02  0.80742164483E+03  0.83036918734E+03  0.00000000000E+00 0.  1.
         22    1    1    2    0    0 -0.32169446320E+03  0.27557214178E+02 -0.41307263567E+03  0.52428592395E+03  0.00000000000E+00 0. -1.
<mgrwt>
<rscale>  0 0.16725343E+04</rscale>
<asrwt>0</asrwt>
<pdfrwt beam="1">  1        4 0.75230614E-01 0.16725343E+04</pdfrwt>
<pdfrwt beam="2">  1       -4 0.22002335E+00 0.16725343E+04</pdfrwt>
<totfact> 0.29673111E-01</totfact>
</mgrwt>
</event>
<event>
 6    1  0.1817112E-005  0.2134633E+04  0.7818608E-02  0.8546139E-01
          2   -1    0    0  501    0  0.00000000000E+00  0.00000000000E+00  0.17567000629E+04  0.17567000629E+04  0.00000000000E+00 0. -1.
         -2   -1    0    0    0  501 -0.00000000000E+00 -0.00000000000E+00 -0.64846851843E+03  0.64846851843E+03  0.00000000000E+00 0.  1.
         23    2    1    2    0    0 -0.77176309167E+03  0.62771122513E+03  0.98530450076E+03  0.14027960408E+04  0.85861057224E+02 0.  0.
         11    1    3    3    0    0 -0.15004146731E+03  0.15107493172E+03  0.17378572967E+03  0.27484096627E+03  0.00000000000E+00 0. -1.
        -11    1    3    3    0    0 -0.62172162437E+03  0.47663629341E+03  0.81151877109E+03  0.11279550746E+04  0.00000000000E+00 0.  1.
         22    1    1    2    0    0  0.77176309167E+03 -0.62771122513E+03  0.12292704368E+03  0.10023725405E+04  0.00000000000E+00 0.  1.
<mgrwt>
<rscale>  0 0.21346332E+04</rscale>
<asrwt>0</asrwt>
<pdfrwt beam="1">  1        2 0.27026155E+00 0.21346332E+04</pdfrwt>
<pdfrwt beam="2">  1       -2 0.99764388E-01 0.21346332E+04</pdfrwt>
<totfact> 0.69616972E+00</totfact>
</mgrwt>
</event>
<event>
 6    1  0.1817112E-005  0.2757892E+04  0.7818608E-02  0.8316462E-01
         -2   -1    0    0    0  501 -0.00000000000E+00  0.00000000000E+00  0.55433113333E+03  0.55433113333E+03  0.00000000000E+00 0.  1.
          2   -1    0    0  501    0  0.00000000000E+00 -0.00000000000E+00 -0.34302464065E+04  0.34302464065E+04  0.00000000000E+00 0. -1.
         23    2    1    2    0    0  0.10344806589E+03  0.13510739281E+04 -0.17986691370E+04  0.22535196265E+04  0.83891484533E+02 0.  0.
         13    1    3    3    0    0  0.53116802122E+02  0.62267472709E+03 -0.89860759656E+03  0.10945505119E+04  0.00000000000E+00 0. -1.
        -13    1    3    3    0    0  0.50331263773E+02  0.72839920098E+03 -0.90006154040E+03  0.11589691146E+04  0.00000000000E+00 0.  1.
         22    1    1    2    0    0 -0.10344806589E+03 -0.13510739281E+04 -0.10772461363E+04  0.17310579134E+04  0.00000000000E+00 0. -1.
<mgrwt>
<rscale>  0 0.27578922E+04</rscale>
<asrwt>0</asrwt>
<pdfrwt beam="1">  1        2 0.52773020E+00 0.27578922E+04</pdfrwt>
<pdfrwt beam="2">  1       -2 0.85281715E-01 0.27578922E+04</pdfrwt>
<totfact> 0.94897112E-01</totfact>
</mgrwt>
</event>
<event>
 6    1  0.1817112E-005  0.2647306E+04  0.7818608E-02  0.8352308E-01
          2   -1    0    0  501    0  0.00000000000E+00  0.00000000000E+00  0.21820643491E+04  0.21820643491E+04  0.00000000000E+00 0. -1.
         -2   -1    0    0    0  501 -0.00000000000E+00 -0.00000000000E+00 -0.80293561203E+03  0.80293561203E+03  0.00000000000E+00 0.  1.
         23    2    1    2    0    0 -0.51272463012E+03 -0.83241896024E+03  0.16938977068E+04  0.19579228579E+04  0.91458212288E+02 0.  0.
         11    1    3    3    0    0 -0.36900553308E+03 -0.56094886009E+03  0.10854060067E+04  0.12762973425E+04  0.00000000000E+00 0.  1.
        -11    1    3    3    0    0 -0.14371909704E+03 -0.27147010015E+03  0.60849170008E+03  0.68162551537E+03  0.00000000000E+00 0. -1.
         22    1    1    2    0    0  0.51272463012E+03  0.83241896024E+03 -0.31476896974E+03  0.10270771032E+04  0.00000000000E+00 0. -1.
<mgrwt>
<rscale>  0 0.26473059E+04</rscale>
<asrwt>0</asrwt>
<pdfrwt beam="1">  1        2 0.33570221E+00 0.26473059E+04</pdfrwt>
<pdfrwt beam="2">  1       -2 0.12352856E+00 0.26473059E+04</pdfrwt>
<totfact> 0.23000250E+00</totfact>
</mgrwt>
</event>
<event>
 6    1  0.1817112E-005  0.4026187E+04  0.7818608E-02  0.7999285E-01
          2   -1    0    0  501    0  0.00000000000E+00  0.00000000000E+00  0.33240601051E+04  0.33240601051E+04  0.00000000000E+00 0. -1.
         -2   -1    0    0    0  501 -0.00000000000E+00 -0.00000000000E+00 -0.12191554245E+04  0.12191554245E+04  0.00000000000E+00 0.  1.
         23    2    1    2    0    0 -0.70867107988E+03  0.18675272535E+04  0.77984121114E+03  0.21462036523E+04  0.90360723627E+02 0.  0.
         11    1    3    3    0    0 -0.90895272251E+02  0.32321316489E+03  0.11383746292E+03  0.35452456677E+03  0.00000000000E+00 0.  1.
        -11    1    3    3    0    0 -0.61777580763E+03  0.15443140886E+04  0.66600374822E+03  0.17916790855E+04  0.00000000000E+00 0. -1.
         22    1    1    2    0    0  0.70867107988E+03 -0.18675272535E+04  0.13250634695E+04  0.23970118773E+04  0.00000000000E+00 0. -1.
<mgrwt>
<rscale>  0 0.40261872E+04</rscale>
<asrwt>0</asrwt>
<pdfrwt beam="1">  1        2 0.51139386E+00 0.40261872E+04</pdfrwt>
<pdfrwt beam="2">  1       -2 0.18756237E+00 0.40261872E+04</pdfrwt>
<totfact> 0.13583159E-01</totfact>
</mgrwt>
</event>
<event>
 6    1  0.1817112E-005  0.7016475E+03  0.7818608E-02  0.9714419E-01
          4   -1    0    0  501    0  0.00000000000E+00  0.00000000000E+00  0.26408814071E+04  0.26408814071E+04  0.00000000000E+00 0. -1.
         -4   -1    0    0    0  501 -0.00000000000E+00 -0.00000000000E+00 -0.46604627646E+02  0.46604627646E+02  0.00000000000E+00 0.  1.
         23    2    1    2    0    0 -0.31355016696E+03 -0.85840970426E+02  0.17564366386E+04  0.17887878201E+04  0.94920074105E+02 0.  0.
         13    1    3    3    0    0 -0.25851933022E+02  0.13694540372E+01  0.33013776051E+03  0.33115123246E+03  0.00000000000E+00 0. -1.
        -13    1    3    3    0    0 -0.28769823394E+03 -0.87210424463E+02  0.14262988781E+04  0.14576365877E+04  0.00000000000E+00 0.  1.
         22    1    1    2    0    0  0.31355016696E+03  0.85840970426E+02  0.83784014082E+03  0.89869821463E+03  0.00000000000E+00 0.  1.
<mgrwt>
<rscale>  0 0.70164747E+03</rscale>
<asrwt>0</asrwt>
<pdfrwt beam="1">  1        4 0.40628933E+00 0.70164747E+03</pdfrwt>
<pdfrwt beam="2">  1       -4 0.71699448E-02 0.70164747E+03</pdfrwt>
<totfact> 0.18359802E+00</totfact>
</mgrwt>
</event>
<event>
 6    1  0.1817112E-005  0.1377412E+04  0.7818608E-02  0.8970333E-01
          2   -1    0    0  501    0  0.00000000000E+00  0.00000000000E+00  0.16640614091E+04  0.16640614091E+04  0.00000000000E+00 0. -1.
         -2   -1    0    0    0  501 -0.00000000000E+00 -0.00000000000E+00 -0.28503494824E+03  0.28503494824E+03  0.00000000000E+00 0.  1.
         23    2    1    2    0    0 -0.65903482946E+03 -0.18698369358E+03  0.73473515038E+03  0.10086703364E+04  0.91051074784E+02 0.  0.
         11    1    3    3    0    0 -0.45472149466E+03 -0.10991744402E+03  0.44318834390E+03  0.64441398990E+03  0.00000000000E+00 0.  1.
        -11    1    3    3    0    0 -0.20431333480E+03 -0.77066249557E+02  0.29154680647E+03  0.36425634650E+03  0.00000000000E+00 0. -1.
         22    1    1    2    0    0  0.65903482946E+03  0.18698369358E+03  0.64429131050E+03  0.94042602095E+03  0.00000000000E+00 0. -1.
<mgrwt>
<rscale>  0 0.13774116E+04</rscale>
<asrwt>0</asrwt>
<pdfrwt beam="1">  1        2 0.25600944E+00 0.13774116E+04</pdfrwt>
<pdfrwt beam="2">  1       -2 0.43851532E-01 0.13774116E+04</pdfrwt>
<totfact> 0.49363707E+01</totfact>
</mgrwt>
</event>
<event>
 6    1  0.1817112E-005  0.1450445E+04  0.7818608E-02  0.8918092E-01
         -2   -1    0    0    0  501 -0.00000000000E+00  0.00000000000E+00  0.30331652881E+03  0.30331652881E+03  0.00000000000E+00 0.  1.
          2   -1    0    0  501    0  0.00000000000E+00 -0.00000000000E+00 -0.17339885312E+04  0.17339885312E+04  0.00000000000E+00 0. -1.
         23    2    1    2    0    0  0.41585954760E+03 -0.56079138399E+03 -0.45447842190E+03  0.83714671784E+03  0.82691302633E+02 0.  0.
         13    1    3    3    0    0  0.10175242309E+03 -0.86587567921E+02 -0.72760861464E+02  0.15213515532E+03  0.00000000000E+00 0.  1.
        -13    1    3    3    0    0  0.31410712451E+03 -0.47420381607E+03 -0.38171756044E+03  0.68501156252E+03  0.00000000000E+00 0. -1.
         22    1    1    2    0    0 -0.41585954760E+03  0.56079138399E+03 -0.97619358047E+03  0.12001583422E+04  0.00000000000E+00 0. -1.
<mgrwt>
<rscale>  0 0.14504446E+04</rscale>
<asrwt>0</asrwt>
<pdfrwt beam="1">  1        2 0.26676747E+00 0.14504446E+04</pdfrwt>
<pdfrwt beam="2">  1       -2 0.46664080E-01 0.14504446E+04</pdfrwt>
<totfact> 0.39636046E+01</totfact>
</mgrwt>
</event>
<event>
 6    1  0.1817112E-005  0.5228393E+04  0.7818608E-02  0.7794210E-01
         -2   -1    0    0    0  501 -0.00000000000E+00  0.00000000000E+00  0.23978084628E+04  0.23978084628E+04  0.00000000000E+00 0.  1.
          2   -1    0    0  501    0  0.00000000000E+00 -0.00000000000E+00 -0.28501120170E+04  0.28501120170E+04  0.00000000000E+00 0. -1.
         23    2    1    2    0    0 -0.16204648395E+04 -0.67916703541E+03 -0.21680332648E+04  0.27921308719E+04  0.91936991059E+02 0.  0.
         13    1    3    3    0    0 -0.56376898427E+03 -0.19347989204E+03 -0.76384009398E+03  0.96887647583E+03  0.00000000000E+00 0.  1.
        -13    1    3    3    0    0 -0.10566958553E+04 -0.48568714337E+03 -0.14041931709E+04  0.18232543961E+04  0.00000000000E+00 0. -1.
         22    1    1    2    0    0  0.16204648395E+04  0.67916703541E+03  0.17157297107E+04  0.24557896079E+04  0.00000000000E+00 0.  1.
<mgrwt>
<rscale>  0 0.52283928E+04</rscale>
<asrwt>0</asrwt>
<pdfrwt beam="1">  1        2 0.43847877E+00 0.52283928E+04</pdfrwt>
<pdfrwt beam="2">  1       -2 0.36889361E+00 0.52283928E+04</pdfrwt>
<totfact> 0.18189347E-02</totfact>
</mgrwt>
</event>
<event>
 6    1  0.1817112E-005  0.2248392E+04  0.7818608E-02  0.8498552E-01
         -2   -1    0    0    0  501 -0.00000000000E+00  0.00000000000E+00  0.95442120295E+03  0.95442120295E+03  0.00000000000E+00 0.  1.
          2   -1    0    0  501    0  0.00000000000E+00 -0.00000000000E+00 -0.13241704082E+04  0.13241704082E+04  0.00000000000E+00 0. -1.
         23    2    1    2    0    0  0.10233996311E+04 -0.10202743109E+03 -0.64044511960E+03  0.12150914091E+04  0.92308069626E+02 0.  0.
         11    1    3    3    0    0  0.89158247505E+03 -0.11889953678E+03 -0.54913975370E+03  0.10538552456E+04  0.00000000000E+00 0. -1.
        -11    1    3    3    0    0  0.13181715604E+03  0.16872105687E+02 -0.91305365894E+02  0.16123616349E+03  0.00000000000E+00 0.  1.
         22    1    1    2    0    0 -0.10233996311E+04  0.10202743109E+03  0.27069591437E+03  0.10635002020E+04  0.00000000000E+00 0.  1.
<mgrwt>
<rscale>  0 0.22483917E+04</rscale>
<asrwt>0</asrwt>
<pdfrwt beam="1">  1        2 0.20371852E+00 0.22483917E+04</pdfrwt>
<pdfrwt beam="2">  1       -2 0.14683403E+00 0.22483917E+04</pdfrwt>
<totfact> 0.46197910E+00</totfact>
</mgrwt>
</event>
<event>
 6    1  0.1817112E-005  0.3626104E+04  0.7818608E-02  0.8084538E-01
         -1   -1    0    0    0  501 -0.00000000000E+00  0.00000000000E+00  0.12063978154E+04  0.12063978154E+04  0.00000000000E+00 0.  1.
          1   -1    0    0  501    0  0.00000000000E+00 -0.00000000000E+00 -0.27247712419E+04  0.27247712419E+04  0.00000000000E+00 0. -1.
         23    2    1    2    0    0 -0.31597914693E+03 -0.16118164263E+04 -0.15890323024E+04  0.22871533366E+04  0.90838942806E+02 0.  0.
         11    1    3    3    0    0 -0.14118350686E+03 -0.94582232902E+03 -0.90835273818E+03  0.13189455476E+04  0.00000000000E+00 0.  1.
        -11    1    3    3    0    0 -0.17479564007E+03 -0.66599409732E+03 -0.68067956419E+03  0.96820778893E+03  0.00000000000E+00 0. -1.
         22    1    1    2    0    0  0.31597914693E+03  0.16118164263E+04  0.70658875873E+02  0.16440157208E+04  0.00000000000E+00 0.  1.
<mgrwt>
<rscale>  0 0.36261043E+04</rscale>
<asrwt>0</asrwt>
<pdfrwt beam="1">  1        1 0.41919557E+00 0.36261043E+04</pdfrwt>
<pdfrwt beam="2">  1       -1 0.18559967E+00 0.36261043E+04</pdfrwt>
<totfact> 0.14437974E-01</totfact>
</mgrwt>
</event>
<event>
 6    1  0.1817112E-005  0.1268905E+04  0.7818608E-02  0.9054594E-01
          2   -1    0    0  501    0  0.00000000000E+00  0.00000000000E+00  0.65459509834E+03  0.65459509834E+03  0.00000000000E+00 0.  1.
         -2   -1    0    0    0  501 -0.00000000000E+00 -0.00000000000E+00 -0.61492995956E+03  0.61492995956E+03  0.00000000000E+00 0. -1.
         23    2    1    2    0    0 -0.16591000878E+03 -0.56734791414E+03 -0.20106283833E+03  0.63127765630E+03  0.93141976013E+02 0.  0.
         13    1    3    3    0    0 -0.82829994290E+02 -0.21993118806E+03 -0.35928164340E+02  0.23774223106E+03  0.00000000000E+00 0. -1.
        -13    1    3    3    0    0 -0.83080014489E+02 -0.34741672607E+03 -0.16513467399E+03  0.39353542524E+03  0.00000000000E+00 0.  1.
         22    1    1    2    0    0  0.16591000878E+03  0.56734791414E+03  0.24072797711E+03  0.63824740160E+03  0.00000000000E+00 0.  1.
<mgrwt>
<rscale>  0 0.12689053E+04</rscale>
<asrwt>0</asrwt>
<pdfrwt beam="1">  1        2 0.10070694E+00 0.12689053E+04</pdfrwt>
<pdfrwt beam="2">  1       -2 0.94604609E-01 0.12689053E+04</pdfrwt>
<totfact> 0.41217253E+01</totfact>
</mgrwt>
</event>
<event>
 6    1  0.1817112E-005  0.2517260E+04  0.7818608E-02  0.8396862E-01
         -2   -1    0    0    0  501 -0.00000000000E+00  0.00000000000E+00  0.27604549147E+04  0.27604549147E+04  0.00000000000E+00 0.  1.
          2   -1    0    0  501    0  0.00000000000E+00 -0.00000000000E+00 -0.57387264449E+03  0.57387264449E+03  0.00000000000E+00 0. -1.
         23    2    1    2    0    0 -0.11139566899E+04  0.26265290199E+03  0.40641725698E+03  0.12179926310E+04  0.91896727180E+02 0.  0.
         13    1    3    3    0    0 -0.47802428894E+03  0.15619322112E+03  0.19609979181E+03  0.53977650142E+03  0.00000000000E+00 0.  1.
        -13    1    3    3    0    0 -0.63593240098E+03  0.10645968087E+03  0.21031746517E+03  0.67821612958E+03  0.00000000000E+00 0. -1.
         22    1    1    2    0    0  0.11139566899E+04 -0.26265290199E+03  0.17801650132E+04  0.21163349282E+04  0.00000000000E+00 0.  1.
<mgrwt>
<rscale>  0 0.25172601E+04</rscale>
<asrwt>0</asrwt>
<pdfrwt beam="1">  1        2 0.88288101E-01 0.25172601E+04</pdfrwt>
<pdfrwt beam="2">  1       -2 0.42468536E+00 0.25172601E+04</pdfrwt>
<totfact> 0.23792113E-01</totfact>
</mgrwt>
</event>
<event>
 6    1  0.1817112E-005  0.1897504E+04  0.7818608E-02  0.8656100E-01
          2   -1    0    0  501    0  0.00000000000E+00  0.00000000000E+00  0.14325723597E+04  0.14325723597E+04  0.00000000000E+00 0. -1.
         -2   -1    0    0    0  501 -0.00000000000E+00 -0.00000000000E+00 -0.62833157423E+03  0.62833157423E+03  0.00000000000E+00 0.  1.
         23    2    1    2    0    0  0.93256150512E+03  0.70078174747E+02  0.56471734666E+03  0.10955266040E+04  0.81798209004E+02 0.  0.
         13    1    3    3    0    0  0.42602790012E+03  0.72891551091E+02  0.26090858361E+03  0.50486259408E+03  0.00000000000E+00 0. -1.
        -13    1    3    3    0    0  0.50653360500E+03 -0.28133763443E+01  0.30380876305E+03  0.59066400990E+03  0.00000000000E+00 0.  1.
         22    1    1    2    0    0 -0.93256150512E+03 -0.70078174747E+02  0.23952343879E+03  0.96537732993E+03  0.00000000000E+00 0.  1.
<mgrwt>
<rscale>  0 0.18975041E+04</rscale>
<asrwt>0</asrwt>
<pdfrwt beam="1">  1        2 0.22039575E+00 0.18975041E+04</pdfrwt>
<pdfrwt beam="2">  1       -2 0.96666396E-01 0.18975041E+04</pdfrwt>
<totfact> 0.11621397E+01</totfact>
</mgrwt>
</event>
<event>
 6    1  0.1817112E-005  0.2017051E+04  0.7818608E-02  0.8598690E-01
         -2   -1    0    0    0  501 -0.00000000000E+00  0.00000000000E+00  0.29331740123E+03  0.29331740123E+03  0.00000000000E+00 0.  1.
          2   -1    0    0  501    0  0.00000000000E+00 -0.00000000000E+00 -0.34676549564E+04  0.34676549564E+04  0.00000000000E+00 0. -1.
         23    2    1    2    0    0 -0.71604594523E+03  0.67693597781E+03 -0.19727952100E+04  0.22070521148E+04  0.90520623336E+02 0.  0.
         13    1    3    3    0    0 -0.22743264823E+03  0.22723430856E+03 -0.73889719977E+03  0.80581022102E+03  0.00000000000E+00 0. -1.
        -13    1    3    3    0    0 -0.48861329699E+03  0.44970166925E+03 -0.12338980102E+04  0.14012418938E+04  0.00000000000E+00 0.  1.
         22    1    1    2    0    0  0.71604594523E+03 -0.67693597781E+03 -0.12015423452E+04  0.15539202428E+04  0.00000000000E+00 0.  1.
<mgrwt>
<rscale>  0 0.20170509E+04</rscale>
<asrwt>0</asrwt>
<pdfrwt beam="1">  1        2 0.53348534E+00 0.20170509E+04</pdfrwt>
<pdfrwt beam="2">  1       -2 0.45125757E-01 0.20170509E+04</pdfrwt>
<totfact> 0.37193254E+00</totfact>
</mgrwt>
</event>
<event>
 6    1  0.1817112E-005  0.2883161E+04  0.7818608E-02  0.8277905E-01
         -2   -1    0    0    0  501 -0.00000000000E+00  0.00000000000E+00  0.15404816449E+04  0.15404816449E+04  0.00000000000E+00 0.  1.
          2   -1    0    0  501    0  0.00000000000E+00 -0.00000000000E+00 -0.13490288263E+04  0.13490288263E+04  0.00000000000E+00 0. -1.
         23    2    1    2    0    0 -0.98557660166E+03 -0.96757920373E+03 -0.31311820066E+03  0.14190810554E+04  0.90428319689E+02 0.  0.
         11    1    3    3    0    0 -0.65795962108E+03 -0.58933594344E+03 -0.18347008148E+03  0.90215796178E+03  0.00000000000E+00 0. -1.
        -11    1    3    3    0    0 -0.32761698058E+03 -0.37824326030E+03 -0.12964811918E+03  0.51692309363E+03  0.00000000000E+00 0.  1.
         22    1    1    2    0    0  0.98557660166E+03  0.96757920373E+03  0.50457101924E+03  0.14704294158E+04  0.00000000000E+00 0.  1.
<mgrwt>
<rscale>  0 0.28831609E+04</rscale>
<asrwt>0</asrwt>
<pdfrwt beam="1">  1        2 0.20754290E+00 0.28831609E+04</pdfrwt>
<pdfrwt beam="2">  1       -2 0.23699718E+00 0.28831609E+04</pdfrwt>
<totfact> 0.10346263E+00</totfact>
</mgrwt>
</event>
<event>
 6    1  0.1817112E-005  0.1503619E+04  0.7818608E-02  0.8882050E-01
          2   -1    0    0  501    0  0.00000000000E+00  0.00000000000E+00  0.11771795016E+04  0.11771795016E+04  0.00000000000E+00 0. -1.
         -2   -1    0    0    0  501 -0.00000000000E+00 -0.00000000000E+00 -0.48014555574E+03  0.48014555574E+03  0.00000000000E+00 0.  1.
         23    2    1    2    0    0  0.33159845964E+03  0.34329586095E+03  0.98598747911E+03  0.10993790644E+04  0.93023823445E+02 0.  0.
         11    1    3    3    0    0  0.68890530086E+02  0.36446228667E+02  0.22015591296E+03  0.23354412587E+03  0.00000000000E+00 0.  1.
        -11    1    3    3    0    0  0.26270792955E+03  0.30684963228E+03  0.76583156615E+03  0.86583493854E+03  0.00000000000E+00 0. -1.
         22    1    1    2    0    0 -0.33159845964E+03 -0.34329586095E+03 -0.28895353329E+03  0.55794599289E+03  0.00000000000E+00 0.  1.
<mgrwt>
<rscale>  0 0.15036190E+04</rscale>
<asrwt>0</asrwt>
<pdfrwt beam="1">  1        2 0.18110454E+00 0.15036190E+04</pdfrwt>
<pdfrwt beam="2">  1       -2 0.73868547E-01 0.15036190E+04</pdfrwt>
<totfact> 0.31187754E+01</totfact>
</mgrwt>
</event>
<event>
 6    1  0.1817112E-005  0.1447923E+04  0.7818608E-02  0.8919842E-01
          2   -1    0    0  501    0  0.00000000000E+00  0.00000000000E+00  0.35698637585E+03  0.35698637585E+03  0.00000000000E+00 0. -1.
         -2   -1    0    0    0  501 -0.00000000000E+00 -0.00000000000E+00 -0.14681800406E+04  0.14681800406E+04  0.00000000000E+00 0.  1.
         23    2    1    2    0    0  0.60068527888E+03 -0.28663058645E+03 -0.20881082643E+03  0.70388380967E+03  0.94183644677E+02 0.  0.
         13    1    3    3    0    0  0.49804843883E+03 -0.27271286720E+03 -0.18882228169E+03  0.59839653192E+03  0.00000000000E+00 0. -1.
        -13    1    3    3    0    0  0.10263684005E+03 -0.13917719254E+02 -0.19988544734E+02  0.10548727774E+03  0.00000000000E+00 0.  1.
         22    1    1    2    0    0 -0.60068527888E+03  0.28663058645E+03 -0.90238283830E+03  0.11212826068E+04  0.00000000000E+00 0.  1.
<mgrwt>
<rscale>  0 0.14479230E+04</rscale>
<asrwt>0</asrwt>
<pdfrwt beam="1">  1        2 0.54920981E-01 0.14479230E+04</pdfrwt>
<pdfrwt beam="2">  1       -2 0.22587385E+00 0.14479230E+04</pdfrwt>
<totfact> 0.79531901E+00</totfact>
</mgrwt>
</event>
<event>
 6    1  0.1817112E-005  0.2780045E+04  0.7818608E-02  0.8309491E-01
          2   -1    0    0  501    0  0.00000000000E+00  0.00000000000E+00  0.16775292386E+04  0.16775292386E+04  0.00000000000E+00 0.  1.
         -2   -1    0    0    0  501 -0.00000000000E+00 -0.00000000000E+00 -0.11517903111E+04  0.11517903111E+04  0.00000000000E+00 0. -1.
         23    2    1    2    0    0  0.41905603998E+03 -0.88089636776E+03 -0.74246065040E+03  0.12293456297E+04  0.91959145369E+02 0.  0.
         13    1    3    3    0    0  0.39766832422E+03 -0.81316404597E+03 -0.71371416837E+03  0.11527201637E+04  0.00000000000E+00 0.  1.
        -13    1    3    3    0    0  0.21387715768E+02 -0.67732321791E+02 -0.28746482023E+02  0.76625465934E+02  0.00000000000E+00 0. -1.
         22    1    1    2    0    0 -0.41905603998E+03  0.88089636776E+03  0.12681995779E+04  0.15999739200E+04  0.00000000000E+00 0.  1.
<mgrwt>
<rscale>  0 0.27800445E+04</rscale>
<asrwt>0</asrwt>
<pdfrwt beam="1">  1        2 0.25808142E+00 0.27800445E+04</pdfrwt>
<pdfrwt beam="2">  1       -2 0.17719851E+00 0.27800445E+04</pdfrwt>
<totfact> 0.16685683E+00</totfact>
</mgrwt>
</event>
<event>
 6    1  0.1817112E-005  0.3921358E+04  0.7818608E-02  0.8020602E-01
          2   -1    0    0  501    0  0.00000000000E+00  0.00000000000E+00  0.40109381812E+04  0.40109381812E+04  0.00000000000E+00 0. -1.
         -2   -1    0    0    0  501 -0.00000000000E+00 -0.00000000000E+00 -0.95844466660E+03  0.95844466660E+03  0.00000000000E+00 0.  1.
         23    2    1    2    0    0 -0.13808601474E+04 -0.49140915444E+03  0.31754470565E+04  0.34985411578E+04  0.89824942209E+02 0.  0.
         11    1    3    3    0    0 -0.11786760860E+04 -0.44600104762E+03  0.27702088363E+04  0.30433946912E+04  0.00000000000E+00 0.  1.
        -11    1    3    3    0    0 -0.20218406143E+03 -0.45408106822E+02  0.40523822022E+03  0.45514646653E+03  0.00000000000E+00 0. -1.
         22    1    1    2    0    0  0.13808601474E+04  0.49140915444E+03 -0.12295354187E+03  0.14708416901E+04  0.00000000000E+00 0.  1.
<mgrwt>
<rscale>  0 0.39213581E+04</rscale>
<asrwt>0</asrwt>
<pdfrwt beam="1">  1        2 0.61706741E+00 0.39213581E+04</pdfrwt>
<pdfrwt beam="2">  1       -2 0.14745303E+00 0.39213581E+04</pdfrwt>
<totfact> 0.83127413E-02</totfact>
</mgrwt>
</event>
<event>
 6    1  0.1817112E-005  0.1482766E+04  0.7818608E-02  0.8895995E-01
         -2   -1    0    0    0  501 -0.00000000000E+00  0.00000000000E+00  0.63010961100E+03  0.63010961100E+03  0.00000000000E+00 0.  1.
          2   -1    0    0  501    0  0.00000000000E+00 -0.00000000000E+00 -0.87230633606E+03  0.87230633606E+03  0.00000000000E+00 0. -1.
         23    2    1    2    0    0  0.19105988907E+03  0.37529934035E+03 -0.73651811269E+03  0.85302614861E+03  0.88550572014E+02 0.  0.
         11    1    3    3    0    0  0.98242786840E+02  0.26218632919E+03 -0.53695412676E+03  0.60556836990E+03  0.00000000000E+00 0.  1.
        -11    1    3    3    0    0  0.92817102233E+02  0.11311301116E+03 -0.19956398593E+03  0.24745777870E+03  0.00000000000E+00 0. -1.
         22    1    1    2    0    0 -0.19105988907E+03 -0.37529934035E+03  0.49432138763E+03  0.64938979846E+03  0.00000000000E+00 0.  1.
<mgrwt>
<rscale>  0 0.14827658E+04</rscale>
<asrwt>0</asrwt>
<pdfrwt beam="1">  1        2 0.13420097E+00 0.14827658E+04</pdfrwt>
<pdfrwt beam="2">  1       -2 0.96939941E-01 0.14827658E+04</pdfrwt>
<totfact> 0.26343306E+01</totfact>
</mgrwt>
</event>
<event>
 6    1  0.1817112E-005  0.8647542E+03  0.7818608E-02  0.9470746E-01
         -2   -1    0    0    0  501 -0.00000000000E+00  0.00000000000E+00  0.18535547694E+03  0.18535547694E+03  0.00000000000E+00 0. -1.
          2   -1    0    0  501    0  0.00000000000E+00 -0.00000000000E+00 -0.10086023283E+04  0.10086023283E+04  0.00000000000E+00 0.  1.
         23    2    1    2    0    0 -0.29000477473E+03  0.21561829163E+01 -0.84944348399E+03  0.90276425786E+03  0.96548714609E+02 0.  0.
         13    1    3    3    0    0 -0.16542734254E+03  0.24012800269E+02 -0.35480150105E+03  0.39220775793E+03  0.00000000000E+00 0. -1.
        -13    1    3    3    0    0 -0.12457743219E+03 -0.21856617353E+02 -0.49464198294E+03  0.51055649993E+03  0.00000000000E+00 0.  1.
         22    1    1    2    0    0  0.29000477473E+03 -0.21561829163E+01  0.26196632595E+02  0.29119354741E+03  0.00000000000E+00 0. -1.
<mgrwt>
<rscale>  0 0.86475422E+03</rscale>
<asrwt>0</asrwt>
<pdfrwt beam="1">  1        2 0.15516959E+00 0.86475422E+03</pdfrwt>
<pdfrwt beam="2">  1       -2 0.28516227E-01 0.86475422E+03</pdfrwt>
<totfact> 0.28089945E+02</totfact>
</mgrwt>
</event>
<event>
 6    1  0.1817112E-005  0.2724871E+04  0.7818608E-02  0.8326980E-01
          2   -1    0    0  501    0  0.00000000000E+00  0.00000000000E+00  0.21263590592E+04  0.21263590592E+04  0.00000000000E+00 0. -1.
         -2   -1    0    0    0  501 -0.00000000000E+00 -0.00000000000E+00 -0.87296218287E+03  0.87296218287E+03  0.00000000000E+00 0.  1.
         23    2    1    2    0    0 -0.57420366915E+03  0.45261967833E+03 -0.63608836824E+03  0.97330818281E+03  0.90255080955E+02 0.  0.
         13    1    3    3    0    0 -0.51343234583E+03  0.40567336788E+03 -0.60250949208E+03  0.88949499335E+03  0.00000000000E+00 0.  1.
        -13    1    3    3    0    0 -0.60771323318E+02  0.46946310454E+02 -0.33578876159E+02  0.83813189458E+02  0.00000000000E+00 0. -1.
         22    1    1    2    0    0  0.57420366915E+03 -0.45261967833E+03  0.18894852446E+04  0.20260130593E+04  0.00000000000E+00 0. -1.
<mgrwt>
<rscale>  0 0.27248714E+04</rscale>
<asrwt>0</asrwt>
<pdfrwt beam="1">  1        2 0.32713216E+00 0.27248714E+04</pdfrwt>
<pdfrwt beam="2">  1       -2 0.13430188E+00 0.27248714E+04</pdfrwt>
<totfact> 0.19879002E+00</totfact>
</mgrwt>
</event>
<event>
 6    1  0.1817112E-005  0.3101835E+04  0.7818608E-02  0.8215234E-01
          2   -1    0    0  501    0  0.00000000000E+00  0.00000000000E+00  0.15744334469E+04  0.15744334469E+04  0.00000000000E+00 0. -1.
         -2   -1    0    0    0  501 -0.00000000000E+00 -0.00000000000E+00 -0.15277529935E+04  0.15277529935E+04  0.00000000000E+00 0.  1.
         23    2    1    2    0    0  0.70067241259E+03  0.10270969777E+04 -0.90148447930E+03  0.15385730704E+04  0.93074138340E+02 0.  0.
         13    1    3    3    0    0  0.35616859344E+03  0.57543633642E+03 -0.44642034170E+03  0.81072446966E+03  0.00000000000E+00 0.  1.
        -13    1    3    3    0    0  0.34450381916E+03  0.45166064128E+03 -0.45506413760E+03  0.72784860075E+03  0.00000000000E+00 0. -1.
         22    1    1    2    0    0 -0.70067241259E+03 -0.10270969777E+04  0.94816493270E+03  0.15636133700E+04  0.00000000000E+00 0. -1.
<mgrwt>
<rscale>  0 0.31018352E+04</rscale>
<asrwt>0</asrwt>
<pdfrwt beam="1">  1        2 0.24222053E+00 0.31018352E+04</pdfrwt>
<pdfrwt beam="2">  1       -2 0.23503892E+00 0.31018352E+04</pdfrwt>
<totfact> 0.77811732E-01</totfact>
</mgrwt>
</event>
<event>
 6    1  0.1817112E-005  0.1543849E+04  0.7818608E-02  0.8855806E-01
          2   -1    0    0  501    0  0.00000000000E+00  0.00000000000E+00  0.18597604389E+04  0.18597604389E+04  0.00000000000E+00 0. -1.
         -2   -1    0    0    0  501 -0.00000000000E+00 -0.00000000000E+00 -0.32040000030E+03  0.32040000030E+03  0.00000000000E+00 0.  1.
         23    2    1    2    0    0 -0.48565693125E+03  0.53607299616E+03  0.11421689408E+04  0.13549344107E+04  0.89780042732E+02 0.  0.
         11    1    3    3    0    0 -0.21273492695E+03  0.23583379034E+03  0.58537649386E+03  0.66598751143E+03  0.00000000000E+00 0. -1.
        -11    1    3    3    0    0 -0.27292200430E+03  0.30023920582E+03  0.55679244690E+03  0.68894689931E+03  0.00000000000E+00 0.  1.
         22    1    1    2    0    0  0.48565693125E+03 -0.53607299616E+03  0.39719149784E+03  0.82522602845E+03  0.00000000000E+00 0.  1.
<mgrwt>
<rscale>  0 0.15438488E+04</rscale>
<asrwt>0</asrwt>
<pdfrwt beam="1">  1        2 0.28611699E+00 0.15438488E+04</pdfrwt>
<pdfrwt beam="2">  1       -2 0.49292309E-01 0.15438488E+04</pdfrwt>
<totfact> 0.29994166E+01</totfact>
</mgrwt>
</event>
<event>
 6    1  0.1817112E-005  0.2894369E+04  0.7818608E-02  0.8274555E-01
          2   -1    0    0  501    0  0.00000000000E+00  0.00000000000E+00  0.23325866799E+04  0.23325866799E+04  0.00000000000E+00 0. -1.
         -2   -1    0    0    0  501 -0.00000000000E+00 -0.00000000000E+00 -0.89786309659E+03  0.89786309659E+03  0.00000000000E+00 0.  1.
         23    2    1    2    0    0 -0.52925855647E+03  0.13263210097E+04  0.46673373537E+03  0.15052696740E+04  0.93564798584E+02 0.  0.
         13    1    3    3    0    0 -0.18178101979E+03  0.57373937856E+03  0.21174188214E+03  0.63800927761E+03  0.00000000000E+00 0. -1.
        -13    1    3    3    0    0 -0.34747753668E+03  0.75258163110E+03  0.25499185322E+03  0.86726039640E+03  0.00000000000E+00 0.  1.
         22    1    1    2    0    0  0.52925855647E+03 -0.13263210097E+04  0.96798984791E+03  0.17251801025E+04  0.00000000000E+00 0.  1.
<mgrwt>
<rscale>  0 0.28943694E+04</rscale>
<asrwt>0</asrwt>
<pdfrwt beam="1">  1        2 0.35885949E+00 0.28943694E+04</pdfrwt>
<pdfrwt beam="2">  1       -2 0.13813279E+00 0.28943694E+04</pdfrwt>
<totfact> 0.13948747E+00</totfact>
</mgrwt>
</event>
<event>
 6    1  0.1817112E-005  0.1904449E+04  0.7818608E-02  0.8652645E-01
         -2   -1    0    0    0  501 -0.00000000000E+00  0.00000000000E+00  0.24968741689E+03  0.24968741689E+03  0.00000000000E+00 0.  1.
          2   -1    0    0  501    0  0.00000000000E+00 -0.00000000000E+00 -0.36314655655E+04  0.36314655655E+04  0.00000000000E+00 0. -1.
         23    2    1    2    0    0 -0.67929989937E+03 -0.39233569009E+03 -0.27869233504E+04  0.28966592659E+04  0.91200297873E+02 0.  0.
         13    1    3    3    0    0 -0.38993219537E+03 -0.26166371946E+03 -0.17771992653E+04  0.18381926579E+04  0.00000000000E+00 0.  1.
        -13    1    3    3    0    0 -0.28936770400E+03 -0.13067197063E+03 -0.10097240852E+04  0.10584666080E+04  0.00000000000E+00 0. -1.
         22    1    1    2    0    0  0.67929989937E+03  0.39233569009E+03 -0.59485479822E+03  0.98449371657E+03  0.00000000000E+00 0.  1.
<mgrwt>
<rscale>  0 0.19044487E+04</rscale>
<asrwt>0</asrwt>
<pdfrwt beam="1">  1        2 0.55868702E+00 0.19044487E+04</pdfrwt>
<pdfrwt beam="2">  1       -2 0.38413448E-01 0.19044487E+04</pdfrwt>
<totfact> 0.39581685E+00</totfact>
</mgrwt>
</event>
<event>
 6    1  0.1817112E-005  0.2334150E+04  0.7818608E-02  0.8464577E-01
          1   -1    0    0  501    0  0.00000000000E+00  0.00000000000E+00  0.11143922959E+04  0.11143922959E+04  0.00000000000E+00 0. -1.
         -1   -1    0    0    0  501 -0.00000000000E+00 -0.00000000000E+00 -0.12222483603E+04  0.12222483603E+04  0.00000000000E+00 0.  1.
         23    2    1    2    0    0 -0.23201648969E+03 -0.69701224024E+03  0.85157622152E+03  0.11282665312E+04  0.90252921439E+02 0.  0.
         11    1    3    3    0    0 -0.15554477506E+03 -0.41653490791E+03  0.45106740508E+03  0.63336980547E+03  0.00000000000E+00 0.  1.
        -11    1    3    3    0    0 -0.76471714632E+02 -0.28047733234E+03  0.40050881644E+03  0.49489672573E+03  0.00000000000E+00 0. -1.
         22    1    1    2    0    0  0.23201648969E+03  0.69701224024E+03 -0.95943228597E+03  0.12083741250E+04  0.00000000000E+00 0.  1.
<mgrwt>
<rscale>  0 0.23341501E+04</rscale>
<asrwt>0</asrwt>
<pdfrwt beam="1">  1        1 0.17144497E+00 0.23341501E+04</pdfrwt>
<pdfrwt beam="2">  1       -1 0.18803821E+00 0.23341501E+04</pdfrwt>
<totfact> 0.20330151E+00</totfact>
</mgrwt>
</event>
<event>
 6    1  0.1817112E-005  0.2046307E+04  0.7818608E-02  0.8585272E-01
         -2   -1    0    0    0  501 -0.00000000000E+00  0.00000000000E+00  0.30547607719E+03  0.30547607719E+03  0.00000000000E+00 0.  1.
          2   -1    0    0  501    0  0.00000000000E+00 -0.00000000000E+00 -0.34269220527E+04  0.34269220527E+04  0.00000000000E+00 0. -1.
         23    2    1    2    0    0 -0.91539701600E+03 -0.40624032211E+03 -0.19285831027E+04  0.21748665156E+04  0.87342317073E+02 0.  0.
         11    1    3    3    0    0 -0.63472232947E+03 -0.24654196904E+03 -0.12527805689E+04  0.14258732524E+04  0.00000000000E+00 0. -1.
        -11    1    3    3    0    0 -0.28067468653E+03 -0.15969835307E+03 -0.67580253383E+03  0.74899326323E+03  0.00000000000E+00 0.  1.
         22    1    1    2    0    0  0.91539701600E+03  0.40624032211E+03 -0.11928628728E+04  0.15575316143E+04  0.00000000000E+00 0. -1.
<mgrwt>
<rscale>  0 0.20463066E+04</rscale>
<asrwt>0</asrwt>
<pdfrwt beam="1">  1        2 0.52721878E+00 0.20463066E+04</pdfrwt>
<pdfrwt beam="2">  1       -2 0.46996319E-01 0.20463066E+04</pdfrwt>
<totfact> 0.36462951E+00</totfact>
</mgrwt>
</event>
<event>
 6    1  0.1817112E-005  0.2356048E+04  0.7818608E-02  0.8456144E-01
         -2   -1    0    0    0  501 -0.00000000000E+00  0.00000000000E+00  0.49904315431E+03  0.49904315431E+03  0.00000000000E+00 0.  1.
          2   -1    0    0  501    0  0.00000000000E+00 -0.00000000000E+00 -0.27808018127E+04  0.27808018127E+04  0.00000000000E+00 0. -1.
         23    2    1    2    0    0  0.10620519493E+04  0.35739562873E+03 -0.16409275152E+04  0.19889729622E+04  0.87660457971E+02 0.  0.
         13    1    3    3    0    0  0.39082168898E+03  0.17414321777E+03 -0.60125930717E+03  0.73795677877E+03  0.00000000000E+00 0.  1.
        -13    1    3    3    0    0  0.67123026037E+03  0.18325241096E+03 -0.10396682080E+04  0.12510161835E+04  0.00000000000E+00 0. -1.
         22    1    1    2    0    0 -0.10620519493E+04 -0.35739562873E+03 -0.64083114317E+03  0.12908720047E+04  0.00000000000E+00 0.  1.
<mgrwt>
<rscale>  0 0.23560476E+04</rscale>
<asrwt>0</asrwt>
<pdfrwt beam="1">  1        2 0.42781567E+00 0.23560476E+04</pdfrwt>
<pdfrwt beam="2">  1       -2 0.76775869E-01 0.23560476E+04</pdfrwt>
<totfact> 0.32496285E+00</totfact>
</mgrwt>
</event>
<event>
 6    1  0.1817112E-005  0.2004284E+04  0.7818608E-02  0.8604621E-01
          1   -1    0    0  501    0  0.00000000000E+00  0.00000000000E+00  0.50281462668E+03  0.50281462668E+03  0.00000000000E+00 0. -1.
         -1   -1    0    0    0  501 -0.00000000000E+00 -0.00000000000E+00 -0.19973328959E+04  0.19973328959E+04  0.00000000000E+00 0.  1.
         23    2    1    2    0    0 -0.73872211107E+03  0.95943327119E+02 -0.15811189888E+04  0.17502040821E+04  0.91441744192E+02 0.  0.
         13    1    3    3    0    0 -0.32457286939E+03  0.81206090208E+02 -0.65111971926E+03  0.73205113581E+03  0.00000000000E+00 0.  1.
        -13    1    3    3    0    0 -0.41414924168E+03  0.14737236911E+02 -0.92999926958E+03  0.10181529462E+04  0.00000000000E+00 0. -1.
         22    1    1    2    0    0  0.73872211107E+03 -0.95943327119E+02  0.86600719576E+02  0.74994344056E+03  0.00000000000E+00 0. -1.
<mgrwt>
<rscale>  0 0.20042836E+04</rscale>
<asrwt>0</asrwt>
<pdfrwt beam="1">  1        1 0.77356095E-01 0.20042836E+04</pdfrwt>
<pdfrwt beam="2">  1       -1 0.30728199E+00 0.20042836E+04</pdfrwt>
<totfact> 0.12088623E+00</totfact>
</mgrwt>
</event>
<event>
 6    1  0.1817112E-005  0.3104755E+04  0.7818608E-02  0.8214434E-01
         -2   -1    0    0    0  501 -0.00000000000E+00  0.00000000000E+00  0.17279560777E+04  0.17279560777E+04  0.00000000000E+00 0.  1.
          2   -1    0    0  501    0  0.00000000000E+00 -0.00000000000E+00 -0.13946393038E+04  0.13946393038E+04  0.00000000000E+00 0. -1.
         23    2    1    2    0    0 -0.45728815574E+03  0.28260580844E+03  0.16301571670E+04  0.17187529738E+04  0.87868626002E+02 0.  0.
         13    1    3    3    0    0 -0.35421481133E+03  0.19880442978E+03  0.13268180860E+04  0.13876013719E+04  0.00000000000E+00 0. -1.
        -13    1    3    3    0    0 -0.10307334441E+03  0.83801378664E+02  0.30333908100E+03  0.33115160192E+03  0.00000000000E+00 0.  1.
         22    1    1    2    0    0  0.45728815574E+03 -0.28260580844E+03 -0.12968403931E+04  0.14038424077E+04  0.00000000000E+00 0. -1.
<mgrwt>
<rscale>  0 0.31047547E+04</rscale>
<asrwt>0</asrwt>
<pdfrwt beam="1">  1        2 0.21455989E+00 0.31047547E+04</pdfrwt>
<pdfrwt beam="2">  1       -2 0.26583940E+00 0.31047547E+04</pdfrwt>
<totfact> 0.63558999E-01</totfact>
</mgrwt>
</event>
<event>
 6    1  0.1817112E-005  0.2346055E+04  0.7818608E-02  0.8459981E-01
         -2   -1    0    0    0  501 -0.00000000000E+00  0.00000000000E+00  0.68196240780E+03  0.68196240780E+03  0.00000000000E+00 0.  1.
          2   -1    0    0  501    0  0.00000000000E+00 -0.00000000000E+00 -0.20176962650E+04  0.20176962650E+04  0.00000000000E+00 0. -1.
         23    2    1    2    0    0 -0.50894110635E+03  0.25818936589E+02  0.54465826217E+03  0.75143841065E+03  0.91210718844E+02 0.  0.
         11    1    3    3    0    0 -0.15102097784E+03  0.34340121041E+02  0.21338942221E+03  0.26366953782E+03  0.00000000000E+00 0.  1.
        -11    1    3    3    0    0 -0.35792012852E+03 -0.85211844519E+01  0.33126883995E+03  0.48776887283E+03  0.00000000000E+00 0. -1.
         22    1    1    2    0    0  0.50894110635E+03 -0.25818936589E+02 -0.18803921194E+04  0.19482202621E+04  0.00000000000E+00 0. -1.
<mgrwt>
<rscale>  0 0.23460546E+04</rscale>
<asrwt>0</asrwt>
<pdfrwt beam="1">  1        2 0.31041481E+00 0.23460546E+04</pdfrwt>
<pdfrwt beam="2">  1       -2 0.10491729E+00 0.23460546E+04</pdfrwt>
<totfact> 0.43443480E+00</totfact>
</mgrwt>
</event>
<event>
 6    1  0.1817112E-005  0.6563534E+03  0.7818608E-02  0.9794930E-01
          2   -1    0    0  501    0  0.00000000000E+00  0.00000000000E+00  0.12689775236E+04  0.12689775236E+04  0.00000000000E+00 0. -1.
         -2   -1    0    0    0  501 -0.00000000000E+00 -0.00000000000E+00 -0.84871443541E+02  0.84871443541E+02  0.00000000000E+00 0.  1.
         23    2    1    2    0    0  0.16638904634E+03  0.18610439709E+03  0.10228724755E+04  0.10566681525E+04  0.89215032175E+02 0.  0.
         13    1    3    3    0    0  0.89470619731E+02  0.14545372456E+03  0.55147297374E+03  0.57730773297E+03  0.00000000000E+00 0. -1.
        -13    1    3    3    0    0  0.76918426610E+02  0.40650672537E+02  0.47139950179E+03  0.47936041953E+03  0.00000000000E+00 0.  1.
         22    1    1    2    0    0 -0.16638904634E+03 -0.18610439709E+03  0.16123360454E+03  0.29718081465E+03  0.00000000000E+00 0.  1.
<mgrwt>
<rscale>  0 0.65635342E+03</rscale>
<asrwt>0</asrwt>
<pdfrwt beam="1">  1        2 0.19522730E+00 0.65635342E+03</pdfrwt>
<pdfrwt beam="2">  1       -2 0.13057146E-01 0.65635342E+03</pdfrwt>
<totfact> 0.77162347E+02</totfact>
</mgrwt>
</event>
<event>
 6    1  0.1817112E-005  0.2124057E+04  0.7818608E-02  0.8550720E-01
          2   -1    0    0  501    0  0.00000000000E+00  0.00000000000E+00  0.22446904270E+04  0.22446904270E+04  0.00000000000E+00 0. -1.
         -2   -1    0    0    0  501 -0.00000000000E+00 -0.00000000000E+00 -0.50247642148E+03  0.50247642148E+03  0.00000000000E+00 0.  1.
         23    2    1    2    0    0  0.27367792630E+03  0.20069093126E+03  0.21716260896E+04  0.21998358745E+04  0.90230506700E+02 0.  0.
         13    1    3    3    0    0  0.19504426990E+03  0.18057207347E+03  0.17941720990E+04  0.18137535836E+04  0.00000000000E+00 0. -1.
        -13    1    3    3    0    0  0.78633656394E+02  0.20118857793E+02  0.37745399056E+03  0.38608229090E+03  0.00000000000E+00 0.  1.
         22    1    1    2    0    0 -0.27367792630E+03 -0.20069093126E+03 -0.42941208404E+03  0.54733097405E+03  0.00000000000E+00 0.  1.
<mgrwt>
<rscale>  0 0.21240565E+04</rscale>
<asrwt>0</asrwt>
<pdfrwt beam="1">  1        2 0.34533698E+00 0.21240565E+04</pdfrwt>
<pdfrwt beam="2">  1       -2 0.77304066E-01 0.21240565E+04</pdfrwt>
<totfact> 0.66896348E+00</totfact>
</mgrwt>
</event>
<event>
 6    1  0.1817112E-005  0.2307425E+04  0.7818608E-02  0.8474999E-01
          2   -1    0    0  501    0  0.00000000000E+00  0.00000000000E+00  0.22235926414E+04  0.22235926414E+04  0.00000000000E+00 0. -1.
         -2   -1    0    0    0  501 -0.00000000000E+00 -0.00000000000E+00 -0.59860452860E+03  0.59860452860E+03  0.00000000000E+00 0.  1.
         23    2    1    2    0    0  0.57952858701E+03  0.88696028327E+03  0.26058122834E+03  0.10947255860E+04  0.89272642643E+02 0.  0.
         13    1    3    3    0    0  0.11110120087E+03  0.12689121772E+03  0.64901071833E+02  0.18071249845E+03  0.00000000000E+00 0. -1.
        -13    1    3    3    0    0  0.46842738614E+03  0.76006906555E+03  0.19568015650E+03  0.91401308751E+03  0.00000000000E+00 0.  1.
         22    1    1    2    0    0 -0.57952858701E+03 -0.88696028327E+03  0.13644068844E+04  0.17274715840E+04  0.00000000000E+00 0. -1.
<mgrwt>
<rscale>  0 0.23074251E+04</rscale>
<asrwt>0</asrwt>
<pdfrwt beam="1">  1        2 0.34209117E+00 0.23074251E+04</pdfrwt>
<pdfrwt beam="2">  1       -2 0.92093006E-01 0.23074251E+04</pdfrwt>
<totfact> 0.45462537E+00</totfact>
</mgrwt>
</event>
<event>
 6    1  0.2536372E-005  0.3724300E+04  0.7818608E-02  0.8062598E-01
         -2   -1    0    0    0  501 -0.00000000000E+00  0.00000000000E+00  0.14763149385E+04  0.14763149385E+04  0.00000000000E+00 0.  1.
          2   -1    0    0  501    0  0.00000000000E+00 -0.00000000000E+00 -0.23488233784E+04  0.23488233784E+04  0.00000000000E+00 0. -1.
         23    2    1    2    0    0  0.58333554792E+03  0.16697357745E+02  0.13784455936E+04  0.14997666856E+04  0.92890761446E+02 0.  0.
         11    1    3    3    0    0  0.10967531934E+03 -0.10393461299E+02  0.35502949748E+03  0.37172926141E+03  0.00000000000E+00 0. -1.
        -11    1    3    3    0    0  0.47366022858E+03  0.27090819044E+02  0.10234160961E+04  0.11280374242E+04  0.00000000000E+00 0.  1.
         22    1    1    2    0    0 -0.58333554792E+03 -0.16697357745E+02 -0.22509540334E+04  0.23253716313E+04  0.00000000000E+00 0. -1.
<mgrwt>
<rscale>  0 0.37243002E+04</rscale>
<asrwt>0</asrwt>
<pdfrwt beam="1">  1        2 0.36135744E+00 0.37243002E+04</pdfrwt>
<pdfrwt beam="2">  1       -2 0.22712537E+00 0.37243002E+04</pdfrwt>
<totfact> 0.30578279E-01</totfact>
</mgrwt>
</event>
<event>
 6    1  0.1817112E-005  0.1632607E+04  0.7818608E-02  0.8800763E-01
          2   -1    0    0  501    0  0.00000000000E+00  0.00000000000E+00  0.15779177272E+04  0.15779177272E+04  0.00000000000E+00 0. -1.
         -2   -1    0    0    0  501 -0.00000000000E+00 -0.00000000000E+00 -0.42229812070E+03  0.42229812070E+03  0.00000000000E+00 0.  1.
         23    2    1    2    0    0  0.13246953349E+03 -0.80083532640E+03  0.62996038425E+03  0.10331568966E+04  0.10806336117E+03 0.  0.
         13    1    3    3    0    0  0.22522785116E+02 -0.28270047308E+03  0.27855707773E+03  0.39751840068E+03  0.00000000000E+00 0.  1.
        -13    1    3    3    0    0  0.10994674837E+03 -0.51813485332E+03  0.35140330653E+03  0.63563849595E+03  0.00000000000E+00 0. -1.
         22    1    1    2    0    0 -0.13246953349E+03  0.80083532640E+03  0.52565922226E+03  0.96705895129E+03  0.00000000000E+00 0.  1.
<mgrwt>
<rscale>  0 0.16326074E+04</rscale>
<asrwt>0</asrwt>
<pdfrwt beam="1">  1        2 0.24275657E+00 0.16326074E+04</pdfrwt>
<pdfrwt beam="2">  1       -2 0.64968943E-01 0.16326074E+04</pdfrwt>
<totfact> 0.23983386E+01</totfact>
</mgrwt>
</event>
<event>
 6    1  0.1817112E-005  0.1210515E+04  0.7818608E-02  0.9103703E-01
          2   -1    0    0  501    0  0.00000000000E+00  0.00000000000E+00  0.90284194492E+03  0.90284194492E+03  0.00000000000E+00 0. -1.
         -2   -1    0    0    0  501 -0.00000000000E+00 -0.00000000000E+00 -0.40575912812E+03  0.40575912812E+03  0.00000000000E+00 0.  1.
         23    2    1    2    0    0 -0.67392059596E+02  0.52696792126E+03  0.55702965930E+03  0.77396988835E+03  0.80687464976E+02 0.  0.
         13    1    3    3    0    0 -0.44793462854E+02  0.15616061859E+03  0.21088814945E+03  0.26620744673E+03  0.00000000000E+00 0.  1.
        -13    1    3    3    0    0 -0.22598596742E+02  0.37080730267E+03  0.34614150985E+03  0.50776244162E+03  0.00000000000E+00 0. -1.
         22    1    1    2    0    0  0.67392059596E+02 -0.52696792126E+03 -0.59946842498E+02  0.53463118470E+03  0.00000000000E+00 0.  1.
<mgrwt>
<rscale>  0 0.12105145E+04</rscale>
<asrwt>0</asrwt>
<pdfrwt beam="1">  1        2 0.13889876E+00 0.12105145E+04</pdfrwt>
<pdfrwt beam="2">  1       -2 0.62424481E-01 0.12105145E+04</pdfrwt>
<totfact> 0.68548872E+01</totfact>
</mgrwt>
</event>
<event>
 6    1  0.1817112E-005  0.2527704E+04  0.7818608E-02  0.8393182E-01
          2   -1    0    0  501    0  0.00000000000E+00  0.00000000000E+00  0.10609200164E+04  0.10609200164E+04  0.00000000000E+00 0. -1.
         -2   -1    0    0    0  501 -0.00000000000E+00 -0.00000000000E+00 -0.15056009199E+04  0.15056009199E+04  0.00000000000E+00 0.  1.
         23    2    1    2    0    0 -0.57021899136E+03  0.74822830168E+03  0.63184068087E+03  0.11368727239E+04  0.90893646062E+02 0.  0.
         11    1    3    3    0    0 -0.27912364105E+03  0.30245367559E+03  0.24773961285E+03  0.48037813090E+03  0.00000000000E+00 0. -1.
        -11    1    3    3    0    0 -0.29109535031E+03  0.44577462609E+03  0.38410106802E+03  0.65649459304E+03  0.00000000000E+00 0.  1.
         22    1    1    2    0    0  0.57021899136E+03 -0.74822830168E+03 -0.10765215844E+04  0.14296482124E+04  0.00000000000E+00 0.  1.
<mgrwt>
<rscale>  0 0.25277042E+04</rscale>
<asrwt>0</asrwt>
<pdfrwt beam="1">  1        2 0.16321846E+00 0.25277042E+04</pdfrwt>
<pdfrwt beam="2">  1       -2 0.23163091E+00 0.25277042E+04</pdfrwt>
<totfact> 0.17120872E+00</totfact>
</mgrwt>
</event>
<event>
 6    1  0.1817112E-005  0.6024500E+04  0.7818608E-02  0.7687372E-01
          2   -1    0    0  501    0  0.00000000000E+00  0.00000000000E+00  0.25918448784E+04  0.25918448784E+04  0.00000000000E+00 0. -1.
         -2   -1    0    0    0  501 -0.00000000000E+00 -0.00000000000E+00 -0.35008459379E+04  0.35008459379E+04  0.00000000000E+00 0.  1.
         23    2    1    2    0    0  0.29289600428E+04 -0.51625637354E+03  0.24129504715E+02  0.29756312684E+04  0.92041496289E+02 0.  0.
         11    1    3    3    0    0  0.14374444762E+04 -0.24752513519E+03  0.57487264020E+02  0.14597328866E+04  0.00000000000E+00 0. -1.
        -11    1    3    3    0    0  0.14915155666E+04 -0.26873123835E+03 -0.33357759305E+02  0.15158983818E+04  0.00000000000E+00 0.  1.
         22    1    1    2    0    0 -0.29289600428E+04  0.51625637354E+03 -0.93313056427E+03  0.31170595479E+04  0.00000000000E+00 0.  1.
<mgrwt>
<rscale>  0 0.60244999E+04</rscale>
<asrwt>0</asrwt>
<pdfrwt beam="1">  1        2 0.39874537E+00 0.60244999E+04</pdfrwt>
<pdfrwt beam="2">  1       -2 0.53859168E+00 0.60244999E+04</pdfrwt>
<totfact> 0.20628595E-03</totfact>
</mgrwt>
</event>
<event>
 6    1  0.1817112E-005  0.3141222E+04  0.7818608E-02  0.8204515E-01
         -2   -1    0    0    0  501 -0.00000000000E+00  0.00000000000E+00  0.67930705721E+03  0.67930705721E+03  0.00000000000E+00 0.  1.
          2   -1    0    0  501    0  0.00000000000E+00 -0.00000000000E+00 -0.36313745592E+04  0.36313745592E+04  0.00000000000E+00 0. -1.
         23    2    1    2    0    0  0.13028915739E+04  0.48807983875E+03 -0.48124186318E+03  0.14750639201E+04  0.92040507194E+02 0.  0.
         13    1    3    3    0    0  0.52243332241E+03  0.15842942996E+03 -0.15875233126E+03  0.56854090734E+03  0.00000000000E+00 0.  1.
        -13    1    3    3    0    0  0.78045825152E+03  0.32965040879E+03 -0.32248953192E+03  0.90652301271E+03  0.00000000000E+00 0. -1.
         22    1    1    2    0    0 -0.13028915739E+04 -0.48807983875E+03 -0.24708256388E+04  0.28356176963E+04  0.00000000000E+00 0. -1.
<mgrwt>
<rscale>  0 0.31412217E+04</rscale>
<asrwt>0</asrwt>
<pdfrwt beam="1">  1        2 0.55867301E+00 0.31412217E+04</pdfrwt>
<pdfrwt beam="2">  1       -2 0.10450878E+00 0.31412217E+04</pdfrwt>
<totfact> 0.41169166E-01</totfact>
</mgrwt>
</event>
<event>
 6    1  0.1817112E-005  0.5122061E+04  0.7818608E-02  0.7809949E-01
         -2   -1    0    0    0  501 -0.00000000000E+00  0.00000000000E+00  0.22098564529E+04  0.22098564529E+04  0.00000000000E+00 0.  1.
          2   -1    0    0  501    0  0.00000000000E+00 -0.00000000000E+00 -0.29680101203E+04  0.29680101203E+04  0.00000000000E+00 0. -1.
         23    2    1    2    0    0  0.89472909791E+03 -0.23977714872E+04 -0.44116407640E+03  0.25990430693E+04  0.10271743072E+03 0.  0.
         11    1    3    3    0    0  0.29084478019E+03 -0.90144198886E+03 -0.13754444305E+03  0.95713469232E+03  0.00000000000E+00 0. -1.
        -11    1    3    3    0    0  0.60388431772E+03 -0.14963294983E+04 -0.30361963335E+03  0.16419083770E+04  0.00000000000E+00 0.  1.
         22    1    1    2    0    0 -0.89472909791E+03  0.23977714872E+04 -0.31698959099E+03  0.25788235039E+04  0.00000000000E+00 0.  1.
<mgrwt>
<rscale>  0 0.51220606E+04</rscale>
<asrwt>0</asrwt>
<pdfrwt beam="1">  1        2 0.45661694E+00 0.51220606E+04</pdfrwt>
<pdfrwt beam="2">  1       -2 0.33997792E+00 0.51220606E+04</pdfrwt>
<totfact> 0.23636374E-02</totfact>
</mgrwt>
</event>
<event>
 6    1  0.1817112E-005  0.2120506E+04  0.7818608E-02  0.8552264E-01
          1   -1    0    0  501    0  0.00000000000E+00  0.00000000000E+00  0.18397386986E+04  0.18397386986E+04  0.00000000000E+00 0. -1.
         -1   -1    0    0    0  501 -0.00000000000E+00 -0.00000000000E+00 -0.61103035059E+03  0.61103035059E+03  0.00000000000E+00 0.  1.
         23    2    1    2    0    0 -0.77094305859E+03  0.71790919252E+03  0.49944490736E+03  0.11695305959E+04  0.92788959363E+02 0.  0.
         11    1    3    3    0    0 -0.33940486666E+03  0.36067800181E+03  0.19810508966E+03  0.53341345226E+03  0.00000000000E+00 0. -1.
        -11    1    3    3    0    0 -0.43153819193E+03  0.35723119072E+03  0.30133981770E+03  0.63611714365E+03  0.00000000000E+00 0.  1.
         22    1    1    2    0    0  0.77094305859E+03 -0.71790919252E+03  0.72926344064E+03  0.12812384533E+04  0.00000000000E+00 0. -1.
<mgrwt>
<rscale>  0 0.21205058E+04</rscale>
<asrwt>0</asrwt>
<pdfrwt beam="1">  1        1 0.28303672E+00 0.21205058E+04</pdfrwt>
<pdfrwt beam="2">  1       -1 0.94004670E-01 0.21205058E+04</pdfrwt>
<totfact> 0.38528387E+00</totfact>
</mgrwt>
</event>
<event>
 6    1  0.1817112E-005  0.3238536E+04  0.7818608E-02  0.8178713E-01
          2   -1    0    0  501    0  0.00000000000E+00  0.00000000000E+00  0.15672557647E+04  0.15672557647E+04  0.00000000000E+00 0. -1.
         -2   -1    0    0    0  501 -0.00000000000E+00 -0.00000000000E+00 -0.16730062430E+04  0.16730062430E+04  0.00000000000E+00 0.  1.
         23    2    1    2    0    0 -0.17186843727E+03  0.15432125667E+04 -0.50801159366E+03  0.16362489807E+04  0.90505037843E+02 0.  0.
         11    1    3    3    0    0 -0.52364160000E+01  0.39722301530E+03 -0.13748074580E+03  0.42037423731E+03  0.00000000000E+00 0. -1.
        -11    1    3    3    0    0 -0.16663202127E+03  0.11459895514E+04 -0.37053084786E+03  0.12158747434E+04  0.00000000000E+00 0.  1.
         22    1    1    2    0    0  0.17186843727E+03 -0.15432125667E+04  0.40226111529E+03  0.16040130270E+04  0.00000000000E+00 0. -1.
<mgrwt>
<rscale>  0 0.32385359E+04</rscale>
<asrwt>0</asrwt>
<pdfrwt beam="1">  1        2 0.24111627E+00 0.32385359E+04</pdfrwt>
<pdfrwt beam="2">  1       -2 0.25738557E+00 0.32385359E+04</pdfrwt>
<totfact> 0.56529321E-01</totfact>
</mgrwt>
</event>
<event>
 6    1  0.1817112E-005  0.1924680E+04  0.7818608E-02  0.8642668E-01
          2   -1    0    0  501    0  0.00000000000E+00  0.00000000000E+00  0.10112127696E+04  0.10112127696E+04  0.00000000000E+00 0. -1.
         -2   -1    0    0    0  501 -0.00000000000E+00 -0.00000000000E+00 -0.91582912916E+03  0.91582912916E+03  0.00000000000E+00 0.  1.
         23    2    1    2    0    0 -0.58168665548E+03  0.73208690687E+03  0.26610907373E+03  0.97653793873E+03  0.92204675965E+02 0.  0.
         11    1    3    3    0    0 -0.19578546632E+03  0.26728416208E+03  0.50775440807E+02  0.33518788390E+03  0.00000000000E+00 0.  1.
        -11    1    3    3    0    0 -0.38590118917E+03  0.46480274479E+03  0.21533363292E+03  0.64135005483E+03  0.00000000000E+00 0. -1.
         22    1    1    2    0    0  0.58168665548E+03 -0.73208690687E+03 -0.17072543333E+03  0.95050395999E+03  0.00000000000E+00 0.  1.
<mgrwt>
<rscale>  0 0.19246798E+04</rscale>
<asrwt>0</asrwt>
<pdfrwt beam="1">  1        2 0.15557119E+00 0.19246798E+04</pdfrwt>
<pdfrwt beam="2">  1       -2 0.14089679E+00 0.19246798E+04</pdfrwt>
<totfact> 0.81795607E+00</totfact>
</mgrwt>
</event>
<event>
 6    1  0.1817112E-005  0.3080825E+04  0.7818608E-02  0.8221020E-01
          2   -1    0    0  501    0  0.00000000000E+00  0.00000000000E+00  0.41940905815E+04  0.41940905815E+04  0.00000000000E+00 0. -1.
         -2   -1    0    0    0  501 -0.00000000000E+00 -0.00000000000E+00 -0.56576533881E+03  0.56576533881E+03  0.00000000000E+00 0.  1.
         23    2    1    2    0    0 -0.14145013208E+04 -0.84163922580E+02  0.88736576717E+03  0.16742836235E+04  0.88938713832E+02 0.  0.
         13    1    3    3    0    0 -0.92331627641E+03 -0.58459088430E+02  0.62859298229E+03  0.11185077330E+04  0.00000000000E+00 0. -1.
        -13    1    3    3    0    0 -0.49118504437E+03 -0.25704834149E+02  0.25877278488E+03  0.55577589054E+03  0.00000000000E+00 0.  1.
         22    1    1    2    0    0  0.14145013208E+04  0.84163922580E+02  0.27409594755E+04  0.30855722968E+04  0.00000000000E+00 0. -1.
<mgrwt>
<rscale>  0 0.30808253E+04</rscale>
<asrwt>0</asrwt>
<pdfrwt beam="1">  1        2 0.64524468E+00 0.30808253E+04</pdfrwt>
<pdfrwt beam="2">  1       -2 0.87040824E-01 0.30808253E+04</pdfrwt>
<totfact> 0.22808568E-01</totfact>
</mgrwt>
</event>
<event>
 6    1  0.1817112E-005  0.2569198E+04  0.7818608E-02  0.8378740E-01
         -2   -1    0    0    0  501 -0.00000000000E+00  0.00000000000E+00  0.23327356433E+04  0.23327356433E+04  0.00000000000E+00 0.  1.
          2   -1    0    0  501    0  0.00000000000E+00 -0.00000000000E+00 -0.70740744206E+03  0.70740744206E+03  0.00000000000E+00 0. -1.
         23    2    1    2    0    0  0.56651987224E+03 -0.11146693328E+04  0.11531996165E+04  0.17036035657E+04  0.94674528758E+02 0.  0.
         13    1    3    3    0    0  0.21795601555E+03 -0.36682526680E+03  0.34618372097E+03  0.54946225507E+03  0.00000000000E+00 0. -1.
        -13    1    3    3    0    0  0.34856385669E+03 -0.74784406597E+03  0.80701589555E+03  0.11541413106E+04  0.00000000000E+00 0.  1.
         22    1    1    2    0    0 -0.56651987224E+03  0.11146693328E+04  0.47212858467E+03  0.13365395196E+04  0.00000000000E+00 0. -1.
<mgrwt>
<rscale>  0 0.25691980E+04</rscale>
<asrwt>0</asrwt>
<pdfrwt beam="1">  1        2 0.10883192E+00 0.25691980E+04</pdfrwt>
<pdfrwt beam="2">  1       -2 0.35888240E+00 0.25691980E+04</pdfrwt>
<totfact> 0.49024588E-01</totfact>
</mgrwt>
</event>
<event>
 6    1  0.1817112E-005  0.1619833E+04  0.7818608E-02  0.8808456E-01
          2   -1    0    0  501    0  0.00000000000E+00  0.00000000000E+00  0.19555888644E+04  0.19555888644E+04  0.00000000000E+00 0.  1.
         -2   -1    0    0    0  501 -0.00000000000E+00 -0.00000000000E+00 -0.33543082168E+03  0.33543082168E+03  0.00000000000E+00 0. -1.
         23    2    1    2    0    0  0.27078329143E+03 -0.73394684001E+03  0.10949314486E+04  0.13487540494E+04  0.90890339353E+02 0.  0.
         11    1    3    3    0    0  0.10418817246E+03 -0.39423425244E+03  0.52720429248E+03  0.66649845243E+03  0.00000000000E+00 0. -1.
        -11    1    3    3    0    0  0.16659511896E+03 -0.33971258757E+03  0.56772715616E+03  0.68225559701E+03  0.00000000000E+00 0.  1.
         22    1    1    2    0    0 -0.27078329143E+03  0.73394684001E+03  0.52522659409E+03  0.94226563665E+03  0.00000000000E+00 0.  1.
<mgrwt>
<rscale>  0 0.16198331E+04</rscale>
<asrwt>0</asrwt>
<pdfrwt beam="1">  1        2 0.30085982E+00 0.16198331E+04</pdfrwt>
<pdfrwt beam="2">  1       -2 0.51604743E-01 0.16198331E+04</pdfrwt>
<totfact> 0.24021581E+01</totfact>
</mgrwt>
</event>
<event>
 6    1  0.1817112E-005  0.1492738E+04  0.7818608E-02  0.8889296E-01
          2   -1    0    0  501    0  0.00000000000E+00  0.00000000000E+00  0.21039833789E+03  0.21039833789E+03  0.00000000000E+00 0. -1.
         -2   -1    0    0    0  501 -0.00000000000E+00 -0.00000000000E+00 -0.26476774458E+04  0.26476774458E+04  0.00000000000E+00 0.  1.
         23    2    1    2    0    0 -0.61884128152E+03  0.11309471177E+03 -0.46515538370E+03  0.78804512470E+03  0.94290201187E+02 0.  0.
         13    1    3    3    0    0 -0.92674316049E+02  0.31739415847E+02 -0.11373768268E+03  0.15010722779E+03  0.00000000000E+00 0. -1.
        -13    1    3    3    0    0 -0.52616696547E+03  0.81355295922E+02 -0.35141770102E+03  0.63793789691E+03  0.00000000000E+00 0.  1.
         22    1    1    2    0    0  0.61884128152E+03 -0.11309471177E+03 -0.19721237242E+04  0.20700306590E+04  0.00000000000E+00 0.  1.
<mgrwt>
<rscale>  0 0.14927383E+04</rscale>
<asrwt>0</asrwt>
<pdfrwt beam="1">  1        2 0.32368974E-01 0.14927383E+04</pdfrwt>
<pdfrwt beam="2">  1       -2 0.40733501E+00 0.14927383E+04</pdfrwt>
<totfact> 0.10598690E+00</totfact>
</mgrwt>
</event>
<event>
 6    1  0.1817112E-005  0.1984090E+04  0.7818608E-02  0.8614095E-01
          2   -1    0    0  501    0  0.00000000000E+00  0.00000000000E+00  0.82221846361E+03  0.82221846361E+03  0.00000000000E+00 0.  1.
         -2   -1    0    0    0  501 -0.00000000000E+00 -0.00000000000E+00 -0.11969492211E+04  0.11969492211E+04  0.00000000000E+00 0. -1.
         23    2    1    2    0    0 -0.75991265749E+03 -0.24826618944E+03  0.40649977044E+03  0.90139110346E+03  0.90335542260E+02 0.  0.
         11    1    3    3    0    0 -0.41537736266E+03 -0.12725615611E+03  0.27024983531E+03  0.51163214927E+03  0.00000000000E+00 0.  1.
        -11    1    3    3    0    0 -0.34453529483E+03 -0.12101003333E+03  0.13624993513E+03  0.38975895419E+03  0.00000000000E+00 0. -1.
         22    1    1    2    0    0  0.75991265749E+03  0.24826618944E+03 -0.78123052790E+03  0.11177765812E+04  0.00000000000E+00 0. -1.
<mgrwt>
<rscale>  0 0.19840905E+04</rscale>
<asrwt>0</asrwt>
<pdfrwt beam="1">  1        2 0.12649515E+00 0.19840905E+04</pdfrwt>
<pdfrwt beam="2">  1       -2 0.18414603E+00 0.19840905E+04</pdfrwt>
<totfact> 0.52426904E+00</totfact>
</mgrwt>
</event>
<event>
 6    1  0.1817112E-005  0.2580452E+04  0.7818608E-02  0.8374872E-01
         -1   -1    0    0    0  501 -0.00000000000E+00  0.00000000000E+00  0.10969443757E+04  0.10969443757E+04  0.00000000000E+00 0. -1.
          1   -1    0    0  501    0  0.00000000000E+00 -0.00000000000E+00 -0.15175638132E+04  0.15175638132E+04  0.00000000000E+00 0.  1.
         23    2    1    2    0    0  0.12591847269E+04  0.14507589696E+03 -0.44599046130E+03  0.13467397237E+04  0.90593595845E+02 0.  0.
         13    1    3    3    0    0  0.11592579812E+04  0.11490440495E+03 -0.39132231820E+03  0.12289081520E+04  0.00000000000E+00 0.  1.
        -13    1    3    3    0    0  0.99926745658E+02  0.30171492014E+02 -0.54668143108E+02  0.11783157174E+03  0.00000000000E+00 0. -1.
         22    1    1    2    0    0 -0.12591847269E+04 -0.14507589696E+03  0.25371023831E+02  0.12677684651E+04  0.00000000000E+00 0. -1.
<mgrwt>
<rscale>  0 0.25804520E+04</rscale>
<asrwt>0</asrwt>
<pdfrwt beam="1">  1        1 0.23347136E+00 0.25804520E+04</pdfrwt>
<pdfrwt beam="2">  1       -1 0.16876067E+00 0.25804520E+04</pdfrwt>
<totfact> 0.14102696E+00</totfact>
</mgrwt>
</event>
<event>
 6    1  0.1817112E-005  0.2988694E+04  0.7818608E-02  0.8246967E-01
         -2   -1    0    0    0  501 -0.00000000000E+00  0.00000000000E+00  0.47656153242E+03  0.47656153242E+03  0.00000000000E+00 0. -1.
          2   -1    0    0  501    0  0.00000000000E+00 -0.00000000000E+00 -0.46858026546E+04  0.46858026546E+04  0.00000000000E+00 0.  1.
         23    2    1    2    0    0 -0.86356084023E+03  0.89328405119E+03 -0.35360932873E+04  0.37492747601E+04  0.97014275400E+02 0.  0.
         11    1    3    3    0    0 -0.26986603752E+03  0.24599819238E+03 -0.11550839140E+04  0.12114295841E+04  0.00000000000E+00 0.  1.
        -11    1    3    3    0    0 -0.59369480271E+03  0.64728585880E+03 -0.23810093733E+04  0.25378451760E+04  0.00000000000E+00 0. -1.
         22    1    1    2    0    0  0.86356084023E+03 -0.89328405119E+03 -0.67314783495E+03  0.14130894270E+04  0.00000000000E+00 0. -1.
<mgrwt>
<rscale>  0 0.29886942E+04</rscale>
<asrwt>0</asrwt>
<pdfrwt beam="1">  1        2 0.72089272E+00 0.29886942E+04</pdfrwt>
<pdfrwt beam="2">  1       -2 0.73317159E-01 0.29886942E+04</pdfrwt>
<totfact> 0.11426723E-01</totfact>
</mgrwt>
</event>
<event>
 6    1  0.1817112E-005  0.1632815E+04  0.7818608E-02  0.8800638E-01
         -2   -1    0    0    0  501 -0.00000000000E+00  0.00000000000E+00  0.57726041682E+03  0.57726041682E+03  0.00000000000E+00 0.  1.
          2   -1    0    0  501    0  0.00000000000E+00 -0.00000000000E+00 -0.11546279567E+04  0.11546279567E+04  0.00000000000E+00 0. -1.
         23    2    1    2    0    0  0.52691015171E+03 -0.30250042893E+03  0.28473425088E+03  0.67720343710E+03  0.91597402409E+02 0.  0.
         11    1    3    3    0    0  0.24641630734E+03 -0.10699547154E+03  0.16325728303E+03  0.31435961559E+03  0.00000000000E+00 0. -1.
        -11    1    3    3    0    0  0.28049384437E+03 -0.19550495739E+03  0.12147696785E+03  0.36284382151E+03  0.00000000000E+00 0.  1.
         22    1    1    2    0    0 -0.52691015171E+03  0.30250042893E+03 -0.86210179075E+03  0.10546849364E+04  0.00000000000E+00 0. -1.
<mgrwt>
<rscale>  0 0.16328148E+04</rscale>
<asrwt>0</asrwt>
<pdfrwt beam="1">  1        2 0.17763507E+00 0.16328148E+04</pdfrwt>
<pdfrwt beam="2">  1       -2 0.88809295E-01 0.16328148E+04</pdfrwt>
<totfact> 0.21030224E+01</totfact>
</mgrwt>
</event>
<event>
 6    1  0.1817112E-005  0.1760537E+04  0.7818608E-02  0.8727572E-01
          2   -1    0    0  501    0  0.00000000000E+00  0.00000000000E+00  0.20737881554E+04  0.20737881554E+04  0.00000000000E+00 0. -1.
         -2   -1    0    0    0  501 -0.00000000000E+00 -0.00000000000E+00 -0.37365072616E+03  0.37365072616E+03  0.00000000000E+00 0.  1.
         23    2    1    2    0    0 -0.73821421645E+03  0.14492311567E+03  0.22338749606E+03  0.79010569116E+03  0.91662920459E+02 0.  0.
         11    1    3    3    0    0 -0.29534724463E+03  0.90787995573E+02  0.12443210836E+03  0.33310029216E+03  0.00000000000E+00 0. -1.
        -11    1    3    3    0    0 -0.44286697182E+03  0.54135120096E+02  0.98955387707E+02  0.45700539900E+03  0.00000000000E+00 0.  1.
         22    1    1    2    0    0  0.73821421645E+03 -0.14492311567E+03  0.14767499331E+04  0.16573331904E+04  0.00000000000E+00 0. -1.
<mgrwt>
<rscale>  0 0.17605368E+04</rscale>
<asrwt>0</asrwt>
<pdfrwt beam="1">  1        2 0.31904432E+00 0.17605368E+04</pdfrwt>
<pdfrwt beam="2">  1       -2 0.57484728E-01 0.17605368E+04</pdfrwt>
<totfact> 0.16316983E+01</totfact>
</mgrwt>
</event>
<event>
 6    1  0.1817112E-005  0.2308683E+04  0.7818608E-02  0.8474506E-01
          2   -1    0    0  501    0  0.00000000000E+00  0.00000000000E+00  0.11950909048E+04  0.11950909048E+04  0.00000000000E+00 0.  1.
         -2   -1    0    0    0  501 -0.00000000000E+00 -0.00000000000E+00 -0.11149811063E+04  0.11149811063E+04  0.00000000000E+00 0. -1.
         23    2    1    2    0    0 -0.10053676051E+04 -0.46580850827E+03 -0.27719356436E+03  0.11458524095E+04  0.91650883390E+02 0.  0.
         13    1    3    3    0    0 -0.43138433945E+03 -0.15692242771E+03 -0.91129409394E+02  0.46799750629E+03  0.00000000000E+00 0.  1.
        -13    1    3    3    0    0 -0.57398326567E+03 -0.30888608056E+03 -0.18606415496E+03  0.67785490320E+03  0.00000000000E+00 0. -1.
         22    1    1    2    0    0  0.10053676051E+04  0.46580850827E+03  0.35730336283E+03  0.11642196017E+04  0.00000000000E+00 0. -1.
<mgrwt>
<rscale>  0 0.23086826E+04</rscale>
<asrwt>0</asrwt>
<pdfrwt beam="1">  1        2 0.18386014E+00 0.23086826E+04</pdfrwt>
<pdfrwt beam="2">  1       -2 0.17153555E+00 0.23086826E+04</pdfrwt>
<totfact> 0.35909428E+00</totfact>
</mgrwt>
</event>
<event>
 6    1  0.1817112E-005  0.3976921E+04  0.7818608E-02  0.8009218E-01
         -2   -1    0    0    0  501 -0.00000000000E+00  0.00000000000E+00  0.14161523881E+04  0.14161523881E+04  0.00000000000E+00 0.  1.
          2   -1    0    0  501    0  0.00000000000E+00 -0.00000000000E+00 -0.27920552847E+04  0.27920552847E+04  0.00000000000E+00 0. -1.
         23    2    1    2    0    0  0.95542535868E+03  0.23784521562E+03  0.11379973367E+04  0.15083739102E+04  0.10366268347E+03 0.  0.
         11    1    3    3    0    0  0.72358250935E+03  0.20420987655E+03  0.80820358876E+03  0.11038416383E+04  0.00000000000E+00 0. -1.
        -11    1    3    3    0    0  0.23184284933E+03  0.33635339071E+02  0.32979374794E+03  0.40453227190E+03  0.00000000000E+00 0.  1.
         22    1    1    2    0    0 -0.95542535868E+03 -0.23784521562E+03 -0.25139002334E+04  0.26998337626E+04  0.00000000000E+00 0. -1.
<mgrwt>
<rscale>  0 0.39769213E+04</rscale>
<asrwt>0</asrwt>
<pdfrwt beam="1">  1        2 0.42954696E+00 0.39769213E+04</pdfrwt>
<pdfrwt beam="2">  1       -2 0.21786960E+00 0.39769213E+04</pdfrwt>
<totfact> 0.18837131E-01</totfact>
</mgrwt>
</event>
<event>
 6    1  0.1817112E-005  0.1768820E+04  0.7818608E-02  0.8723058E-01
         -2   -1    0    0    0  501 -0.00000000000E+00  0.00000000000E+00  0.43934296181E+03  0.43934296181E+03  0.00000000000E+00 0.  1.
          2   -1    0    0  501    0  0.00000000000E+00 -0.00000000000E+00 -0.17803433753E+04  0.17803433753E+04  0.00000000000E+00 0. -1.
         23    2    1    2    0    0  0.50503176022E+03  0.58253582000E+03 -0.12104213768E+04  0.14377298516E+04  0.86845588478E+02 0.  0.
         11    1    3    3    0    0  0.20414410240E+03  0.29030915888E+03 -0.51025595852E+03  0.62154273022E+03  0.00000000000E+00 0.  1.
        -11    1    3    3    0    0  0.30088765782E+03  0.29222666112E+03 -0.70016541831E+03  0.81618712137E+03  0.00000000000E+00 0. -1.
         22    1    1    2    0    0 -0.50503176022E+03 -0.58253582000E+03 -0.13057903663E+03  0.78195648550E+03  0.00000000000E+00 0.  1.
<mgrwt>
<rscale>  0 0.17688203E+04</rscale>
<asrwt>0</asrwt>
<pdfrwt beam="1">  1        2 0.27389898E+00 0.17688203E+04</pdfrwt>
<pdfrwt beam="2">  1       -2 0.67591225E-01 0.17688203E+04</pdfrwt>
<totfact> 0.16799217E+01</totfact>
</mgrwt>
</event>
<event>
 6    1  0.1817112E-005  0.8156143E+03  0.7818608E-02  0.9537687E-01
          3   -1    0    0  501    0  0.00000000000E+00  0.00000000000E+00  0.29520467690E+03  0.29520467690E+03  0.00000000000E+00 0. -1.
         -3   -1    0    0    0  501 -0.00000000000E+00 -0.00000000000E+00 -0.56336053371E+03  0.56336053371E+03  0.00000000000E+00 0.  1.
         23    2    1    2    0    0 -0.28516416214E+03 -0.15514327943E+03 -0.38677060598E+03  0.51293897428E+03  0.90149060794E+02 0.  0.
         13    1    3    3    0    0 -0.21359503087E+03 -0.75454455680E+02 -0.29464232499E+03  0.37165886478E+03  0.00000000000E+00 0.  1.
        -13    1    3    3    0    0 -0.71569131267E+02 -0.79688823750E+02 -0.92128280988E+02  0.14128010949E+03  0.00000000000E+00 0. -1.
         22    1    1    2    0    0  0.28516416214E+03  0.15514327943E+03  0.11861474917E+03  0.34562623633E+03  0.00000000000E+00 0. -1.
<mgrwt>
<rscale>  0 0.81561428E+03</rscale>
<asrwt>0</asrwt>
<pdfrwt beam="1">  1        3 0.45416105E-01 0.81561428E+03</pdfrwt>
<pdfrwt beam="2">  1       -3 0.86670849E-01 0.81561428E+03</pdfrwt>
<totfact> 0.15424738E+01</totfact>
</mgrwt>
</event>
<event>
 6    1  0.1817112E-005  0.3309271E+04  0.7818608E-02  0.8160540E-01
         -2   -1    0    0    0  501 -0.00000000000E+00  0.00000000000E+00  0.80547111291E+03  0.80547111291E+03  0.00000000000E+00 0.  1.
          2   -1    0    0  501    0  0.00000000000E+00 -0.00000000000E+00 -0.33990282217E+04  0.33990282217E+04  0.00000000000E+00 0. -1.
         23    2    1    2    0    0 -0.22719595016E+03  0.15612249210E+04 -0.66932951542E+03  0.17161880428E+04  0.90874334091E+02 0.  0.
         13    1    3    3    0    0 -0.61799799850E+02  0.39013000923E+03 -0.21055101271E+03  0.44760738188E+03  0.00000000000E+00 0. -1.
        -13    1    3    3    0    0 -0.16539615031E+03  0.11710949117E+04 -0.45877850271E+03  0.12685806610E+04  0.00000000000E+00 0.  1.
         22    1    1    2    0    0  0.22719595016E+03 -0.15612249210E+04 -0.19242275933E+04  0.24883112917E+04  0.00000000000E+00 0.  1.
<mgrwt>
<rscale>  0 0.33092712E+04</rscale>
<asrwt>0</asrwt>
<pdfrwt beam="1">  1        2 0.52292742E+00 0.33092712E+04</pdfrwt>
<pdfrwt beam="2">  1       -2 0.12391863E+00 0.33092712E+04</pdfrwt>
<totfact> 0.39002191E-01</totfact>
</mgrwt>
</event>
<event>
 6    1  0.1817112E-005  0.3538348E+04  0.7818608E-02  0.8104762E-01
          2   -1    0    0  501    0  0.00000000000E+00  0.00000000000E+00  0.27175546523E+04  0.27175546523E+04  0.00000000000E+00 0. -1.
         -2   -1    0    0    0  501 -0.00000000000E+00 -0.00000000000E+00 -0.11517623878E+04  0.11517623878E+04  0.00000000000E+00 0.  1.
         23    2    1    2    0    0  0.16977424472E+04  0.43106757290E+03  0.10460599148E+04  0.20422236148E+04  0.91034487589E+02 0.  0.
         13    1    3    3    0    0  0.13265774431E+04  0.29787387386E+03  0.81570194428E+03  0.15855302643E+04  0.00000000000E+00 0.  1.
        -13    1    3    3    0    0  0.37116500412E+03  0.13319369904E+03  0.23035797053E+03  0.45669335044E+03  0.00000000000E+00 0. -1.
         22    1    1    2    0    0 -0.16977424472E+04 -0.43106757290E+03  0.51973234972E+03  0.18270934253E+04  0.00000000000E+00 0.  1.
<mgrwt>
<rscale>  0 0.35383483E+04</rscale>
<asrwt>0</asrwt>
<pdfrwt beam="1">  1        2 0.41808533E+00 0.35383483E+04</pdfrwt>
<pdfrwt beam="2">  1       -2 0.17719421E+00 0.35383483E+04</pdfrwt>
<totfact> 0.40257472E-01</totfact>
</mgrwt>
</event>
<event>
 6    1  0.1817112E-005  0.2740291E+04  0.7818608E-02  0.8322049E-01
          2   -1    0    0  501    0  0.00000000000E+00  0.00000000000E+00  0.26462146262E+04  0.26462146262E+04  0.00000000000E+00 0. -1.
         -2   -1    0    0    0  501 -0.00000000000E+00 -0.00000000000E+00 -0.70942775083E+03  0.70942775083E+03  0.00000000000E+00 0.  1.
         23    2    1    2    0    0 -0.13656148304E+04  0.35573037462E+02  0.10704277667E+04  0.17380060115E+04  0.93166445008E+02 0.  0.
         13    1    3    3    0    0 -0.32982317605E+03  0.38573393661E+02  0.29393043635E+03  0.44347078322E+03  0.00000000000E+00 0. -1.
        -13    1    3    3    0    0 -0.10357916543E+04 -0.30003561983E+01  0.77649733036E+03  0.12945352283E+04  0.00000000000E+00 0.  1.
         22    1    1    2    0    0  0.13656148304E+04 -0.35573037462E+02  0.86635910869E+03  0.16176363655E+04  0.00000000000E+00 0.  1.
<mgrwt>
<rscale>  0 0.27402906E+04</rscale>
<asrwt>0</asrwt>
<pdfrwt beam="1">  1        2 0.40710994E+00 0.27402906E+04</pdfrwt>
<pdfrwt beam="2">  1       -2 0.10914273E+00 0.27402906E+04</pdfrwt>
<totfact> 0.16729390E+00</totfact>
</mgrwt>
</event>
<event>
 6    1  0.1817112E-005  0.3471591E+04  0.7818608E-02  0.8120556E-01
          2   -1    0    0  501    0  0.00000000000E+00  0.00000000000E+00  0.19913833745E+04  0.19913833745E+04  0.00000000000E+00 0. -1.
         -2   -1    0    0    0  501 -0.00000000000E+00 -0.00000000000E+00 -0.15130116765E+04  0.15130116765E+04  0.00000000000E+00 0.  1.
         23    2    1    2    0    0 -0.15507954851E+04  0.51462584237E+03  0.82724024709E+03  0.18336121031E+04  0.89445648001E+02 0.  0.
         11    1    3    3    0    0 -0.98207192853E+03  0.28672791753E+03  0.54216478299E+03  0.11578518141E+04  0.00000000000E+00 0. -1.
        -11    1    3    3    0    0 -0.56872355659E+03  0.22789792484E+03  0.28507546410E+03  0.67576028901E+03  0.00000000000E+00 0.  1.
         22    1    1    2    0    0  0.15507954851E+04 -0.51462584237E+03 -0.34886854910E+03  0.16707829479E+04  0.00000000000E+00 0.  1.
<mgrwt>
<rscale>  0 0.34715912E+04</rscale>
<asrwt>0</asrwt>
<pdfrwt beam="1">  1        2 0.30636667E+00 0.34715912E+04</pdfrwt>
<pdfrwt beam="2">  1       -2 0.23277103E+00 0.34715912E+04</pdfrwt>
<totfact> 0.45712781E-01</totfact>
</mgrwt>
</event>
<event>
 6    1  0.1817112E-005  0.2425685E+04  0.7818608E-02  0.8429950E-01
         -2   -1    0    0    0  501 -0.00000000000E+00  0.00000000000E+00  0.91289203648E+03  0.91289203648E+03  0.00000000000E+00 0.  1.
          2   -1    0    0  501    0  0.00000000000E+00 -0.00000000000E+00 -0.16113483511E+04  0.16113483511E+04  0.00000000000E+00 0. -1.
         23    2    1    2    0    0  0.14538145708E+03 -0.23452656312E+03 -0.15769209071E+04  0.16034589168E+04  0.90898149076E+02 0.  0.
         11    1    3    3    0    0  0.87005007224E+02 -0.11827049130E+03 -0.10738082707E+04  0.10837997890E+04  0.00000000000E+00 0.  1.
        -11    1    3    3    0    0  0.58376449855E+02 -0.11625607182E+03 -0.50311263647E+03  0.51965912780E+03  0.00000000000E+00 0. -1.
         22    1    1    2    0    0 -0.14538145708E+03  0.23452656312E+03  0.87846459247E+03  0.92078147087E+03  0.00000000000E+00 0.  1.
<mgrwt>
<rscale>  0 0.24256851E+04</rscale>
<asrwt>0</asrwt>
<pdfrwt beam="1">  1        2 0.24789974E+00 0.24256851E+04</pdfrwt>
<pdfrwt beam="2">  1       -2 0.14044493E+00 0.24256851E+04</pdfrwt>
<totfact> 0.35134103E+00</totfact>
</mgrwt>
</event>
<event>
 6    1  0.1817112E-005  0.2657369E+04  0.7818608E-02  0.8348971E-01
         -1   -1    0    0    0  501 -0.00000000000E+00  0.00000000000E+00  0.55612127000E+03  0.55612127000E+03  0.00000000000E+00 0.  1.
          1   -1    0    0  501    0  0.00000000000E+00 -0.00000000000E+00 -0.31744909699E+04  0.31744909699E+04  0.00000000000E+00 0. -1.
         23    2    1    2    0    0 -0.53584395441E+03  0.59302147421E+03 -0.27980191430E+04  0.29114192622E+04  0.92993457078E+02 0.  0.
         11    1    3    3    0    0 -0.38306215470E+03  0.41701111086E+03 -0.21266684975E+04  0.22007620906E+04  0.00000000000E+00 0. -1.
        -11    1    3    3    0    0 -0.15278179971E+03  0.17601036335E+03 -0.67135064549E+03  0.71065717159E+03  0.00000000000E+00 0.  1.
         22    1    1    2    0    0  0.53584395441E+03 -0.59302147421E+03  0.17964944312E+03  0.81919297774E+03  0.00000000000E+00 0.  1.
<mgrwt>
<rscale>  0 0.26573686E+04</rscale>
<asrwt>0</asrwt>
<pdfrwt beam="1">  1        1 0.48838322E+00 0.26573686E+04</pdfrwt>
<pdfrwt beam="2">  1       -1 0.85557119E-01 0.26573686E+04</pdfrwt>
<totfact> 0.52531727E-01</totfact>
</mgrwt>
</event>
<event>
 6    1  0.1817112E-005  0.8075146E+03  0.7818608E-02  0.9549203E-01
          1   -1    0    0  501    0  0.00000000000E+00  0.00000000000E+00  0.40221816530E+03  0.40221816530E+03  0.00000000000E+00 0. -1.
         -1   -1    0    0    0  501 -0.00000000000E+00 -0.00000000000E+00 -0.40530228053E+03  0.40530228053E+03  0.00000000000E+00 0.  1.
         23    2    1    2    0    0  0.48618419027E-01 -0.37757996490E+03 -0.12501406408E+03  0.41074148383E+03  0.10253496022E+03 0.  0.
         11    1    3    3    0    0  0.18155819700E+02 -0.59824615928E+02  0.12964423780E+02  0.63848999552E+02  0.00000000000E+00 0. -1.
        -11    1    3    3    0    0 -0.18107201281E+02 -0.31775534897E+03 -0.13797848786E+03  0.34689248428E+03  0.00000000000E+00 0.  1.
         22    1    1    2    0    0 -0.48618419027E-01  0.37757996490E+03  0.12192994884E+03  0.39677896200E+03  0.00000000000E+00 0. -1.
<mgrwt>
<rscale>  0 0.80751456E+03</rscale>
<asrwt>0</asrwt>
<pdfrwt beam="1">  1        1 0.61879718E-01 0.80751456E+03</pdfrwt>
<pdfrwt beam="2">  1       -1 0.62354197E-01 0.80751456E+03</pdfrwt>
<totfact> 0.15721899E+02</totfact>
</mgrwt>
</event>
<event>
 6    1  0.1817112E-005  0.1686496E+04  0.7818608E-02  0.8769104E-01
         -2   -1    0    0    0  501 -0.00000000000E+00  0.00000000000E+00  0.68048110029E+03  0.68048110029E+03  0.00000000000E+00 0. -1.
          2   -1    0    0  501    0  0.00000000000E+00 -0.00000000000E+00 -0.10449481107E+04  0.10449481107E+04  0.00000000000E+00 0.  1.
         23    2    1    2    0    0 -0.61079192723E+03 -0.64254977452E+02 -0.77028409335E+03  0.98930219387E+03  0.90475222204E+02 0.  0.
         11    1    3    3    0    0 -0.39080251114E+03 -0.40032624762E+02 -0.55968746878E+03  0.68379768680E+03  0.00000000000E+00 0. -1.
        -11    1    3    3    0    0 -0.21998941610E+03 -0.24222352690E+02 -0.21059662456E+03  0.30550450707E+03  0.00000000000E+00 0.  1.
         22    1    1    2    0    0  0.61079192723E+03  0.64254977452E+02  0.40581708294E+03  0.73612701710E+03  0.00000000000E+00 0. -1.
<mgrwt>
<rscale>  0 0.16864963E+04</rscale>
<asrwt>0</asrwt>
<pdfrwt beam="1">  1        2 0.16076125E+00 0.16864963E+04</pdfrwt>
<pdfrwt beam="2">  1       -2 0.10468940E+00 0.16864963E+04</pdfrwt>
<totfact> 0.16632082E+01</totfact>
</mgrwt>
</event>
<event>
 6    1  0.1817112E-005  0.2462651E+04  0.7818608E-02  0.8416414E-01
         -2   -1    0    0    0  501 -0.00000000000E+00  0.00000000000E+00  0.10244409502E+04  0.10244409502E+04  0.00000000000E+00 0.  1.
          2   -1    0    0  501    0  0.00000000000E+00 -0.00000000000E+00 -0.14799897521E+04  0.14799897521E+04  0.00000000000E+00 0. -1.
         23    2    1    2    0    0  0.12261294151E+04  0.39402148001E+02 -0.14041798471E+03  0.12378394882E+04  0.87083386265E+02 0.  0.
         13    1    3    3    0    0  0.40170347305E+03 -0.10865873404E+02 -0.12574685734E+02  0.40204709946E+03  0.00000000000E+00 0. -1.
        -13    1    3    3    0    0  0.82442594207E+03  0.50268021405E+02 -0.12784329898E+03  0.83579238871E+03  0.00000000000E+00 0.  1.
         22    1    1    2    0    0 -0.12261294151E+04 -0.39402148001E+02 -0.31513081718E+03  0.12665912142E+04  0.00000000000E+00 0.  1.
<mgrwt>
<rscale>  0 0.24626507E+04</rscale>
<asrwt>0</asrwt>
<pdfrwt beam="1">  1        2 0.22769073E+00 0.24626507E+04</pdfrwt>
<pdfrwt beam="2">  1       -2 0.15760630E+00 0.24626507E+04</pdfrwt>
<totfact> 0.30593961E+00</totfact>
</mgrwt>
</event>
<event>
 6    1  0.1817112E-005  0.2071538E+04  0.7818608E-02  0.8573886E-01
         -2   -1    0    0    0  501 -0.00000000000E+00  0.00000000000E+00  0.43074324077E+03  0.43074324077E+03  0.00000000000E+00 0.  1.
          2   -1    0    0  501    0  0.00000000000E+00 -0.00000000000E+00 -0.24906200420E+04  0.24906200420E+04  0.00000000000E+00 0. -1.
         23    2    1    2    0    0  0.61893070342E+02  0.31343949885E+03 -0.24184248585E+04  0.24411219050E+04  0.90676828806E+02 0.  0.
         13    1    3    3    0    0  0.14792766578E+02  0.13795855092E+03 -0.74034199579E+03  0.75323147734E+03  0.00000000000E+00 0. -1.
        -13    1    3    3    0    0  0.47100303765E+02  0.17548094793E+03 -0.16780828627E+04  0.16878904276E+04  0.00000000000E+00 0.  1.
         22    1    1    2    0    0 -0.61893070342E+02 -0.31343949885E+03  0.35854805724E+03  0.48024137780E+03  0.00000000000E+00 0.  1.
<mgrwt>
<rscale>  0 0.20715383E+04</rscale>
<asrwt>0</asrwt>
<pdfrwt beam="1">  1        2 0.38317232E+00 0.20715383E+04</pdfrwt>
<pdfrwt beam="2">  1       -2 0.66268190E-01 0.20715383E+04</pdfrwt>
<totfact> 0.68205464E+00</totfact>
</mgrwt>
</event>
<event>
 6    1  0.1817112E-005  0.3315917E+04  0.7818608E-02  0.8158857E-01
          1   -1    0    0  501    0  0.00000000000E+00  0.00000000000E+00  0.12227762844E+04  0.12227762844E+04  0.00000000000E+00 0. -1.
         -1   -1    0    0    0  501 -0.00000000000E+00 -0.00000000000E+00 -0.22480204493E+04  0.22480204493E+04  0.00000000000E+00 0.  1.
         23    2    1    2    0    0  0.36702257433E+03  0.16102820208E+04 -0.37727433703E+03  0.16966550667E+04  0.92675420920E+02 0.  0.
         13    1    3    3    0    0  0.33599514719E+03  0.13238934363E+04 -0.30038291932E+03  0.13985050832E+04  0.00000000000E+00 0. -1.
        -13    1    3    3    0    0  0.31027427148E+02  0.28638858450E+03 -0.76891417701E+02  0.29814998354E+03  0.00000000000E+00 0.  1.
         22    1    1    2    0    0 -0.36702257433E+03 -0.16102820208E+04 -0.64796982794E+03  0.17741416669E+04  0.00000000000E+00 0.  1.
<mgrwt>
<rscale>  0 0.33159168E+04</rscale>
<asrwt>0</asrwt>
<pdfrwt beam="1">  1        1 0.18811943E+00 0.33159168E+04</pdfrwt>
<pdfrwt beam="2">  1       -1 0.34584930E+00 0.33159168E+04</pdfrwt>
<totfact> 0.14098659E-01</totfact>
</mgrwt>
</event>
<event>
 6    1  0.1817112E-005  0.3180342E+04  0.7818608E-02  0.8194028E-01
         -1   -1    0    0    0  501 -0.00000000000E+00  0.00000000000E+00  0.96353671367E+03  0.96353671367E+03  0.00000000000E+00 0.  1.
          1   -1    0    0  501    0  0.00000000000E+00 -0.00000000000E+00 -0.26243354957E+04  0.26243354957E+04  0.00000000000E+00 0. -1.
         23    2    1    2    0    0  0.29566991829E+03  0.74778838802E+03 -0.23770299518E+04  0.25110271591E+04  0.91530478589E+02 0.  0.
         11    1    3    3    0    0  0.50980530499E+02  0.89309086896E+02 -0.39604438844E+03  0.40917757161E+03  0.00000000000E+00 0. -1.
        -11    1    3    3    0    0  0.24468938779E+03  0.65847930112E+03 -0.19809855633E+04  0.21018495875E+04  0.00000000000E+00 0.  1.
         22    1    1    2    0    0 -0.29566991829E+03 -0.74778838802E+03  0.71623116970E+03  0.10768450503E+04  0.00000000000E+00 0.  1.
<mgrwt>
<rscale>  0 0.31803419E+04</rscale>
<asrwt>0</asrwt>
<pdfrwt beam="1">  1        1 0.40374392E+00 0.31803419E+04</pdfrwt>
<pdfrwt beam="2">  1       -1 0.14823642E+00 0.31803419E+04</pdfrwt>
<totfact> 0.33473723E-01</totfact>
</mgrwt>
</event>
<event>
 6    1  0.1817112E-005  0.1761504E+04  0.7818608E-02  0.8727043E-01
         -2   -1    0    0    0  501 -0.00000000000E+00  0.00000000000E+00  0.17648908859E+04  0.17648908859E+04  0.00000000000E+00 0.  1.
          2   -1    0    0  501    0  0.00000000000E+00 -0.00000000000E+00 -0.43953100116E+03  0.43953100116E+03  0.00000000000E+00 0. -1.
         23    2    1    2    0    0 -0.26507814800E+03  0.77847465228E+03  0.27783403783E+03  0.87265628879E+03  0.89710852098E+02 0.  0.
         11    1    3    3    0    0 -0.16533840306E+03  0.59939463583E+03  0.19597164923E+03  0.65193220836E+03  0.00000000000E+00 0. -1.
        -11    1    3    3    0    0 -0.99739744949E+02  0.17908001645E+03  0.81862388598E+02  0.22072408043E+03  0.00000000000E+00 0.  1.
         22    1    1    2    0    0  0.26507814800E+03 -0.77847465228E+03  0.10475258469E+04  0.13317655983E+04  0.00000000000E+00 0.  1.
<mgrwt>
<rscale>  0 0.17615042E+04</rscale>
<asrwt>0</asrwt>
<pdfrwt beam="1">  1        2 0.67620155E-01 0.17615042E+04</pdfrwt>
<pdfrwt beam="2">  1       -2 0.27152167E+00 0.17615042E+04</pdfrwt>
<totfact> 0.32119805E+00</totfact>
</mgrwt>
</event>
<event>
 6    1  0.1817112E-005  0.1864136E+04  0.7818608E-02  0.8672917E-01
         -2   -1    0    0    0  501 -0.00000000000E+00  0.00000000000E+00  0.10225772750E+04  0.10225772750E+04  0.00000000000E+00 0.  1.
          2   -1    0    0  501    0  0.00000000000E+00 -0.00000000000E+00 -0.84956965775E+03  0.84956965775E+03  0.00000000000E+00 0. -1.
         23    2    1    2    0    0  0.70109244737E+03  0.48356558443E+03 -0.28787706057E+03  0.90375600939E+03  0.92387381725E+02 0.  0.
         13    1    3    3    0    0  0.38918807779E+03  0.24692283987E+03 -0.11070509825E+03  0.47401884722E+03  0.00000000000E+00 0.  1.
        -13    1    3    3    0    0  0.31190436958E+03  0.23664274456E+03 -0.17717196232E+03  0.42973716217E+03  0.00000000000E+00 0. -1.
         22    1    1    2    0    0 -0.70109244737E+03 -0.48356558443E+03  0.46088467784E+03  0.96839092337E+03  0.00000000000E+00 0.  1.
<mgrwt>
<rscale>  0 0.18641359E+04</rscale>
<asrwt>0</asrwt>
<pdfrwt beam="1">  1        2 0.13070302E+00 0.18641359E+04</pdfrwt>
<pdfrwt beam="2">  1       -2 0.15731958E+00 0.18641359E+04</pdfrwt>
<totfact> 0.78644834E+00</totfact>
</mgrwt>
</event>
<event>
 6    1  0.2526470E-005  0.3195974E+04  0.7818608E-02  0.8189881E-01
         -2   -1    0    0    0  501 -0.00000000000E+00  0.00000000000E+00  0.16462850476E+04  0.16462850476E+04  0.00000000000E+00 0.  1.
          2   -1    0    0  501    0  0.00000000000E+00 -0.00000000000E+00 -0.15511058564E+04  0.15511058564E+04  0.00000000000E+00 0. -1.
         23    2    1    2    0    0  0.42348838917E+03 -0.82741609183E+03 -0.12511709172E+04  0.15613534903E+04  0.91849076917E+02 0.  0.
         13    1    3    3    0    0  0.22543314813E+03 -0.37508848556E+03 -0.52981512430E+03  0.68717941050E+03  0.00000000000E+00 0. -1.
        -13    1    3    3    0    0  0.19805524104E+03 -0.45232760627E+03 -0.72135579286E+03  0.87417407980E+03  0.00000000000E+00 0.  1.
         22    1    1    2    0    0 -0.42348838917E+03  0.82741609183E+03  0.13463501083E+04  0.16360374137E+04  0.00000000000E+00 0.  1.
<mgrwt>
<rscale>  0 0.31959740E+04</rscale>
<asrwt>0</asrwt>
<pdfrwt beam="1">  1        2 0.23863167E+00 0.31959740E+04</pdfrwt>
<pdfrwt beam="2">  1       -2 0.25327462E+00 0.31959740E+04</pdfrwt>
<totfact> 0.61389857E-01</totfact>
</mgrwt>
</event>
<event>
 6    1  0.1817112E-005  0.2707269E+04  0.7818608E-02  0.8332650E-01
         -2   -1    0    0    0  501 -0.00000000000E+00  0.00000000000E+00  0.11677651103E+04  0.11677651103E+04  0.00000000000E+00 0.  1.
          2   -1    0    0  501    0  0.00000000000E+00 -0.00000000000E+00 -0.15690885233E+04  0.15690885233E+04  0.00000000000E+00 0. -1.
         23    2    1    2    0    0 -0.80097386528E+03 -0.73995785805E+03  0.60729193926E+03  0.12514574934E+04  0.90805251772E+02 0.  0.
         11    1    3    3    0    0 -0.55778374049E+03 -0.45760940466E+03  0.40893577259E+03  0.82931148219E+03  0.00000000000E+00 0.  1.
        -11    1    3    3    0    0 -0.24319012480E+03 -0.28234845338E+03  0.19835616667E+03  0.42214601121E+03  0.00000000000E+00 0. -1.
         22    1    1    2    0    0  0.80097386528E+03  0.73995785805E+03 -0.10086153522E+04  0.14853961402E+04  0.00000000000E+00 0. -1.
<mgrwt>
<rscale>  0 0.27072693E+04</rscale>
<asrwt>0</asrwt>
<pdfrwt beam="1">  1        2 0.24139823E+00 0.27072693E+04</pdfrwt>
<pdfrwt beam="2">  1       -2 0.17965617E+00 0.27072693E+04</pdfrwt>
<totfact> 0.18555725E+00</totfact>
</mgrwt>
</event>
<event>
 6    1  0.1817112E-005  0.1910691E+04  0.7818608E-02  0.8649553E-01
          2   -1    0    0  501    0  0.00000000000E+00  0.00000000000E+00  0.81521556178E+03  0.81521556178E+03  0.00000000000E+00 0. -1.
         -2   -1    0    0    0  501 -0.00000000000E+00 -0.00000000000E+00 -0.11195628975E+04  0.11195628975E+04  0.00000000000E+00 0.  1.
         23    2    1    2    0    0  0.35336153072E+02 -0.95204297537E+03 -0.12345282667E+03  0.96505824494E+03  0.91991005253E+02 0.  0.
         11    1    3    3    0    0 -0.28936334435E+02 -0.39734737978E+03 -0.63770243810E+02  0.40347105926E+03  0.00000000000E+00 0.  1.
        -11    1    3    3    0    0  0.64272487507E+02 -0.55469559560E+03 -0.59682582864E+02  0.56158718568E+03  0.00000000000E+00 0. -1.
         22    1    1    2    0    0 -0.35336153072E+02  0.95204297537E+03 -0.18089450904E+03  0.96972021433E+03  0.00000000000E+00 0.  1.
<mgrwt>
<rscale>  0 0.19106911E+04</rscale>
<asrwt>0</asrwt>
<pdfrwt beam="1">  1        2 0.12541778E+00 0.19106911E+04</pdfrwt>
<pdfrwt beam="2">  1       -2 0.17224045E+00 0.19106911E+04</pdfrwt>
<totfact> 0.64551714E+00</totfact>
</mgrwt>
</event>
<event>
 6    1  0.1817112E-005  0.7296053E+03  0.7818608E-02  0.9667901E-01
         -1   -1    0    0    0  501 -0.00000000000E+00  0.00000000000E+00  0.95352634389E+02  0.95352634389E+02  0.00000000000E+00 0.  1.
          1   -1    0    0  501    0  0.00000000000E+00 -0.00000000000E+00 -0.13956718065E+04  0.13956718065E+04  0.00000000000E+00 0. -1.
         23    2    1    2    0    0  0.11876698691E+03  0.22387672726E+03 -0.14140881029E+03  0.30472784521E+03  0.92931274765E+02 0.  0.
         13    1    3    3    0    0  0.11987185803E+03  0.13555023152E+03 -0.10480679285E+03  0.20911143307E+03  0.00000000000E+00 0.  1.
        -13    1    3    3    0    0 -0.11048711192E+01  0.88326495743E+02 -0.36602017448E+02  0.95616412146E+02  0.00000000000E+00 0. -1.
         22    1    1    2    0    0 -0.11876698691E+03 -0.22387672726E+03 -0.11589103618E+04  0.11862965956E+04  0.00000000000E+00 0.  1.
<mgrwt>
<rscale>  0 0.72960533E+03</rscale>
<asrwt>0</asrwt>
<pdfrwt beam="1">  1        1 0.21471874E+00 0.72960533E+03</pdfrwt>
<pdfrwt beam="2">  1       -1 0.14669636E-01 0.72960533E+03</pdfrwt>
<totfact> 0.26855671E+02</totfact>
</mgrwt>
</event>
<event>
 6    1  0.1817112E-005  0.3477429E+04  0.7818608E-02  0.8119160E-01
          2   -1    0    0  501    0  0.00000000000E+00  0.00000000000E+00  0.15694241699E+04  0.15694241699E+04  0.00000000000E+00 0. -1.
         -2   -1    0    0    0  501 -0.00000000000E+00 -0.00000000000E+00 -0.19262656456E+04  0.19262656456E+04  0.00000000000E+00 0.  1.
         23    2    1    2    0    0  0.12683762066E+04  0.10702596175E+04 -0.69572251237E+03  0.18018556420E+04  0.91761049723E+02 0.  0.
         11    1    3    3    0    0  0.25305822992E+03  0.21146781608E+03 -0.99195733217E+02  0.34437900409E+03  0.00000000000E+00 0.  1.
        -11    1    3    3    0    0  0.10153179766E+04  0.85879180138E+03 -0.59652677915E+03  0.14574766379E+04  0.00000000000E+00 0. -1.
         22    1    1    2    0    0 -0.12683762066E+04 -0.10702596175E+04  0.33888103671E+03  0.16938341735E+04  0.00000000000E+00 0. -1.
<mgrwt>
<rscale>  0 0.34774289E+04</rscale>
<asrwt>0</asrwt>
<pdfrwt beam="1">  1        2 0.24144987E+00 0.34774289E+04</pdfrwt>
<pdfrwt beam="2">  1       -2 0.29634856E+00 0.34774289E+04</pdfrwt>
<totfact> 0.31953918E-01</totfact>
</mgrwt>
</event>
<event>
 6    1  0.2259105E-005  0.2919803E+04  0.7818608E-02  0.8267010E-01
          2   -1    0    0  501    0  0.00000000000E+00  0.00000000000E+00  0.17906992346E+04  0.17906992346E+04  0.00000000000E+00 0. -1.
         -2   -1    0    0    0  501 -0.00000000000E+00 -0.00000000000E+00 -0.11902126649E+04  0.11902126649E+04  0.00000000000E+00 0.  1.
         23    2    1    2    0    0 -0.58336957387E+03 -0.13503307608E+02 -0.10640689231E+04  0.12170390618E+04  0.91864060397E+02 0.  0.
         11    1    3    3    0    0 -0.37383899830E+03  0.74803503343E+01 -0.59295418915E+03  0.70100372518E+03  0.00000000000E+00 0.  1.
        -11    1    3    3    0    0 -0.20953057557E+03 -0.20983657942E+02 -0.47111473400E+03  0.51603533657E+03  0.00000000000E+00 0. -1.
         22    1    1    2    0    0  0.58336957387E+03  0.13503307608E+02  0.16645554928E+04  0.17638728378E+04  0.00000000000E+00 0. -1.
<mgrwt>
<rscale>  0 0.29198034E+04</rscale>
<asrwt>0</asrwt>
<pdfrwt beam="1">  1        2 0.27549219E+00 0.29198034E+04</pdfrwt>
<pdfrwt beam="2">  1       -2 0.18310964E+00 0.29198034E+04</pdfrwt>
<totfact> 0.12988877E+00</totfact>
</mgrwt>
</event>
<event>
 6    1  0.1817112E-005  0.4509052E+04  0.7818608E-02  0.7909054E-01
          2   -1    0    0  501    0  0.00000000000E+00  0.00000000000E+00  0.33587791836E+04  0.33587791836E+04  0.00000000000E+00 0. -1.
         -2   -1    0    0    0  501 -0.00000000000E+00 -0.00000000000E+00 -0.15133143015E+04  0.15133143015E+04  0.00000000000E+00 0.  1.
         23    2    1    2    0    0 -0.13688618099E+03  0.12917976372E+04 -0.10662822413E+04  0.16837161121E+04  0.10228961710E+03 0.  0.
         11    1    3    3    0    0 -0.42734633087E+01  0.37552762833E+03 -0.26952761609E+03  0.46226009774E+03  0.00000000000E+00 0. -1.
        -11    1    3    3    0    0 -0.13261271768E+03  0.91627000890E+03 -0.79675462521E+03  0.12214560143E+04  0.00000000000E+00 0.  1.
         22    1    1    2    0    0  0.13688618099E+03 -0.12917976372E+04  0.29117471234E+04  0.31883773730E+04  0.00000000000E+00 0. -1.
<mgrwt>
<rscale>  0 0.45090525E+04</rscale>
<asrwt>0</asrwt>
<pdfrwt beam="1">  1        2 0.51673526E+00 0.45090525E+04</pdfrwt>
<pdfrwt beam="2">  1       -2 0.23281759E+00 0.45090525E+04</pdfrwt>
<totfact> 0.63127298E-02</totfact>
</mgrwt>
</event>
<event>
 6    1  0.1817112E-005  0.5849321E+04  0.7818608E-02  0.7709370E-01
          1   -1    0    0  501    0  0.00000000000E+00  0.00000000000E+00  0.23608489042E+04  0.23608489042E+04  0.00000000000E+00 0. -1.
         -1   -1    0    0    0  501 -0.00000000000E+00 -0.00000000000E+00 -0.36231204997E+04  0.36231204997E+04  0.00000000000E+00 0.  1.
         23    2    1    2    0    0 -0.29161232220E+04 -0.22104805709E+01 -0.85022047351E+03  0.30388776126E+04  0.90126345907E+02 0.  0.
         11    1    3    3    0    0 -0.90104431419E+03 -0.39919120261E+02 -0.27742206410E+03  0.94362990306E+03  0.00000000000E+00 0. -1.
        -11    1    3    3    0    0 -0.20150789078E+04  0.37708639690E+02 -0.57279840941E+03  0.20952477095E+04  0.00000000000E+00 0.  1.
         22    1    1    2    0    0  0.29161232220E+04  0.22104805709E+01 -0.41205112193E+03  0.29450917913E+04  0.00000000000E+00 0.  1.
<mgrwt>
<rscale>  0 0.58493213E+04</rscale>
<asrwt>0</asrwt>
<pdfrwt beam="1">  1        1 0.36320752E+00 0.58493213E+04</pdfrwt>
<pdfrwt beam="2">  1       -1 0.55740316E+00 0.58493213E+04</pdfrwt>
<totfact> 0.79812451E-04</totfact>
</mgrwt>
</event>
<event>
 6    1  0.1817112E-005  0.3255158E+04  0.7818608E-02  0.8174400E-01
         -2   -1    0    0    0  501 -0.00000000000E+00  0.00000000000E+00  0.21596996566E+04  0.21596996566E+04  0.00000000000E+00 0.  1.
          2   -1    0    0  501    0  0.00000000000E+00 -0.00000000000E+00 -0.12265657410E+04  0.12265657410E+04  0.00000000000E+00 0. -1.
         23    2    1    2    0    0  0.78219518810E+03 -0.13451410279E+04  0.95890034820E+03  0.18300206848E+04  0.90841244659E+02 0.  0.
         11    1    3    3    0    0  0.31568449300E+03 -0.54640431724E+03  0.44151371354E+03  0.77016150012E+03  0.00000000000E+00 0.  1.
        -11    1    3    3    0    0  0.46651069510E+03 -0.79873671062E+03  0.51738663466E+03  0.10598591846E+04  0.00000000000E+00 0. -1.
         22    1    1    2    0    0 -0.78219518810E+03  0.13451410279E+04 -0.25766432550E+02  0.15562447128E+04  0.00000000000E+00 0. -1.
<mgrwt>
<rscale>  0 0.32551581E+04</rscale>
<asrwt>0</asrwt>
<pdfrwt beam="1">  1        2 0.18870242E+00 0.32551581E+04</pdfrwt>
<pdfrwt beam="2">  1       -2 0.33226149E+00 0.32551581E+04</pdfrwt>
<totfact> 0.30756342E-01</totfact>
</mgrwt>
</event>
<event>
 6    1  0.1817112E-005  0.3611136E+04  0.7818608E-02  0.8087946E-01
         -4   -1    0    0    0  501 -0.00000000000E+00  0.00000000000E+00  0.33007468848E+04  0.33007468848E+04  0.00000000000E+00 0.  1.
          4   -1    0    0  501    0  0.00000000000E+00 -0.00000000000E+00 -0.98767804254E+03  0.98767804254E+03  0.00000000000E+00 0. -1.
         23    2    1    2    0    0  0.41728214393E+03  0.15622502645E+03  0.32338076115E+04  0.32655414893E+04  0.87857290649E+02 0.  0.
         13    1    3    3    0    0  0.13072998544E+03  0.31924405717E+02  0.72708765174E+03  0.73943623801E+03  0.00000000000E+00 0.  1.
        -13    1    3    3    0    0  0.28655215849E+03  0.12430062073E+03  0.25067199598E+04  0.25261052513E+04  0.00000000000E+00 0. -1.
         22    1    1    2    0    0 -0.41728214393E+03 -0.15622502645E+03 -0.92073876927E+03  0.10228834380E+04  0.00000000000E+00 0. -1.
<mgrwt>
<rscale>  0 0.36111357E+04</rscale>
<asrwt>0</asrwt>
<pdfrwt beam="1">  1        4 0.15195047E+00 0.36111357E+04</pdfrwt>
<pdfrwt beam="2">  1       -4 0.50780721E+00 0.36111357E+04</pdfrwt>
<totfact> 0.48068171E-04</totfact>
</mgrwt>
</event>
<event>
 6    1  0.1817112E-005  0.1970961E+04  0.7818608E-02  0.8620319E-01
          2   -1    0    0  501    0  0.00000000000E+00  0.00000000000E+00  0.90543199879E+03  0.90543199879E+03  0.00000000000E+00 0. -1.
         -2   -1    0    0    0  501 -0.00000000000E+00 -0.00000000000E+00 -0.10726056243E+04  0.10726056243E+04  0.00000000000E+00 0.  1.
         23    2    1    2    0    0  0.64140182074E+03  0.73101394060E+03  0.62458691361E+02  0.97878356233E+03  0.91315369791E+02 0.  0.
         13    1    3    3    0    0  0.17894523035E+03  0.26261642299E+03  0.20879045451E+01  0.31779417936E+03  0.00000000000E+00 0.  1.
        -13    1    3    3    0    0  0.46245659039E+03  0.46839751761E+03  0.60370786816E+02  0.66098938297E+03  0.00000000000E+00 0. -1.
         22    1    1    2    0    0 -0.64140182074E+03 -0.73101394060E+03 -0.22963231686E+03  0.99925406076E+03  0.00000000000E+00 0.  1.
<mgrwt>
<rscale>  0 0.19709606E+04</rscale>
<asrwt>0</asrwt>
<pdfrwt beam="1">  1        2 0.13929723E+00 0.19709606E+04</pdfrwt>
<pdfrwt beam="2">  1       -2 0.16501625E+00 0.19709606E+04</pdfrwt>
<totfact> 0.62648225E+00</totfact>
</mgrwt>
</event>
<event>
 6    1  0.1817112E-005  0.3375011E+04  0.7818608E-02  0.8144067E-01
         -1   -1    0    0    0  501 -0.00000000000E+00  0.00000000000E+00  0.80277132537E+03  0.80277132537E+03  0.00000000000E+00 0.  1.
          1   -1    0    0  501    0  0.00000000000E+00 -0.00000000000E+00 -0.35473056344E+04  0.35473056344E+04  0.00000000000E+00 0. -1.
         23    2    1    2    0    0 -0.10133461323E+04  0.12536913238E+04 -0.73564306768E+03  0.17743719420E+04  0.92804883737E+02 0.  0.
         11    1    3    3    0    0 -0.12189124357E+03  0.19030747596E+03 -0.12590215247E+03  0.25870014043E+03  0.00000000000E+00 0. -1.
        -11    1    3    3    0    0 -0.89145488872E+03  0.10633838478E+04 -0.60974091521E+03  0.15156718016E+04  0.00000000000E+00 0.  1.
         22    1    1    2    0    0  0.10133461323E+04 -0.12536913238E+04 -0.20088912414E+04  0.25757050178E+04  0.00000000000E+00 0.  1.
<mgrwt>
<rscale>  0 0.33750113E+04</rscale>
<asrwt>0</asrwt>
<pdfrwt beam="1">  1        1 0.54573934E+00 0.33750113E+04</pdfrwt>
<pdfrwt beam="2">  1       -1 0.12350328E+00 0.33750113E+04</pdfrwt>
<totfact> 0.10880923E-01</totfact>
</mgrwt>
</event>
<event>
 6    1  0.1817112E-005  0.8188759E+03  0.7818608E-02  0.9533090E-01
          2   -1    0    0  501    0  0.00000000000E+00  0.00000000000E+00  0.15008577397E+04  0.15008577397E+04  0.00000000000E+00 0. -1.
         -2   -1    0    0    0  501 -0.00000000000E+00 -0.00000000000E+00 -0.11169575041E+03  0.11169575041E+03  0.00000000000E+00 0.  1.
         23    2    1    2    0    0 -0.36111328048E+03  0.56990769014E+02  0.36193257343E+03  0.52220903907E+03  0.89757137272E+02 0.  0.
         11    1    3    3    0    0 -0.22130939030E+03  0.62290843114E+02  0.27083542175E+03  0.35526021596E+03  0.00000000000E+00 0.  1.
        -11    1    3    3    0    0 -0.13980389018E+03 -0.53000740996E+01  0.91097151678E+02  0.16694882311E+03  0.00000000000E+00 0. -1.
         22    1    1    2    0    0  0.36111328048E+03 -0.56990769014E+02  0.10272294159E+04  0.10903444511E+04  0.00000000000E+00 0. -1.
<mgrwt>
<rscale>  0 0.81887589E+03</rscale>
<asrwt>0</asrwt>
<pdfrwt beam="1">  1        2 0.23090118E+00 0.81887589E+03</pdfrwt>
<pdfrwt beam="2">  1       -2 0.17183963E-01 0.81887589E+03</pdfrwt>
<totfact> 0.35531902E+02</totfact>
</mgrwt>
</event>
<event>
 6    1  0.1817112E-005  0.1214675E+04  0.7818608E-02  0.9100107E-01
          2   -1    0    0  501    0  0.00000000000E+00  0.00000000000E+00  0.27262638221E+04  0.27262638221E+04  0.00000000000E+00 0. -1.
         -2   -1    0    0    0  501 -0.00000000000E+00 -0.00000000000E+00 -0.13529838597E+03  0.13529838597E+03  0.00000000000E+00 0.  1.
         23    2    1    2    0    0 -0.48125219250E+03 -0.77067369657E+02  0.21428954730E+04  0.21995125543E+04  0.91166967082E+02 0.  0.
         11    1    3    3    0    0 -0.18856961611E+03 -0.70668517861E+02  0.78503322817E+03  0.81045031240E+03  0.00000000000E+00 0.  1.
        -11    1    3    3    0    0 -0.29268257639E+03 -0.63988517963E+01  0.13578622448E+04  0.13890622419E+04  0.00000000000E+00 0. -1.
         22    1    1    2    0    0  0.48125219250E+03  0.77067369657E+02  0.44806996315E+03  0.66204965382E+03  0.00000000000E+00 0.  1.
<mgrwt>
<rscale>  0 0.12146754E+04</rscale>
<asrwt>0</asrwt>
<pdfrwt beam="1">  1        2 0.41942516E+00 0.12146754E+04</pdfrwt>
<pdfrwt beam="2">  1       -2 0.20815138E-01 0.12146754E+04</pdfrwt>
<totfact> 0.50769501E+01</totfact>
</mgrwt>
</event>
<event>
 6    1  0.1817112E-005  0.2434859E+04  0.7818608E-02  0.8426567E-01
         -2   -1    0    0    0  501 -0.00000000000E+00  0.00000000000E+00  0.18902791143E+04  0.18902791143E+04  0.00000000000E+00 0.  1.
          2   -1    0    0  501    0  0.00000000000E+00 -0.00000000000E+00 -0.78408218388E+03  0.78408218388E+03  0.00000000000E+00 0. -1.
         23    2    1    2    0    0 -0.26510569419E+00  0.37620103658E+03 -0.71592544554E+03  0.81380835801E+03  0.90595307801E+02 0.  0.
         11    1    3    3    0    0  0.73545271935E+01  0.32408133615E+03 -0.66841358082E+03  0.74287247664E+03  0.00000000000E+00 0. -1.
        -11    1    3    3    0    0 -0.76196328877E+01  0.52119700427E+02 -0.47511864714E+02  0.70935881376E+02  0.00000000000E+00 0.  1.
         22    1    1    2    0    0  0.26510569419E+00 -0.37620103658E+03  0.18221223760E+04  0.18605529402E+04  0.00000000000E+00 0.  1.
<mgrwt>
<rscale>  0 0.24348587E+04</rscale>
<asrwt>0</asrwt>
<pdfrwt beam="1">  1        2 0.12062803E+00 0.24348587E+04</pdfrwt>
<pdfrwt beam="2">  1       -2 0.29081217E+00 0.24348587E+04</pdfrwt>
<totfact> 0.11476875E+00</totfact>
</mgrwt>
</event>
<event>
 6    1  0.1817112E-005  0.1294102E+04  0.7818608E-02  0.9034256E-01
         -4   -1    0    0    0  501 -0.00000000000E+00  0.00000000000E+00  0.46535549901E+03  0.46535549901E+03  0.00000000000E+00 0.  1.
          4   -1    0    0  501    0  0.00000000000E+00 -0.00000000000E+00 -0.89968794391E+03  0.89968794391E+03  0.00000000000E+00 0. -1.
         23    2    1    2    0    0  0.30462608497E+03 -0.39161833228E+03  0.21473035604E+03  0.54807068366E+03  0.90057640758E+02 0.  0.
         13    1    3    3    0    0  0.44841290678E+02 -0.50346355417E+02  0.65371267406E+02  0.93908995605E+02  0.00000000000E+00 0. -1.
        -13    1    3    3    0    0  0.25978479429E+03 -0.34127197686E+03  0.14935908863E+03  0.45416168805E+03  0.00000000000E+00 0.  1.
         22    1    1    2    0    0 -0.30462608497E+03  0.39161833228E+03 -0.64906280094E+03  0.81697275927E+03  0.00000000000E+00 0. -1.
<mgrwt>
<rscale>  0 0.12941016E+04</rscale>
<asrwt>0</asrwt>
<pdfrwt beam="1">  1        4 0.13841353E+00 0.12941016E+04</pdfrwt>
<pdfrwt beam="2">  1       -4 0.71593154E-01 0.12941016E+04</pdfrwt>
<totfact> 0.12836918E+00</totfact>
</mgrwt>
</event>
<event>
 6    1  0.1817112E-005  0.1322670E+04  0.7818608E-02  0.9011778E-01
         -2   -1    0    0    0  501 -0.00000000000E+00  0.00000000000E+00  0.44244318450E+03  0.44244318450E+03  0.00000000000E+00 0. -1.
          2   -1    0    0  501    0  0.00000000000E+00 -0.00000000000E+00 -0.98852052730E+03  0.98852052730E+03  0.00000000000E+00 0.  1.
         23    2    1    2    0    0  0.16793217283E+02  0.43887511571E+03 -0.80528770534E+03  0.92097999502E+03  0.82598326398E+02 0.  0.
         13    1    3    3    0    0  0.11198177404E+01  0.16853260265E+03 -0.22994749851E+03  0.28509707859E+03  0.00000000000E+00 0.  1.
        -13    1    3    3    0    0  0.15673399542E+02  0.27034251306E+03 -0.57534020682E+03  0.63588291643E+03  0.00000000000E+00 0. -1.
         22    1    1    2    0    0 -0.16793217283E+02 -0.43887511571E+03  0.25921036253E+03  0.50998371678E+03  0.00000000000E+00 0. -1.
<mgrwt>
<rscale>  0 0.13226703E+04</rscale>
<asrwt>0</asrwt>
<pdfrwt beam="1">  1        2 0.15208008E+00 0.13226703E+04</pdfrwt>
<pdfrwt beam="2">  1       -2 0.68068183E-01 0.13226703E+04</pdfrwt>
<totfact> 0.49555651E+01</totfact>
</mgrwt>
</event>
<event>
 6    1  0.1817112E-005  0.3374090E+04  0.7818608E-02  0.8144295E-01
          2   -1    0    0  501    0  0.00000000000E+00  0.00000000000E+00  0.27870119519E+04  0.27870119519E+04  0.00000000000E+00 0. -1.
         -2   -1    0    0    0  501 -0.00000000000E+00 -0.00000000000E+00 -0.10212088769E+04  0.10212088769E+04  0.00000000000E+00 0.  1.
         23    2    1    2    0    0  0.14480739226E+04 -0.12434673165E+03 -0.80539570278E+02  0.14584631055E+04  0.90817469938E+02 0.  0.
         11    1    3    3    0    0  0.78663520680E+03 -0.77899907601E+02  0.32374155117E+00  0.79048304789E+03  0.00000000000E+00 0.  1.
        -11    1    3    3    0    0  0.66143871575E+03 -0.46446824046E+02 -0.80863311830E+02  0.66798005760E+03  0.00000000000E+00 0. -1.
         22    1    1    2    0    0 -0.14480739226E+04  0.12434673165E+03  0.18463426452E+04  0.23497577234E+04  0.00000000000E+00 0. -1.
<mgrwt>
<rscale>  0 0.33740903E+04</rscale>
<asrwt>0</asrwt>
<pdfrwt beam="1">  1        2 0.42877107E+00 0.33740903E+04</pdfrwt>
<pdfrwt beam="2">  1       -2 0.15710906E+00 0.33740903E+04</pdfrwt>
<totfact> 0.51717235E-01</totfact>
</mgrwt>
</event>
<event>
 6    1  0.1817112E-005  0.7151667E+03  0.7818608E-02  0.9691641E-01
         -2   -1    0    0    0  501 -0.00000000000E+00  0.00000000000E+00  0.28159418148E+03  0.28159418148E+03  0.00000000000E+00 0.  1.
          2   -1    0    0  501    0  0.00000000000E+00 -0.00000000000E+00 -0.45407840194E+03  0.45407840194E+03  0.00000000000E+00 0. -1.
         23    2    1    2    0    0  0.29561847601E+02  0.34846013792E+03 -0.49877337859E+02  0.36509085395E+03  0.92223707633E+02 0.  0.
         13    1    3    3    0    0  0.39496992424E+02  0.21655995099E+03  0.89752605158E+01  0.22031518350E+03  0.00000000000E+00 0.  1.
        -13    1    3    3    0    0 -0.99351448236E+01  0.13190018694E+03 -0.58852598375E+02  0.14477567045E+03  0.00000000000E+00 0. -1.
         22    1    1    2    0    0 -0.29561847601E+02 -0.34846013792E+03 -0.12260688260E+03  0.37058172947E+03  0.00000000000E+00 0.  1.
<mgrwt>
<rscale>  0 0.71516665E+03</rscale>
<asrwt>0</asrwt>
<pdfrwt beam="1">  1        2 0.69858215E-01 0.71516665E+03</pdfrwt>
<pdfrwt beam="2">  1       -2 0.43322182E-01 0.71516665E+03</pdfrwt>
<totfact> 0.35063786E+02</totfact>
</mgrwt>
</event>
<event>
 6    1  0.1817112E-005  0.1272344E+04  0.7818608E-02  0.9051789E-01
         -2   -1    0    0    0  501 -0.00000000000E+00  0.00000000000E+00  0.17795343463E+03  0.17795343463E+03  0.00000000000E+00 0.  1.
          2   -1    0    0  501    0  0.00000000000E+00 -0.00000000000E+00 -0.22742720246E+04  0.22742720246E+04  0.00000000000E+00 0. -1.
         23    2    1    2    0    0  0.43082630263E+03  0.45274905637E+03 -0.86027562241E+03  0.10671640062E+04  0.90398332353E+02 0.  0.
         13    1    3    3    0    0  0.20393548260E+03  0.20959844079E+03 -0.32705248484E+03  0.43873057254E+03  0.00000000000E+00 0. -1.
        -13    1    3    3    0    0  0.22689082002E+03  0.24315061558E+03 -0.53322313758E+03  0.62843343364E+03  0.00000000000E+00 0.  1.
         22    1    1    2    0    0 -0.43082630263E+03 -0.45274905637E+03 -0.12360429676E+04  0.13850614531E+04  0.00000000000E+00 0. -1.
<mgrwt>
<rscale>  0 0.12723435E+04</rscale>
<asrwt>0</asrwt>
<pdfrwt beam="1">  1        2 0.34988800E+00 0.12723435E+04</pdfrwt>
<pdfrwt beam="2">  1       -2 0.27377451E-01 0.12723435E+04</pdfrwt>
<totfact> 0.56107710E+01</totfact>
</mgrwt>
</event>
<event>
 6    1  0.1817112E-005  0.3684348E+04  0.7818608E-02  0.8071439E-01
         -2   -1    0    0    0  501 -0.00000000000E+00  0.00000000000E+00  0.10666135124E+04  0.10666135124E+04  0.00000000000E+00 0. -1.
          2   -1    0    0  501    0  0.00000000000E+00 -0.00000000000E+00 -0.31816628182E+04  0.31816628182E+04  0.00000000000E+00 0.  1.
         23    2    1    2    0    0 -0.47630751006E+03  0.15697677871E+04 -0.94648620425E+02  0.16457662577E+04  0.92457903771E+02 0.  0.
         13    1    3    3    0    0 -0.24452306694E+03  0.74862465284E+03 -0.88603840514E+02  0.79251564127E+03  0.00000000000E+00 0.  1.
        -13    1    3    3    0    0 -0.23178444312E+03  0.82114313430E+03 -0.60447799110E+01  0.85325061644E+03  0.00000000000E+00 0. -1.
         22    1    1    2    0    0  0.47630751006E+03 -0.15697677871E+04 -0.20204006855E+04  0.26025100729E+04  0.00000000000E+00 0.  1.
<mgrwt>
<rscale>  0 0.36843477E+04</rscale>
<asrwt>0</asrwt>
<pdfrwt beam="1">  1        2 0.48948659E+00 0.36843477E+04</pdfrwt>
<pdfrwt beam="2">  1       -2 0.16409439E+00 0.36843477E+04</pdfrwt>
<totfact> 0.25335097E-01</totfact>
</mgrwt>
</event>
<event>
 6    1  0.1817112E-005  0.3546310E+04  0.7818608E-02  0.8102902E-01
          2   -1    0    0  501    0  0.00000000000E+00  0.00000000000E+00  0.27242428610E+04  0.27242428610E+04  0.00000000000E+00 0. -1.
         -2   -1    0    0    0  501 -0.00000000000E+00 -0.00000000000E+00 -0.11541109020E+04  0.11541109020E+04  0.00000000000E+00 0.  1.
         23    2    1    2    0    0 -0.55119369864E+03  0.11723947019E+04 -0.53658087525E+03  0.14051851889E+04  0.91118324143E+02 0.  0.
         13    1    3    3    0    0 -0.30574727231E+03  0.66498540377E+03 -0.25455298761E+03  0.77490915935E+03  0.00000000000E+00 0. -1.
        -13    1    3    3    0    0 -0.24544642633E+03  0.50740929809E+03 -0.28202788764E+03  0.63027602953E+03  0.00000000000E+00 0.  1.
         22    1    1    2    0    0  0.55119369864E+03 -0.11723947019E+04  0.21067128342E+04  0.24731685742E+04  0.00000000000E+00 0. -1.
<mgrwt>
<rscale>  0 0.35463098E+04</rscale>
<asrwt>0</asrwt>
<pdfrwt beam="1">  1        2 0.41911428E+00 0.35463098E+04</pdfrwt>
<pdfrwt beam="2">  1       -2 0.17755552E+00 0.35463098E+04</pdfrwt>
<totfact> 0.39631686E-01</totfact>
</mgrwt>
</event>
<event>
 6    1  0.1817112E-005  0.2807723E+04  0.7818608E-02  0.8300875E-01
         -2   -1    0    0    0  501 -0.00000000000E+00  0.00000000000E+00  0.16453080696E+04  0.16453080696E+04  0.00000000000E+00 0.  1.
          2   -1    0    0  501    0  0.00000000000E+00 -0.00000000000E+00 -0.11978465263E+04  0.11978465263E+04  0.00000000000E+00 0. -1.
         23    2    1    2    0    0 -0.48892693888E+03 -0.78600443291E+03  0.12907387828E+04  0.15909688977E+04  0.91229972823E+02 0.  0.
         13    1    3    3    0    0 -0.27717260077E+03 -0.36339210551E+03  0.65841370576E+03  0.80149053699E+03  0.00000000000E+00 0. -1.
        -13    1    3    3    0    0 -0.21175433810E+03 -0.42261232740E+03  0.63232507705E+03  0.78947836072E+03  0.00000000000E+00 0.  1.
         22    1    1    2    0    0  0.48892693888E+03  0.78600443291E+03 -0.84327723951E+03  0.12521856982E+04  0.00000000000E+00 0. -1.
<mgrwt>
<rscale>  0 0.28077226E+04</rscale>
<asrwt>0</asrwt>
<pdfrwt beam="1">  1        2 0.18428408E+00 0.28077226E+04</pdfrwt>
<pdfrwt beam="2">  1       -2 0.25312432E+00 0.28077226E+04</pdfrwt>
<totfact> 0.10156446E+00</totfact>
</mgrwt>
</event>
<event>
 6    1  0.1817112E-005  0.2917395E+04  0.7818608E-02  0.8267721E-01
          2   -1    0    0  501    0  0.00000000000E+00  0.00000000000E+00  0.15058628277E+04  0.15058628277E+04  0.00000000000E+00 0. -1.
         -2   -1    0    0    0  501 -0.00000000000E+00 -0.00000000000E+00 -0.14130096437E+04  0.14130096437E+04  0.00000000000E+00 0.  1.
         23    2    1    2    0    0  0.80003762489E+03  0.12122718210E+04 -0.72028979269E+02  0.14570758723E+04  0.90657347128E+02 0.  0.
         11    1    3    3    0    0  0.58879618498E+03  0.95370073803E+03 -0.38025716670E+02  0.11214597631E+04  0.00000000000E+00 0. -1.
        -11    1    3    3    0    0  0.21124143991E+03  0.25857108299E+03 -0.34003262599E+02  0.33561610921E+03  0.00000000000E+00 0.  1.
         22    1    1    2    0    0 -0.80003762489E+03 -0.12122718210E+04  0.16488216324E+03  0.14617965991E+04  0.00000000000E+00 0. -1.
<mgrwt>
<rscale>  0 0.29173952E+04</rscale>
<asrwt>0</asrwt>
<pdfrwt beam="1">  1        2 0.23167120E+00 0.29173952E+04</pdfrwt>
<pdfrwt beam="2">  1       -2 0.21738610E+00 0.29173952E+04</pdfrwt>
<totfact> 0.11149477E+00</totfact>
</mgrwt>
</event>
<event>
 6    1  0.1817112E-005  0.2223941E+04  0.7818608E-02  0.8508529E-01
         -2   -1    0    0    0  501 -0.00000000000E+00  0.00000000000E+00  0.71257412004E+03  0.71257412004E+03  0.00000000000E+00 0.  1.
          2   -1    0    0  501    0  0.00000000000E+00 -0.00000000000E+00 -0.17352282118E+04  0.17352282118E+04  0.00000000000E+00 0. -1.
         23    2    1    2    0    0  0.67762067054E+03 -0.39618507163E+03 -0.13761293199E+04  0.15869439689E+04  0.92341058789E+02 0.  0.
         11    1    3    3    0    0  0.22238526966E+03 -0.84171027689E+02 -0.38477170782E+03  0.45231541782E+03  0.00000000000E+00 0. -1.
        -11    1    3    3    0    0  0.45523540088E+03 -0.31201404394E+03 -0.99135761209E+03  0.11346285511E+04  0.00000000000E+00 0.  1.
         22    1    1    2    0    0 -0.67762067054E+03  0.39618507163E+03  0.35347522817E+03  0.86085836294E+03  0.00000000000E+00 0.  1.
<mgrwt>
<rscale>  0 0.22239413E+04</rscale>
<asrwt>0</asrwt>
<pdfrwt beam="1">  1        2 0.26695818E+00 0.22239413E+04</pdfrwt>
<pdfrwt beam="2">  1       -2 0.10962679E+00 0.22239413E+04</pdfrwt>
<totfact> 0.56653583E+00</totfact>
</mgrwt>
</event>
<event>
 6    1  0.1817112E-005  0.1925354E+04  0.7818608E-02  0.8642338E-01
         -2   -1    0    0    0  501 -0.00000000000E+00  0.00000000000E+00  0.59562546134E+03  0.59562546134E+03  0.00000000000E+00 0.  1.
          2   -1    0    0  501    0  0.00000000000E+00 -0.00000000000E+00 -0.15559220640E+04  0.15559220640E+04  0.00000000000E+00 0. -1.
         23    2    1    2    0    0  0.21440172361E+03 -0.62440351344E+02 -0.15252525118E+04  0.15440591914E+04  0.88637832310E+02 0.  0.
         11    1    3    3    0    0  0.15426541909E+03 -0.52852388302E+02 -0.13178823683E+04  0.13279326531E+04  0.00000000000E+00 0. -1.
        -11    1    3    3    0    0  0.60136304526E+02 -0.95879630424E+01 -0.20737014350E+03  0.21612653834E+03  0.00000000000E+00 0.  1.
         22    1    1    2    0    0 -0.21440172361E+03  0.62440351344E+02  0.56495590914E+03  0.60748833391E+03  0.00000000000E+00 0.  1.
<mgrwt>
<rscale>  0 0.19253538E+04</rscale>
<asrwt>0</asrwt>
<pdfrwt beam="1">  1        2 0.23937263E+00 0.19253538E+04</pdfrwt>
<pdfrwt beam="2">  1       -2 0.91634686E-01 0.19253538E+04</pdfrwt>
<totfact> 0.11185457E+01</totfact>
</mgrwt>
</event>
<event>
 6    1  0.1817112E-005  0.4851470E+04  0.7818608E-02  0.7851837E-01
          1   -1    0    0  501    0  0.00000000000E+00  0.00000000000E+00  0.41095565326E+04  0.41095565326E+04  0.00000000000E+00 0. -1.
         -1   -1    0    0    0  501 -0.00000000000E+00 -0.00000000000E+00 -0.14318312094E+04  0.14318312094E+04  0.00000000000E+00 0.  1.
         23    2    1    2    0    0 -0.45199042891E+03  0.23821607496E+04  0.13716403049E+04  0.27873283272E+04  0.93898311696E+02 0.  0.
         13    1    3    3    0    0 -0.37917573362E+03  0.17812739009E+04  0.10255554009E+04  0.20900896697E+04  0.00000000000E+00 0.  1.
        -13    1    3    3    0    0 -0.72814695289E+02  0.60088684871E+03  0.34608490395E+03  0.69723865752E+03  0.00000000000E+00 0. -1.
         22    1    1    2    0    0  0.45199042891E+03 -0.23821607496E+04  0.13060850183E+04  0.27540594147E+04  0.00000000000E+00 0. -1.
<mgrwt>
<rscale>  0 0.48514704E+04</rscale>
<asrwt>0</asrwt>
<pdfrwt beam="1">  1        1 0.63223946E+00 0.48514704E+04</pdfrwt>
<pdfrwt beam="2">  1       -1 0.22028173E+00 0.48514704E+04</pdfrwt>
<totfact> 0.61045118E-03</totfact>
</mgrwt>
</event>
<event>
 6    1  0.1817112E-005  0.1622949E+04  0.7818608E-02  0.8806572E-01
          2   -1    0    0  501    0  0.00000000000E+00  0.00000000000E+00  0.16387798616E+04  0.16387798616E+04  0.00000000000E+00 0. -1.
         -2   -1    0    0    0  501 -0.00000000000E+00 -0.00000000000E+00 -0.40181760989E+03  0.40181760989E+03  0.00000000000E+00 0.  1.
         23    2    1    2    0    0 -0.35307894633E+03  0.54721721210E+03  0.12238999326E+04  0.13892281111E+04  0.88950998189E+02 0.  0.
         13    1    3    3    0    0 -0.85190306079E+02  0.17530861966E+03  0.43853806133E+03  0.47990221047E+03  0.00000000000E+00 0. -1.
        -13    1    3    3    0    0 -0.26788864025E+03  0.37190859244E+03  0.78536187124E+03  0.90932590060E+03  0.00000000000E+00 0.  1.
         22    1    1    2    0    0  0.35307894633E+03 -0.54721721210E+03  0.13062319171E+02  0.65136936045E+03  0.00000000000E+00 0.  1.
<mgrwt>
<rscale>  0 0.16229487E+04</rscale>
<asrwt>0</asrwt>
<pdfrwt beam="1">  1        2 0.25211997E+00 0.16229487E+04</pdfrwt>
<pdfrwt beam="2">  1       -2 0.61818095E-01 0.16229487E+04</pdfrwt>
<totfact> 0.24682809E+01</totfact>
</mgrwt>
</event>
<event>
 6    1  0.1817112E-005  0.1755471E+04  0.7818608E-02  0.8730345E-01
         -2   -1    0    0    0  501 -0.00000000000E+00  0.00000000000E+00  0.16466382736E+04  0.16466382736E+04  0.00000000000E+00 0.  1.
          2   -1    0    0  501    0  0.00000000000E+00 -0.00000000000E+00 -0.46787404787E+03  0.46787404787E+03  0.00000000000E+00 0. -1.
         23    2    1    2    0    0  0.98175502674E+01  0.23355479533E+03  0.16072438975E+04  0.16264149380E+04  0.85722679778E+02 0.  0.
         13    1    3    3    0    0  0.28129278909E+01  0.12609879231E+03  0.58079379897E+03  0.59433177175E+03  0.00000000000E+00 0. -1.
        -13    1    3    3    0    0  0.70046223766E+01  0.10745600302E+03  0.10264500985E+04  0.10320831663E+04  0.00000000000E+00 0.  1.
         22    1    1    2    0    0 -0.98175502674E+01 -0.23355479533E+03 -0.42847967171E+03  0.48809738351E+03  0.00000000000E+00 0. -1.
<mgrwt>
<rscale>  0 0.17554707E+04</rscale>
<asrwt>0</asrwt>
<pdfrwt beam="1">  1        2 0.71980624E-01 0.17554707E+04</pdfrwt>
<pdfrwt beam="2">  1       -2 0.25332896E+00 0.17554707E+04</pdfrwt>
<totfact> 0.38628479E+00</totfact>
</mgrwt>
</event>
<event>
 6    1  0.1817112E-005  0.3613322E+04  0.7818608E-02  0.8087447E-01
         -2   -1    0    0    0  501 -0.00000000000E+00  0.00000000000E+00  0.16850456558E+04  0.16850456558E+04  0.00000000000E+00 0.  1.
          2   -1    0    0  501    0  0.00000000000E+00 -0.00000000000E+00 -0.19370532406E+04  0.19370532406E+04  0.00000000000E+00 0. -1.
         23    2    1    2    0    0 -0.11374254440E+04  0.54232229947E+03  0.11701459613E+04  0.17220013132E+04  0.90536371448E+02 0.  0.
         11    1    3    3    0    0 -0.23729401695E+03  0.73742768866E+02  0.23725181004E+03  0.34356202905E+03  0.00000000000E+00 0.  1.
        -11    1    3    3    0    0 -0.90013142709E+03  0.46857953060E+03  0.93289415129E+03  0.13784392841E+04  0.00000000000E+00 0. -1.
         22    1    1    2    0    0  0.11374254440E+04 -0.54232229947E+03 -0.14221535461E+04  0.19000975833E+04  0.00000000000E+00 0. -1.
<mgrwt>
<rscale>  0 0.36133215E+04</rscale>
<asrwt>0</asrwt>
<pdfrwt beam="1">  1        2 0.29800819E+00 0.36133215E+04</pdfrwt>
<pdfrwt beam="2">  1       -2 0.25923779E+00 0.36133215E+04</pdfrwt>
<totfact> 0.33253050E-01</totfact>
</mgrwt>
</event>
<event>
 6    1  0.1817112E-005  0.3570846E+04  0.7818608E-02  0.8097203E-01
         -2   -1    0    0    0  501 -0.00000000000E+00  0.00000000000E+00  0.11766999256E+04  0.11766999256E+04  0.00000000000E+00 0.  1.
          2   -1    0    0  501    0  0.00000000000E+00 -0.00000000000E+00 -0.27090464735E+04  0.27090464735E+04  0.00000000000E+00 0. -1.
         23    2    1    2    0    0  0.17295286844E+04 -0.39059729935E+03 -0.98314012529E+03  0.20295504463E+04  0.93138540447E+02 0.  0.
         13    1    3    3    0    0  0.13273150488E+04 -0.26003984559E+03 -0.75859660065E+03  0.15507594148E+04  0.00000000000E+00 0.  1.
        -13    1    3    3    0    0  0.40221363569E+03 -0.13055745376E+03 -0.22454352463E+03  0.47879103158E+03  0.00000000000E+00 0. -1.
         22    1    1    2    0    0 -0.17295286844E+04  0.39059729935E+03 -0.54920642263E+03  0.18561959528E+04  0.00000000000E+00 0. -1.
<mgrwt>
<rscale>  0 0.35708457E+04</rscale>
<asrwt>0</asrwt>
<pdfrwt beam="1">  1        2 0.41677637E+00 0.35708457E+04</pdfrwt>
<pdfrwt beam="2">  1       -2 0.18103076E+00 0.35708457E+04</pdfrwt>
<totfact> 0.38210224E-01</totfact>
</mgrwt>
</event>
<event>
 6    1  0.1817112E-005  0.1484757E+04  0.7818608E-02  0.8894653E-01
          2   -1    0    0  501    0  0.00000000000E+00  0.00000000000E+00  0.33079250830E+03  0.33079250830E+03  0.00000000000E+00 0. -1.
         -2   -1    0    0    0  501 -0.00000000000E+00 -0.00000000000E+00 -0.16660767514E+04  0.16660767514E+04  0.00000000000E+00 0.  1.
         23    2    1    2    0    0 -0.65442266561E+03  0.33985978238E+03 -0.58301590959E+03  0.94345512339E+03  0.80164344195E+02 0.  0.
         13    1    3    3    0    0 -0.12816824348E+03  0.46277116317E+02 -0.76646926154E+02  0.15634392031E+03  0.00000000000E+00 0. -1.
        -13    1    3    3    0    0 -0.52625442213E+03  0.29358266606E+03 -0.50636898343E+03  0.78711120308E+03  0.00000000000E+00 0.  1.
         22    1    1    2    0    0  0.65442266561E+03 -0.33985978238E+03 -0.75226833350E+03  0.10534141363E+04  0.00000000000E+00 0. -1.
<mgrwt>
<rscale>  0 0.14847568E+04</rscale>
<asrwt>0</asrwt>
<pdfrwt beam="1">  1        2 0.50891156E-01 0.14847568E+04</pdfrwt>
<pdfrwt beam="2">  1       -2 0.25631950E+00 0.14847568E+04</pdfrwt>
<totfact> 0.56013724E+00</totfact>
</mgrwt>
</event>
<event>
 6    1  0.1817112E-005  0.2512577E+04  0.7818608E-02  0.8398519E-01
          2   -1    0    0  501    0  0.00000000000E+00  0.00000000000E+00  0.15176511762E+04  0.15176511762E+04  0.00000000000E+00 0. -1.
         -2   -1    0    0    0  501 -0.00000000000E+00 -0.00000000000E+00 -0.10399366295E+04  0.10399366295E+04  0.00000000000E+00 0.  1.
         23    2    1    2    0    0  0.15879311958E+03 -0.12309901011E+04  0.42593661099E+03  0.13153185763E+04  0.89939294395E+02 0.  0.
         11    1    3    3    0    0  0.91558585349E+02 -0.44431291067E+03  0.12716138498E+03  0.47113369119E+03  0.00000000000E+00 0.  1.
        -11    1    3    3    0    0  0.67234534235E+02 -0.78667719043E+03  0.29877522600E+03  0.84418488509E+03  0.00000000000E+00 0. -1.
         22    1    1    2    0    0 -0.15879311958E+03  0.12309901011E+04  0.51777935774E+02  0.12422692295E+04  0.00000000000E+00 0.  1.
<mgrwt>
<rscale>  0 0.25125772E+04</rscale>
<asrwt>0</asrwt>
<pdfrwt beam="1">  1        2 0.23348480E+00 0.25125772E+04</pdfrwt>
<pdfrwt beam="2">  1       -2 0.15999025E+00 0.25125772E+04</pdfrwt>
<totfact> 0.27850833E+00</totfact>
</mgrwt>
</event>
<event>
 6    1  0.1817112E-005  0.1642107E+04  0.7818608E-02  0.8795090E-01
         -2   -1    0    0    0  501 -0.00000000000E+00  0.00000000000E+00  0.27001654040E+03  0.27001654040E+03  0.00000000000E+00 0.  1.
          2   -1    0    0  501    0  0.00000000000E+00 -0.00000000000E+00 -0.24966202634E+04  0.24966202634E+04  0.00000000000E+00 0. -1.
         23    2    1    2    0    0  0.71598818177E+03 -0.13052934721E+03 -0.48555524625E+03  0.87959499576E+03  0.90810090191E+02 0.  0.
         13    1    3    3    0    0  0.28444448500E+03 -0.89242483253E+02 -0.16778038139E+03  0.34208645434E+03  0.00000000000E+00 0.  1.
        -13    1    3    3    0    0  0.43154369677E+03 -0.41286863959E+02 -0.31777486486E+03  0.53750854141E+03  0.00000000000E+00 0. -1.
         22    1    1    2    0    0 -0.71598818177E+03  0.13052934721E+03 -0.17410484767E+04  0.18870418080E+04  0.00000000000E+00 0. -1.
<mgrwt>
<rscale>  0 0.16421069E+04</rscale>
<asrwt>0</asrwt>
<pdfrwt beam="1">  1        2 0.38409544E+00 0.16421069E+04</pdfrwt>
<pdfrwt beam="2">  1       -2 0.41541005E-01 0.16421069E+04</pdfrwt>
<totfact> 0.18386404E+01</totfact>
</mgrwt>
</event>
<event>
 6    1  0.1817112E-005  0.3523259E+04  0.7818608E-02  0.8108300E-01
         -2   -1    0    0    0  501 -0.00000000000E+00  0.00000000000E+00  0.15771360481E+04  0.15771360481E+04  0.00000000000E+00 0.  1.
          2   -1    0    0  501    0  0.00000000000E+00 -0.00000000000E+00 -0.19677053345E+04  0.19677053345E+04  0.00000000000E+00 0. -1.
         23    2    1    2    0    0 -0.17436734343E+04  0.22910199684E+03 -0.27531186247E+03  0.17824086762E+04  0.91100477508E+02 0.  0.
         11    1    3    3    0    0 -0.57589035702E+03  0.11293653824E+03 -0.11395407862E+03  0.59782095732E+03  0.00000000000E+00 0. -1.
        -11    1    3    3    0    0 -0.11677830773E+04  0.11616545860E+03 -0.16135778385E+03  0.11845877189E+04  0.00000000000E+00 0.  1.
         22    1    1    2    0    0  0.17436734343E+04 -0.22910199684E+03 -0.11525742393E+03  0.17624327063E+04  0.00000000000E+00 0. -1.
<mgrwt>
<rscale>  0 0.35232593E+04</rscale>
<asrwt>0</asrwt>
<pdfrwt beam="1">  1        2 0.30272390E+00 0.35232593E+04</pdfrwt>
<pdfrwt beam="2">  1       -2 0.24263632E+00 0.35232593E+04</pdfrwt>
<totfact> 0.40747968E-01</totfact>
</mgrwt>
</event>
<event>
 6    1  0.1817112E-005  0.1218438E+04  0.7818608E-02  0.9096869E-01
          2   -1    0    0  501    0  0.00000000000E+00  0.00000000000E+00  0.21483240357E+04  0.21483240357E+04  0.00000000000E+00 0. -1.
         -2   -1    0    0    0  501 -0.00000000000E+00 -0.00000000000E+00 -0.17276168539E+03  0.17276168539E+03  0.00000000000E+00 0.  1.
         23    2    1    2    0    0  0.13068972985E+03 -0.35941345142E+03  0.10257224547E+03  0.40945035645E+03  0.10426262182E+03 0.  0.
         11    1    3    3    0    0  0.67949292187E+02 -0.29225469906E+03  0.10391558612E+03  0.31753482403E+03  0.00000000000E+00 0. -1.
        -11    1    3    3    0    0  0.62740437662E+02 -0.67158752355E+02 -0.13433406538E+01  0.91915532420E+02  0.00000000000E+00 0.  1.
         22    1    1    2    0    0 -0.13068972985E+03  0.35941345142E+03  0.18729901049E+04  0.19116353647E+04  0.00000000000E+00 0. -1.
<mgrwt>
<rscale>  0 0.12184385E+04</rscale>
<asrwt>0</asrwt>
<pdfrwt beam="1">  1        2 0.33051137E+00 0.12184385E+04</pdfrwt>
<pdfrwt beam="2">  1       -2 0.26578722E-01 0.12184385E+04</pdfrwt>
<totfact> 0.69973817E+01</totfact>
</mgrwt>
</event>
<event>
 6    1  0.1817112E-005  0.9439895E+03  0.7818608E-02  0.9372204E-01
          2   -1    0    0  501    0  0.00000000000E+00  0.00000000000E+00  0.13569979043E+04  0.13569979043E+04  0.00000000000E+00 0. -1.
         -2   -1    0    0    0  501 -0.00000000000E+00 -0.00000000000E+00 -0.16417051011E+03  0.16417051011E+03  0.00000000000E+00 0.  1.
         23    2    1    2    0    0  0.19711863541E+03 -0.30839501814E+03  0.13248969056E+03  0.39943792566E+03  0.89631996051E+02 0.  0.
         13    1    3    3    0    0  0.58834334164E+02 -0.10362321406E+03  0.19741538407E+00  0.11916076679E+03  0.00000000000E+00 0. -1.
        -13    1    3    3    0    0  0.13828430124E+03 -0.20477180407E+03  0.13229227517E+03  0.28027715887E+03  0.00000000000E+00 0.  1.
         22    1    1    2    0    0 -0.19711863541E+03  0.30839501814E+03  0.10603377037E+04  0.11217304888E+04  0.00000000000E+00 0. -1.
<mgrwt>
<rscale>  0 0.94398949E+03</rscale>
<asrwt>0</asrwt>
<pdfrwt beam="1">  1        2 0.20876890E+00 0.94398949E+03</pdfrwt>
<pdfrwt beam="2">  1       -2 0.25257002E-01 0.94398949E+03</pdfrwt>
<totfact> 0.21565050E+02</totfact>
</mgrwt>
</event>
<event>
 6    1  0.1817112E-005  0.9029253E+03  0.7818608E-02  0.9421932E-01
          2   -1    0    0  501    0  0.00000000000E+00  0.00000000000E+00  0.11174573953E+04  0.11174573953E+04  0.00000000000E+00 0. -1.
         -2   -1    0    0    0  501 -0.00000000000E+00 -0.00000000000E+00 -0.18239491451E+03  0.18239491451E+03  0.00000000000E+00 0.  1.
         23    2    1    2    0    0  0.33824701833E+03 -0.28537007086E+03  0.55936437189E+03  0.71933857888E+03  0.93340065257E+02 0.  0.
         13    1    3    3    0    0  0.57880264728E+01 -0.36241269206E+02  0.40699346085E+02  0.54802989114E+02  0.00000000000E+00 0.  1.
        -13    1    3    3    0    0  0.33245899185E+03 -0.24912880165E+03  0.51866502580E+03  0.66453558977E+03  0.00000000000E+00 0. -1.
         22    1    1    2    0    0 -0.33824701833E+03  0.28537007086E+03  0.37569810888E+03  0.58051373090E+03  0.00000000000E+00 0.  1.
<mgrwt>
<rscale>  0 0.90292535E+03</rscale>
<asrwt>0</asrwt>
<pdfrwt beam="1">  1        2 0.17191652E+00 0.90292535E+03</pdfrwt>
<pdfrwt beam="2">  1       -2 0.28060757E-01 0.90292535E+03</pdfrwt>
<totfact> 0.24698736E+02</totfact>
</mgrwt>
</event>
<event>
 6    1  0.1817112E-005  0.2544753E+04  0.7818608E-02  0.8387213E-01
         -2   -1    0    0    0  501 -0.00000000000E+00  0.00000000000E+00  0.58424920510E+03  0.58424920510E+03  0.00000000000E+00 0.  1.
          2   -1    0    0  501    0  0.00000000000E+00 -0.00000000000E+00 -0.27709775202E+04  0.27709775202E+04  0.00000000000E+00 0. -1.
         23    2    1    2    0    0  0.82814813970E+03  0.53804164577E+03 -0.21483969157E+04  0.23669011463E+04  0.10627123520E+03 0.  0.
         13    1    3    3    0    0  0.36820567094E+03  0.24633881423E+03 -0.10900546595E+04  0.11766381721E+04  0.00000000000E+00 0.  1.
        -13    1    3    3    0    0  0.45994246876E+03  0.29170283155E+03 -0.10583422562E+04  0.11902629742E+04  0.00000000000E+00 0. -1.
         22    1    1    2    0    0 -0.82814813970E+03 -0.53804164577E+03 -0.38331399445E+02  0.98832557898E+03  0.00000000000E+00 0.  1.
<mgrwt>
<rscale>  0 0.25447526E+04</rscale>
<asrwt>0</asrwt>
<pdfrwt beam="1">  1        2 0.42630424E+00 0.25447526E+04</pdfrwt>
<pdfrwt beam="2">  1       -2 0.89884492E-01 0.25447526E+04</pdfrwt>
<totfact> 0.22674223E+00</totfact>
</mgrwt>
</event>
<event>
 6    1  0.1817112E-005  0.3185473E+04  0.7818608E-02  0.8192664E-01
         -2   -1    0    0    0  501 -0.00000000000E+00  0.00000000000E+00  0.76411482491E+03  0.76411482491E+03  0.00000000000E+00 0.  1.
          2   -1    0    0  501    0  0.00000000000E+00 -0.00000000000E+00 -0.33199325648E+04  0.33199325648E+04  0.00000000000E+00 0. -1.
         23    2    1    2    0    0 -0.37761728504E+03  0.15446625090E+04 -0.13606164060E+04  0.20948054966E+04  0.91411070939E+02 0.  0.
         11    1    3    3    0    0 -0.29504743881E+02  0.21386925040E+03 -0.15627623211E+03  0.26651988087E+03  0.00000000000E+00 0. -1.
        -11    1    3    3    0    0 -0.34811254116E+03  0.13307932586E+04 -0.12043401739E+04  0.18282856158E+04  0.00000000000E+00 0.  1.
         22    1    1    2    0    0  0.37761728504E+03 -0.15446625090E+04 -0.11952013340E+04  0.19892418931E+04  0.00000000000E+00 0. -1.
<mgrwt>
<rscale>  0 0.31854731E+04</rscale>
<asrwt>0</asrwt>
<pdfrwt beam="1">  1        2 0.51075885E+00 0.31854731E+04</pdfrwt>
<pdfrwt beam="2">  1       -2 0.11755613E+00 0.31854731E+04</pdfrwt>
<totfact> 0.50827933E-01</totfact>
</mgrwt>
</event>
<event>
 6    1  0.1817112E-005  0.1510275E+04  0.7818608E-02  0.8877649E-01
         -2   -1    0    0    0  501 -0.00000000000E+00  0.00000000000E+00  0.52888349470E+03  0.52888349470E+03  0.00000000000E+00 0.  1.
          2   -1    0    0  501    0  0.00000000000E+00 -0.00000000000E+00 -0.10781815066E+04  0.10781815066E+04  0.00000000000E+00 0. -1.
         23    2    1    2    0    0  0.23452755410E+03  0.70523451212E+03 -0.39743553531E+03  0.84849984092E+03  0.98173746961E+02 0.  0.
         13    1    3    3    0    0  0.28862350479E+02  0.19231851092E+03 -0.73218621451E+02  0.20779896883E+03  0.00000000000E+00 0. -1.
        -13    1    3    3    0    0  0.20566520362E+03  0.51291600120E+03 -0.32421691386E+03  0.64070087209E+03  0.00000000000E+00 0.  1.
         22    1    1    2    0    0 -0.23452755410E+03 -0.70523451212E+03 -0.15186247658E+03  0.75856516036E+03  0.00000000000E+00 0. -1.
<mgrwt>
<rscale>  0 0.15102747E+04</rscale>
<asrwt>0</asrwt>
<pdfrwt beam="1">  1        2 0.16587408E+00 0.15102747E+04</pdfrwt>
<pdfrwt beam="2">  1       -2 0.81366691E-01 0.15102747E+04</pdfrwt>
<totfact> 0.28876677E+01</totfact>
</mgrwt>
</event>
<event>
 6    1  0.1817112E-005  0.2726714E+04  0.7818608E-02  0.8326389E-01
         -1   -1    0    0    0  501 -0.00000000000E+00  0.00000000000E+00  0.13182822922E+04  0.13182822922E+04  0.00000000000E+00 0.  1.
          1   -1    0    0  501    0  0.00000000000E+00 -0.00000000000E+00 -0.14099733874E+04  0.14099733874E+04  0.00000000000E+00 0. -1.
         23    2    1    2    0    0 -0.13180200186E+04  0.23291080569E+03 -0.29719746691E+03  0.13741297322E+04  0.92097630776E+02 0.  0.
         11    1    3    3    0    0 -0.10825816158E+04  0.22372864111E+03 -0.23019836209E+03  0.11291717077E+04  0.00000000000E+00 0.  1.
        -11    1    3    3    0    0 -0.23543840286E+03  0.91821645766E+01 -0.66999104815E+02  0.24495802443E+03  0.00000000000E+00 0. -1.
         22    1    1    2    0    0  0.13180200186E+04 -0.23291080569E+03  0.20550637168E+03  0.13541259475E+04  0.00000000000E+00 0.  1.
<mgrwt>
<rscale>  0 0.27267145E+04</rscale>
<asrwt>0</asrwt>
<pdfrwt beam="1">  1        1 0.21691898E+00 0.27267145E+04</pdfrwt>
<pdfrwt beam="2">  1       -1 0.20281266E+00 0.27267145E+04</pdfrwt>
<totfact> 0.94800613E-01</totfact>
</mgrwt>
</event>
<event>
 6    1  0.1817112E-005  0.2936303E+04  0.7818608E-02  0.8262158E-01
          2   -1    0    0  501    0  0.00000000000E+00  0.00000000000E+00  0.12042640110E+04  0.12042640110E+04  0.00000000000E+00 0. -1.
         -2   -1    0    0    0  501 -0.00000000000E+00 -0.00000000000E+00 -0.17898638466E+04  0.17898638466E+04  0.00000000000E+00 0.  1.
         23    2    1    2    0    0 -0.24878601041E+02 -0.12281894777E+04 -0.11102392136E+04  0.16583453847E+04  0.91705864044E+02 0.  0.
         11    1    3    3    0    0  0.99217255794E+01 -0.39132753969E+03 -0.40681495442E+03  0.56456540019E+03  0.00000000000E+00 0.  1.
        -11    1    3    3    0    0 -0.34800326620E+02 -0.83686193802E+03 -0.70342425920E+03  0.10937799845E+04  0.00000000000E+00 0. -1.
         22    1    1    2    0    0  0.24878601041E+02  0.12281894777E+04  0.52463937810E+03  0.13357824729E+04  0.00000000000E+00 0. -1.
<mgrwt>
<rscale>  0 0.29363029E+04</rscale>
<asrwt>0</asrwt>
<pdfrwt beam="1">  1        2 0.18527139E+00 0.29363029E+04</pdfrwt>
<pdfrwt beam="2">  1       -2 0.27536367E+00 0.29363029E+04</pdfrwt>
<totfact> 0.72825740E-01</totfact>
</mgrwt>
</event>
<event>
 6    1  0.1817112E-005  0.2656105E+04  0.7818608E-02  0.8349389E-01
         -1   -1    0    0    0  501 -0.00000000000E+00  0.00000000000E+00  0.12949944952E+04  0.12949944952E+04  0.00000000000E+00 0.  1.
          1   -1    0    0  501    0  0.00000000000E+00 -0.00000000000E+00 -0.13619548548E+04  0.13619548548E+04  0.00000000000E+00 0. -1.
         23    2    1    2    0    0  0.44740260366E+03  0.11141788713E+02  0.12155430636E+04  0.12986017289E+04  0.92348695733E+02 0.  0.
         11    1    3    3    0    0  0.27887541316E+03  0.15457774542E+01  0.62477808470E+03  0.68419408110E+03  0.00000000000E+00 0. -1.
        -11    1    3    3    0    0  0.16852719050E+03  0.95960112583E+01  0.59076497895E+03  0.61440764784E+03  0.00000000000E+00 0.  1.
         22    1    1    2    0    0 -0.44740260366E+03 -0.11141788713E+02 -0.12825034232E+04  0.13583476211E+04  0.00000000000E+00 0. -1.
<mgrwt>
<rscale>  0 0.26561054E+04</rscale>
<asrwt>0</asrwt>
<pdfrwt beam="1">  1        1 0.20953152E+00 0.26561054E+04</pdfrwt>
<pdfrwt beam="2">  1       -1 0.19922992E+00 0.26561054E+04</pdfrwt>
<totfact> 0.10913931E+00</totfact>
</mgrwt>
</event>
<event>
 6    1  0.1817112E-005  0.2840420E+04  0.7818608E-02  0.8290828E-01
         -2   -1    0    0    0  501 -0.00000000000E+00  0.00000000000E+00  0.83989918579E+03  0.83989918579E+03  0.00000000000E+00 0.  1.
          2   -1    0    0  501    0  0.00000000000E+00 -0.00000000000E+00 -0.24014747329E+04  0.24014747329E+04  0.00000000000E+00 0. -1.
         23    2    1    2    0    0 -0.21790657306E+03  0.15777779457E+03 -0.23712502616E+04  0.23881739126E+04  0.90386539133E+02 0.  0.
         11    1    3    3    0    0 -0.15469334509E+03  0.14991647293E+03 -0.16262745428E+04  0.16404797678E+04  0.00000000000E+00 0. -1.
        -11    1    3    3    0    0 -0.63213227969E+02  0.78613216467E+01 -0.74497571884E+03  0.74769414484E+03  0.00000000000E+00 0.  1.
         22    1    1    2    0    0  0.21790657306E+03 -0.15777779457E+03  0.80967471453E+03  0.85320000609E+03  0.00000000000E+00 0.  1.
<mgrwt>
<rscale>  0 0.28404202E+04</rscale>
<asrwt>0</asrwt>
<pdfrwt beam="1">  1        2 0.36945765E+00 0.28404202E+04</pdfrwt>
<pdfrwt beam="2">  1       -2 0.12921526E+00 0.28404202E+04</pdfrwt>
<totfact> 0.15173474E+00</totfact>
</mgrwt>
</event>
<event>
 6    1  0.1817112E-005  0.8325488E+03  0.7818608E-02  0.9514063E-01
         -2   -1    0    0    0  501 -0.00000000000E+00  0.00000000000E+00  0.83969714578E+02  0.83969714578E+02  0.00000000000E+00 0.  1.
          2   -1    0    0  501    0  0.00000000000E+00 -0.00000000000E+00 -0.20636531503E+04  0.20636531503E+04  0.00000000000E+00 0. -1.
         23    2    1    2    0    0 -0.20184025789E+03 -0.35915482374E+03 -0.96418737468E+03  0.10517378677E+04  0.82240936741E+02 0.  0.
         13    1    3    3    0    0 -0.40292974301E+02 -0.14249809716E+03 -0.29631111742E+03  0.33125444869E+03  0.00000000000E+00 0. -1.
        -13    1    3    3    0    0 -0.16154728358E+03 -0.21665672657E+03 -0.66787625726E+03  0.72048341898E+03  0.00000000000E+00 0.  1.
         22    1    1    2    0    0  0.20184025789E+03  0.35915482374E+03 -0.10154960610E+04  0.10958849972E+04  0.00000000000E+00 0.  1.
<mgrwt>
<rscale>  0 0.83254878E+03</rscale>
<asrwt>0</asrwt>
<pdfrwt beam="1">  1        2 0.31748509E+00 0.83254878E+03</pdfrwt>
<pdfrwt beam="2">  1       -2 0.12918418E-01 0.83254878E+03</pdfrwt>
<totfact> 0.28240612E+02</totfact>
</mgrwt>
</event>
<event>
 6    1  0.1817112E-005  0.9850443E+03  0.7818608E-02  0.9325102E-01
         -1   -1    0    0    0  501 -0.00000000000E+00  0.00000000000E+00  0.63769938460E+03  0.63769938460E+03  0.00000000000E+00 0.  1.
          1   -1    0    0  501    0  0.00000000000E+00 -0.00000000000E+00 -0.38039564278E+03  0.38039564278E+03  0.00000000000E+00 0. -1.
         23    2    1    2    0    0  0.34540718584E+03 -0.10425486991E+03  0.47129808594E+03  0.59860869716E+03  0.77687093990E+02 0.  0.
         11    1    3    3    0    0  0.23357702310E+03 -0.31658054792E+02  0.29756066513E+03  0.37960875594E+03  0.00000000000E+00 0. -1.
        -11    1    3    3    0    0  0.11183016274E+03 -0.72596815118E+02  0.17373742082E+03  0.21899994122E+03  0.00000000000E+00 0.  1.
         22    1    1    2    0    0 -0.34540718584E+03  0.10425486991E+03 -0.21399434412E+03  0.41948633022E+03  0.00000000000E+00 0. -1.
<mgrwt>
<rscale>  0 0.98504430E+03</rscale>
<asrwt>0</asrwt>
<pdfrwt beam="1">  1        1 0.58522407E-01 0.98504430E+03</pdfrwt>
<pdfrwt beam="2">  1       -1 0.98107597E-01 0.98504430E+03</pdfrwt>
<totfact> 0.64124156E+01</totfact>
</mgrwt>
</event>
<event>
 6    1  0.1817112E-005  0.1552158E+04  0.7818608E-02  0.8850491E-01
          2   -1    0    0  501    0  0.00000000000E+00  0.00000000000E+00  0.75313656865E+03  0.75313656865E+03  0.00000000000E+00 0. -1.
         -2   -1    0    0    0  501 -0.00000000000E+00 -0.00000000000E+00 -0.79972031611E+03  0.79972031611E+03  0.00000000000E+00 0.  1.
         23    2    1    2    0    0  0.76181136036E+02  0.31972920728E+03 -0.72385347528E+03  0.80004574264E+03  0.89883286310E+02 0.  0.
         13    1    3    3    0    0  0.47366487374E+02  0.26104903971E+03 -0.48987791043E+03  0.55710910277E+03  0.00000000000E+00 0. -1.
        -13    1    3    3    0    0  0.28814648662E+02  0.58680167576E+02 -0.23397556485E+03  0.24293663987E+03  0.00000000000E+00 0.  1.
         22    1    1    2    0    0 -0.76181136036E+02 -0.31972920728E+03  0.67726972782E+03  0.75281114212E+03  0.00000000000E+00 0. -1.
<mgrwt>
<rscale>  0 0.15521580E+04</rscale>
<asrwt>0</asrwt>
<pdfrwt beam="1">  1        2 0.11586717E+00 0.15521580E+04</pdfrwt>
<pdfrwt beam="2">  1       -2 0.12303389E+00 0.15521580E+04</pdfrwt>
<totfact> 0.17906685E+01</totfact>
</mgrwt>
</event>
<event>
 6    1  0.1817112E-005  0.3373197E+04  0.7818608E-02  0.8144516E-01
          2   -1    0    0  501    0  0.00000000000E+00  0.00000000000E+00  0.32035908614E+04  0.32035908614E+04  0.00000000000E+00 0. -1.
         -2   -1    0    0    0  501 -0.00000000000E+00 -0.00000000000E+00 -0.88794579648E+03  0.88794579648E+03  0.00000000000E+00 0.  1.
         23    2    1    2    0    0  0.15738116806E+04  0.58515984862E+03  0.98081205893E+03  0.19465251408E+04  0.87593231682E+02 0.  0.
         13    1    3    3    0    0  0.70123072372E+03  0.23972327249E+03  0.38799330654E+03  0.83649900249E+03  0.00000000000E+00 0. -1.
        -13    1    3    3    0    0  0.87258095693E+03  0.34543657613E+03  0.59281875239E+03  0.11100261383E+04  0.00000000000E+00 0.  1.
         22    1    1    2    0    0 -0.15738116806E+04 -0.58515984862E+03  0.13348330060E+04  0.21450115171E+04  0.00000000000E+00 0. -1.
<mgrwt>
<rscale>  0 0.33731973E+04</rscale>
<asrwt>0</asrwt>
<pdfrwt beam="1">  1        2 0.49286013E+00 0.33731973E+04</pdfrwt>
<pdfrwt beam="2">  1       -2 0.13660705E+00 0.33731973E+04</pdfrwt>
<totfact> 0.40942623E-01</totfact>
</mgrwt>
</event>
<event>
 6    1  0.1817112E-005  0.1788249E+04  0.7818608E-02  0.8712573E-01
          2   -1    0    0  501    0  0.00000000000E+00  0.00000000000E+00  0.45601823479E+03  0.45601823479E+03  0.00000000000E+00 0. -1.
         -2   -1    0    0    0  501 -0.00000000000E+00 -0.00000000000E+00 -0.17531292536E+04  0.17531292536E+04  0.00000000000E+00 0.  1.
         23    2    1    2    0    0 -0.74622271531E+03  0.48510295115E+03 -0.71931436804E+03  0.11480055640E+04  0.91271029781E+02 0.  0.
         11    1    3    3    0    0 -0.11565628571E+03  0.10938912396E+03 -0.15446295617E+03  0.22181334878E+03  0.00000000000E+00 0.  1.
        -11    1    3    3    0    0 -0.63056642959E+03  0.37571382719E+03 -0.56485141186E+03  0.92619221523E+03  0.00000000000E+00 0. -1.
         22    1    1    2    0    0  0.74622271531E+03 -0.48510295115E+03 -0.57779665081E+03  0.10611419244E+04  0.00000000000E+00 0.  1.
<mgrwt>
<rscale>  0 0.17882493E+04</rscale>
<asrwt>0</asrwt>
<pdfrwt beam="1">  1        2 0.70156650E-01 0.17882493E+04</pdfrwt>
<pdfrwt beam="2">  1       -2 0.26971220E+00 0.17882493E+04</pdfrwt>
<totfact> 0.31516051E+00</totfact>
</mgrwt>
</event>
<event>
 6    1  0.1817112E-005  0.2416214E+04  0.7818608E-02  0.8433458E-01
         -2   -1    0    0    0  501 -0.00000000000E+00  0.00000000000E+00  0.58270267677E+03  0.58270267677E+03  0.00000000000E+00 0. -1.
          2   -1    0    0  501    0  0.00000000000E+00 -0.00000000000E+00 -0.25047455522E+04  0.25047455522E+04  0.00000000000E+00 0.  1.
         23    2    1    2    0    0  0.21645949871E+03  0.57545641440E+03  0.36398727003E+03  0.72018427551E+03  0.90409393790E+02 0.  0.
         11    1    3    3    0    0  0.17620871487E+02  0.15819708904E+03  0.89555945397E+02  0.18263921114E+03  0.00000000000E+00 0. -1.
        -11    1    3    3    0    0  0.19883862723E+03  0.41725932536E+03  0.27443132463E+03  0.53754506436E+03  0.00000000000E+00 0.  1.
         22    1    1    2    0    0 -0.21645949871E+03 -0.57545641440E+03 -0.22860301455E+04  0.23672639535E+04  0.00000000000E+00 0.  1.
<mgrwt>
<rscale>  0 0.24162135E+04</rscale>
<asrwt>0</asrwt>
<pdfrwt beam="1">  1        2 0.38534547E+00 0.24162135E+04</pdfrwt>
<pdfrwt beam="2">  1       -2 0.89646566E-01 0.24162135E+04</pdfrwt>
<totfact> 0.33124437E+00</totfact>
</mgrwt>
</event>
<event>
 6    1  0.1817112E-005  0.2420514E+04  0.7818608E-02  0.8431863E-01
          1   -1    0    0  501    0  0.00000000000E+00  0.00000000000E+00  0.10028473847E+04  0.10028473847E+04  0.00000000000E+00 0. -1.
         -1   -1    0    0    0  501 -0.00000000000E+00 -0.00000000000E+00 -0.14605633791E+04  0.14605633791E+04  0.00000000000E+00 0.  1.
         23    2    1    2    0    0  0.70447794067E+03  0.91175368444E+03  0.14204639890E+03  0.11644500722E+04  0.90459057966E+02 0.  0.
         11    1    3    3    0    0  0.31009641697E+03  0.46996139216E+03  0.52258101988E+02  0.56546830784E+03  0.00000000000E+00 0. -1.
        -11    1    3    3    0    0  0.39438152370E+03  0.44179229227E+03  0.89788296909E+02  0.59898176434E+03  0.00000000000E+00 0.  1.
         22    1    1    2    0    0 -0.70447794067E+03 -0.91175368444E+03 -0.59976239331E+03  0.12989606916E+04  0.00000000000E+00 0.  1.
<mgrwt>
<rscale>  0 0.24205141E+04</rscale>
<asrwt>0</asrwt>
<pdfrwt beam="1">  1        1 0.15428421E+00 0.24205141E+04</pdfrwt>
<pdfrwt beam="2">  1       -1 0.22470206E+00 0.24205141E+04</pdfrwt>
<totfact> 0.13784030E+00</totfact>
</mgrwt>
</event>
<event>
 6    1  0.1817112E-005  0.2040609E+04  0.7818608E-02  0.8587867E-01
          2   -1    0    0  501    0  0.00000000000E+00  0.00000000000E+00  0.12155847039E+04  0.12155847039E+04  0.00000000000E+00 0. -1.
         -2   -1    0    0    0  501 -0.00000000000E+00 -0.00000000000E+00 -0.85639526023E+03  0.85639526023E+03  0.00000000000E+00 0.  1.
         23    2    1    2    0    0 -0.61796251763E+03 -0.46600848833E+03 -0.49187646047E+03  0.92160839041E+03  0.91531352607E+02 0.  0.
         13    1    3    3    0    0 -0.13388618558E+03 -0.11766575033E+03 -0.71948718574E+02  0.19221695450E+03  0.00000000000E+00 0. -1.
        -13    1    3    3    0    0 -0.48407633204E+03 -0.34834273800E+03 -0.41992774190E+03  0.72939143591E+03  0.00000000000E+00 0.  1.
         22    1    1    2    0    0  0.61796251763E+03  0.46600848833E+03  0.85106590410E+03  0.11503715737E+04  0.00000000000E+00 0. -1.
<mgrwt>
<rscale>  0 0.20406087E+04</rscale>
<asrwt>0</asrwt>
<pdfrwt beam="1">  1        2 0.18701303E+00 0.20406087E+04</pdfrwt>
<pdfrwt beam="2">  1       -2 0.13175312E+00 0.20406087E+04</pdfrwt>
<totfact> 0.72076063E+00</totfact>
</mgrwt>
</event>
<event>
 6    1  0.1817112E-005  0.2808697E+04  0.7818608E-02  0.8300573E-01
          2   -1    0    0  501    0  0.00000000000E+00  0.00000000000E+00  0.17236566660E+04  0.17236566660E+04  0.00000000000E+00 0. -1.
         -2   -1    0    0    0  501 -0.00000000000E+00 -0.00000000000E+00 -0.11441920984E+04  0.11441920984E+04  0.00000000000E+00 0.  1.
         23    2    1    2    0    0 -0.89657943407E+03 -0.21557768923E+03 -0.78894175768E+03  0.12177383764E+04  0.10064409891E+03 0.  0.
         13    1    3    3    0    0 -0.39401079604E+03 -0.14565886214E+03 -0.36736417740E+03  0.55804789252E+03  0.00000000000E+00 0. -1.
        -13    1    3    3    0    0 -0.50256863803E+03 -0.69918827086E+02 -0.42157758028E+03  0.65969048387E+03  0.00000000000E+00 0.  1.
         22    1    1    2    0    0  0.89657943407E+03  0.21557768923E+03  0.13684063252E+04  0.16501103880E+04  0.00000000000E+00 0. -1.
<mgrwt>
<rscale>  0 0.28086967E+04</rscale>
<asrwt>0</asrwt>
<pdfrwt beam="1">  1        2 0.26517795E+00 0.28086967E+04</pdfrwt>
<pdfrwt beam="2">  1       -2 0.17602955E+00 0.28086967E+04</pdfrwt>
<totfact> 0.15988782E+00</totfact>
</mgrwt>
</event>
<event>
 6    1  0.2099933E-005  0.2210500E+04  0.7818608E-02  0.8514070E-01
          2   -1    0    0  501    0  0.00000000000E+00  0.00000000000E+00  0.89675607542E+03  0.89675607542E+03  0.00000000000E+00 0. -1.
         -2   -1    0    0    0  501 -0.00000000000E+00 -0.00000000000E+00 -0.13622187806E+04  0.13622187806E+04  0.00000000000E+00 0.  1.
         23    2    1    2    0    0  0.52300168989E+03  0.33338375805E+03  0.69933963155E+03  0.93933854953E+03  0.92765794456E+02 0.  0.
         13    1    3    3    0    0  0.21846725606E+03  0.18884875229E+03  0.29320873266E+03  0.41153754886E+03  0.00000000000E+00 0.  1.
        -13    1    3    3    0    0  0.30453443383E+03  0.14453500575E+03  0.40613089889E+03  0.52780100067E+03  0.00000000000E+00 0. -1.
         22    1    1    2    0    0 -0.52300168989E+03 -0.33338375805E+03 -0.11648023367E+04  0.13196363065E+04  0.00000000000E+00 0. -1.
<mgrwt>
<rscale>  0 0.22105004E+04</rscale>
<asrwt>0</asrwt>
<pdfrwt beam="1">  1        2 0.13796247E+00 0.22105004E+04</pdfrwt>
<pdfrwt beam="2">  1       -2 0.20957212E+00 0.22105004E+04</pdfrwt>
<totfact> 0.31004678E+00</totfact>
</mgrwt>
</event>
<event>
 6    1  0.1817112E-005  0.9997776E+03  0.7818608E-02  0.9308789E-01
          2   -1    0    0  501    0  0.00000000000E+00  0.00000000000E+00  0.36039078019E+04  0.36039078019E+04  0.00000000000E+00 0. -1.
         -2   -1    0    0    0  501 -0.00000000000E+00 -0.00000000000E+00 -0.69338292256E+02  0.69338292256E+02  0.00000000000E+00 0.  1.
         23    2    1    2    0    0 -0.10527313878E+03  0.25020219578E+03  0.33057902761E+04  0.33182481924E+04  0.94011406984E+02 0.  0.
         13    1    3    3    0    0 -0.56417850594E+02  0.15664782331E+03  0.25058704591E+04  0.25113956821E+04  0.00000000000E+00 0. -1.
        -13    1    3    3    0    0 -0.48855288186E+02  0.93554372471E+02  0.79991981701E+03  0.80685251033E+03  0.00000000000E+00 0.  1.
         22    1    1    2    0    0  0.10527313878E+03 -0.25020219578E+03  0.22877923357E+03  0.35499790173E+03  0.00000000000E+00 0.  1.
<mgrwt>
<rscale>  0 0.99977760E+03</rscale>
<asrwt>0</asrwt>
<pdfrwt beam="1">  1        2 0.55444721E+00 0.99977760E+03</pdfrwt>
<pdfrwt beam="2">  1       -2 0.10667432E-01 0.99977760E+03</pdfrwt>
<totfact> 0.44253504E+01</totfact>
</mgrwt>
</event>
<event>
 6    1  0.1817112E-005  0.1252707E+04  0.7818608E-02  0.9067934E-01
          2   -1    0    0  501    0  0.00000000000E+00  0.00000000000E+00  0.25848424751E+04  0.25848424751E+04  0.00000000000E+00 0.  1.
         -2   -1    0    0    0  501 -0.00000000000E+00 -0.00000000000E+00 -0.15177654563E+03  0.15177654563E+03  0.00000000000E+00 0. -1.
         23    2    1    2    0    0 -0.59663647597E+03 -0.12867576801E+03  0.14960646783E+04  0.16183597116E+04  0.91356974629E+02 0.  0.
         13    1    3    3    0    0 -0.17896231309E+03 -0.34425725211E+02  0.34386039534E+03  0.38916912974E+03  0.00000000000E+00 0. -1.
        -13    1    3    3    0    0 -0.41767416289E+03 -0.94250042799E+02  0.11522042830E+04  0.12291905819E+04  0.00000000000E+00 0.  1.
         22    1    1    2    0    0  0.59663647597E+03  0.12867576801E+03  0.93700125121E+03  0.11182593092E+04  0.00000000000E+00 0.  1.
<mgrwt>
<rscale>  0 0.12527066E+04</rscale>
<asrwt>0</asrwt>
<pdfrwt beam="1">  1        2 0.39766804E+00 0.12527066E+04</pdfrwt>
<pdfrwt beam="2">  1       -2 0.23350240E-01 0.12527066E+04</pdfrwt>
<totfact> 0.49894039E+01</totfact>
</mgrwt>
</event>
<event>
 6    1  0.1817112E-005  0.1908563E+04  0.7818608E-02  0.8650606E-01
         -2   -1    0    0    0  501 -0.00000000000E+00  0.00000000000E+00  0.74512530027E+03  0.74512530027E+03  0.00000000000E+00 0.  1.
          2   -1    0    0  501    0  0.00000000000E+00 -0.00000000000E+00 -0.12221474923E+04  0.12221474923E+04  0.00000000000E+00 0. -1.
         23    2    1    2    0    0 -0.75724933800E+03  0.44967032719E+03  0.13431678838E+03  0.89518822875E+03  0.87698359075E+02 0.  0.
         13    1    3    3    0    0 -0.41504433926E+03  0.23145262963E+03  0.11464163358E+03  0.48885051649E+03  0.00000000000E+00 0.  1.
        -13    1    3    3    0    0 -0.34220499874E+03  0.21821769756E+03  0.19675154804E+02  0.40633771226E+03  0.00000000000E+00 0. -1.
         22    1    1    2    0    0  0.75724933800E+03 -0.44967032719E+03 -0.61133898045E+03  0.10720845639E+04  0.00000000000E+00 0. -1.
<mgrwt>
<rscale>  0 0.19085628E+04</rscale>
<asrwt>0</asrwt>
<pdfrwt beam="1">  1        2 0.18802269E+00 0.19085628E+04</pdfrwt>
<pdfrwt beam="2">  1       -2 0.11463466E+00 0.19085628E+04</pdfrwt>
<totfact> 0.10220386E+01</totfact>
</mgrwt>
</event>
<event>
 6    1  0.1817112E-005  0.4967398E+04  0.7818608E-02  0.7833556E-01
         -2   -1    0    0    0  501 -0.00000000000E+00  0.00000000000E+00  0.36406378341E+04  0.36406378341E+04  0.00000000000E+00 0.  1.
          2   -1    0    0  501    0  0.00000000000E+00 -0.00000000000E+00 -0.16944178780E+04  0.16944178780E+04  0.00000000000E+00 0. -1.
         23    2    1    2    0    0 -0.82917345060E+03  0.14616655023E+04  0.29364787570E+04  0.33845154935E+04  0.89682684598E+02 0.  0.
         11    1    3    3    0    0 -0.27076171703E+03  0.39670876240E+03  0.82284850668E+03  0.95276933962E+03  0.00000000000E+00 0. -1.
        -11    1    3    3    0    0 -0.55841173358E+03  0.10649567399E+04  0.21136302503E+04  0.24317461539E+04  0.00000000000E+00 0.  1.
         22    1    1    2    0    0  0.82917345060E+03 -0.14616655023E+04 -0.99025880087E+03  0.19505402186E+04  0.00000000000E+00 0. -1.
<mgrwt>
<rscale>  0 0.49673984E+04</rscale>
<asrwt>0</asrwt>
<pdfrwt beam="1">  1        2 0.26067967E+00 0.49673984E+04</pdfrwt>
<pdfrwt beam="2">  1       -2 0.56009813E+00 0.49673984E+04</pdfrwt>
<totfact> 0.55327378E-03</totfact>
</mgrwt>
</event>
<event>
 6    1  0.1817112E-005  0.8455885E+03  0.7818608E-02  0.9496277E-01
          2   -1    0    0  501    0  0.00000000000E+00  0.00000000000E+00  0.31932586266E+04  0.31932586266E+04  0.00000000000E+00 0. -1.
         -2   -1    0    0    0  501 -0.00000000000E+00 -0.00000000000E+00 -0.55978854488E+02  0.55978854488E+02  0.00000000000E+00 0.  1.
         23    2    1    2    0    0  0.66242251841E+02  0.38822260663E+03  0.21235118947E+04  0.21616575357E+04  0.91409554708E+02 0.  0.
         11    1    3    3    0    0  0.71327674599E+02  0.23046727693E+03  0.11087146153E+04  0.11346589360E+04  0.00000000000E+00 0.  1.
        -11    1    3    3    0    0 -0.50854227581E+01  0.15775532970E+03  0.10147972794E+04  0.10269985997E+04  0.00000000000E+00 0. -1.
         22    1    1    2    0    0 -0.66242251841E+02 -0.38822260663E+03  0.10137678774E+04  0.10875799453E+04  0.00000000000E+00 0.  1.
<mgrwt>
<rscale>  0 0.84558846E+03</rscale>
<asrwt>0</asrwt>
<pdfrwt beam="1">  1        2 0.49127042E+00 0.84558846E+03</pdfrwt>
<pdfrwt beam="2">  1       -2 0.86121340E-02 0.84558846E+03</pdfrwt>
<totfact> 0.12030970E+02</totfact>
</mgrwt>
</event>
<event>
 6    1  0.1817112E-005  0.1872370E+04  0.7818608E-02  0.8668733E-01
         -2   -1    0    0    0  501 -0.00000000000E+00  0.00000000000E+00  0.29240029389E+03  0.29240029389E+03  0.00000000000E+00 0.  1.
          2   -1    0    0  501    0  0.00000000000E+00 -0.00000000000E+00 -0.29974070549E+04  0.29974070549E+04  0.00000000000E+00 0. -1.
         23    2    1    2    0    0 -0.85626728943E+03 -0.11719226399E+03 -0.73045138961E+03  0.11343963410E+04  0.79800552990E+02 0.  0.
         11    1    3    3    0    0 -0.39050699693E+03 -0.18625243657E+02 -0.35513426937E+03  0.52816944594E+03  0.00000000000E+00 0.  1.
        -11    1    3    3    0    0 -0.46576029251E+03 -0.98567020333E+02 -0.37531712024E+03  0.60622689508E+03  0.00000000000E+00 0. -1.
         22    1    1    2    0    0  0.85626728943E+03  0.11719226399E+03 -0.19745553714E+04  0.21554110077E+04  0.00000000000E+00 0. -1.
<mgrwt>
<rscale>  0 0.18723704E+04</rscale>
<asrwt>0</asrwt>
<pdfrwt beam="1">  1        2 0.46113955E+00 0.18723704E+04</pdfrwt>
<pdfrwt beam="2">  1       -2 0.44984660E-01 0.18723704E+04</pdfrwt>
<totfact> 0.77126778E+00</totfact>
</mgrwt>
</event>
<event>
 6    1  0.1817112E-005  0.1281149E+04  0.7818608E-02  0.9044649E-01
          2   -1    0    0  501    0  0.00000000000E+00  0.00000000000E+00  0.10221821483E+04  0.10221821483E+04  0.00000000000E+00 0. -1.
         -2   -1    0    0    0  501 -0.00000000000E+00 -0.00000000000E+00 -0.40143113419E+03  0.40143113419E+03  0.00000000000E+00 0.  1.
         23    2    1    2    0    0  0.37502316476E+02 -0.63630797412E+03  0.31753374770E+03  0.71775566770E+03  0.89728790927E+02 0.  0.
         11    1    3    3    0    0 -0.67994726902E+00 -0.32607416858E+03  0.11722703974E+03  0.34650686081E+03  0.00000000000E+00 0.  1.
        -11    1    3    3    0    0  0.38182263745E+02 -0.31023380554E+03  0.20030670796E+03  0.37124880689E+03  0.00000000000E+00 0. -1.
         22    1    1    2    0    0 -0.37502316476E+02  0.63630797412E+03  0.30321726638E+03  0.70585761475E+03  0.00000000000E+00 0. -1.
<mgrwt>
<rscale>  0 0.12811491E+04</rscale>
<asrwt>0</asrwt>
<pdfrwt beam="1">  1        2 0.15725879E+00 0.12811491E+04</pdfrwt>
<pdfrwt beam="2">  1       -2 0.61758636E-01 0.12811491E+04</pdfrwt>
<totfact> 0.58286005E+01</totfact>
</mgrwt>
</event>
<event>
 6    1  0.1817112E-005  0.2389788E+04  0.7818608E-02  0.8443337E-01
          1   -1    0    0  501    0  0.00000000000E+00  0.00000000000E+00  0.21123030415E+04  0.21123030415E+04  0.00000000000E+00 0. -1.
         -1   -1    0    0    0  501 -0.00000000000E+00 -0.00000000000E+00 -0.67593127013E+03  0.67593127013E+03  0.00000000000E+00 0.  1.
         23    2    1    2    0    0 -0.50601086284E+03 -0.51077386234E+03  0.18302392150E+04  0.19684364738E+04  0.89608233681E+02 0.  0.
         11    1    3    3    0    0 -0.38057830908E+02 -0.18973546170E+02  0.15885408955E+03  0.16444760781E+03  0.00000000000E+00 0. -1.
        -11    1    3    3    0    0 -0.46795303193E+03 -0.49180031618E+03  0.16713851255E+04  0.18039888660E+04  0.00000000000E+00 0.  1.
         22    1    1    2    0    0  0.50601086284E+03  0.51077386234E+03 -0.39386744361E+03  0.81979783783E+03  0.00000000000E+00 0.  1.
<mgrwt>
<rscale>  0 0.23897880E+04</rscale>
<asrwt>0</asrwt>
<pdfrwt beam="1">  1        1 0.32496970E+00 0.23897880E+04</pdfrwt>
<pdfrwt beam="2">  1       -1 0.10398943E+00 0.23897880E+04</pdfrwt>
<totfact> 0.19518929E+00</totfact>
</mgrwt>
</event>
<event>
 6    1  0.1817112E-005  0.2716516E+04  0.7818608E-02  0.8329666E-01
         -2   -1    0    0    0  501 -0.00000000000E+00  0.00000000000E+00  0.88573295325E+03  0.88573295325E+03  0.00000000000E+00 0.  1.
          2   -1    0    0  501    0  0.00000000000E+00 -0.00000000000E+00 -0.20828685484E+04  0.20828685484E+04  0.00000000000E+00 0. -1.
         23    2    1    2    0    0 -0.32808430279E+03  0.12917815391E+04 -0.32217132742E+03  0.13742673697E+04  0.92073800488E+02 0.  0.
         11    1    3    3    0    0 -0.31970062011E+03  0.11686220075E+04 -0.30732065446E+03  0.12499327452E+04  0.00000000000E+00 0.  1.
        -11    1    3    3    0    0 -0.83836826758E+01  0.12315953161E+03 -0.14850672960E+02  0.12433462450E+03  0.00000000000E+00 0. -1.
         22    1    1    2    0    0  0.32808430279E+03 -0.12917815391E+04 -0.87496426772E+03  0.15943341319E+04  0.00000000000E+00 0. -1.
<mgrwt>
<rscale>  0 0.27165164E+04</rscale>
<asrwt>0</asrwt>
<pdfrwt beam="1">  1        2 0.32044131E+00 0.27165164E+04</pdfrwt>
<pdfrwt beam="2">  1       -2 0.13626661E+00 0.27165164E+04</pdfrwt>
<totfact> 0.20271646E+00</totfact>
</mgrwt>
</event>
<event>
 6    1  0.1817112E-005  0.7310790E+04  0.7818608E-02  0.7546206E-01
          2   -1    0    0  501    0  0.00000000000E+00  0.00000000000E+00  0.49865168197E+04  0.49865168197E+04  0.00000000000E+00 0.  1.
         -2   -1    0    0    0  501 -0.00000000000E+00 -0.00000000000E+00 -0.26796084995E+04  0.26796084995E+04  0.00000000000E+00 0. -1.
         23    2    1    2    0    0 -0.22234061920E+04  0.84341639845E+03 -0.17566630665E+04  0.29578879919E+04  0.91377939403E+02 0.  0.
         11    1    3    3    0    0 -0.79532619367E+03  0.26293177152E+03 -0.64881507783E+03  0.10595460707E+04  0.00000000000E+00 0. -1.
        -11    1    3    3    0    0 -0.14280799983E+04  0.58048462693E+03 -0.11078479886E+04  0.18983419211E+04  0.00000000000E+00 0.  1.
         22    1    1    2    0    0  0.22234061920E+04 -0.84341639845E+03  0.40635713867E+04  0.47082373273E+04  0.00000000000E+00 0.  1.
<mgrwt>
<rscale>  0 0.73107901E+04</rscale>
<asrwt>0</asrwt>
<pdfrwt beam="1">  1        2 0.76715643E+00 0.73107901E+04</pdfrwt>
<pdfrwt beam="2">  1       -2 0.41224746E+00 0.73107901E+04</pdfrwt>
<totfact> 0.13120570E-04</totfact>
</mgrwt>
</event>
<event>
 6    1  0.1817112E-005  0.7469376E+03  0.7818608E-02  0.9640167E-01
         -1   -1    0    0    0  501 -0.00000000000E+00  0.00000000000E+00  0.73512595541E+02  0.73512595541E+02  0.00000000000E+00 0.  1.
          1   -1    0    0  501    0  0.00000000000E+00 -0.00000000000E+00 -0.18973474252E+04  0.18973474252E+04  0.00000000000E+00 0. -1.
         23    2    1    2    0    0 -0.19903916165E+03  0.23586698947E+03 -0.39705933841E+03  0.51108670717E+03  0.91124527081E+02 0.  0.
         13    1    3    3    0    0 -0.15470081973E+03  0.16330203938E+03 -0.21988982896E+03  0.31456547263E+03  0.00000000000E+00 0. -1.
        -13    1    3    3    0    0 -0.44338341912E+02  0.72564950089E+02 -0.17716950945E+03  0.19652123454E+03  0.00000000000E+00 0.  1.
         22    1    1    2    0    0  0.19903916165E+03 -0.23586698947E+03 -0.14267754913E+04  0.14597733136E+04  0.00000000000E+00 0. -1.
<mgrwt>
<rscale>  0 0.74693757E+03</rscale>
<asrwt>0</asrwt>
<pdfrwt beam="1">  1        1 0.29189958E+00 0.74693757E+03</pdfrwt>
<pdfrwt beam="2">  1       -1 0.11309631E-01 0.74693757E+03</pdfrwt>
<totfact> 0.18643469E+02</totfact>
</mgrwt>
</event>
<event>
 6    1  0.1817112E-005  0.2144639E+04  0.7818608E-02  0.8541831E-01
         -2   -1    0    0    0  501 -0.00000000000E+00  0.00000000000E+00  0.41886958626E+03  0.41886958626E+03  0.00000000000E+00 0.  1.
          2   -1    0    0  501    0  0.00000000000E+00 -0.00000000000E+00 -0.27451717628E+04  0.27451717628E+04  0.00000000000E+00 0. -1.
         23    2    1    2    0    0 -0.14378268169E+03  0.97534445302E+03 -0.17802562584E+04  0.20370380632E+04  0.90782508316E+02 0.  0.
         13    1    3    3    0    0 -0.20594288300E+02  0.25356237648E+03 -0.53632461426E+03  0.59360095632E+03  0.00000000000E+00 0. -1.
        -13    1    3    3    0    0 -0.12318839339E+03  0.72178207653E+03 -0.12439316442E+04  0.14434371069E+04  0.00000000000E+00 0.  1.
         22    1    1    2    0    0  0.14378268169E+03 -0.97534445302E+03 -0.54604591812E+03  0.11270032858E+04  0.00000000000E+00 0.  1.
<mgrwt>
<rscale>  0 0.21446389E+04</rscale>
<asrwt>0</asrwt>
<pdfrwt beam="1">  1        2 0.42233413E+00 0.21446389E+04</pdfrwt>
<pdfrwt beam="2">  1       -2 0.64441472E-01 0.21446389E+04</pdfrwt>
<totfact> 0.50993688E+00</totfact>
</mgrwt>
</event>
<event>
 6    1  0.1817112E-005  0.3152769E+04  0.7818608E-02  0.8201403E-01
          2   -1    0    0  501    0  0.00000000000E+00  0.00000000000E+00  0.20599763686E+04  0.20599763686E+04  0.00000000000E+00 0.  1.
         -2   -1    0    0    0  501 -0.00000000000E+00 -0.00000000000E+00 -0.12063191181E+04  0.12063191181E+04  0.00000000000E+00 0. -1.
         23    2    1    2    0    0  0.25933294331E+03  0.15384127191E+04  0.20287754337E+03  0.15758868092E+04  0.91064088167E+02 0.  0.
         11    1    3    3    0    0  0.26347485108E+03  0.14702071538E+04  0.20432686743E+03  0.15075402286E+04  0.00000000000E+00 0.  1.
        -11    1    3    3    0    0 -0.41419077767E+01  0.68205565344E+02 -0.14493240631E+01  0.68346580633E+02  0.00000000000E+00 0. -1.
         22    1    1    2    0    0 -0.25933294331E+03 -0.15384127191E+04  0.65077970713E+03  0.16904086775E+04  0.00000000000E+00 0.  1.
<mgrwt>
<rscale>  0 0.31527695E+04</rscale>
<asrwt>0</asrwt>
<pdfrwt beam="1">  1        2 0.31691944E+00 0.31527695E+04</pdfrwt>
<pdfrwt beam="2">  1       -2 0.18558756E+00 0.31527695E+04</pdfrwt>
<totfact> 0.86823957E-01</totfact>
</mgrwt>
</event>
<event>
 6    1  0.1817112E-005  0.1899567E+04  0.7818608E-02  0.8655072E-01
          2   -1    0    0  501    0  0.00000000000E+00  0.00000000000E+00  0.67213725725E+03  0.67213725725E+03  0.00000000000E+00 0. -1.
         -2   -1    0    0    0  501 -0.00000000000E+00 -0.00000000000E+00 -0.13421191001E+04  0.13421191001E+04  0.00000000000E+00 0.  1.
         23    2    1    2    0    0  0.33913652980E+03  0.85043351371E+03 -0.59463272741E+03  0.10956006894E+04  0.92206523684E+02 0.  0.
         11    1    3    3    0    0  0.10526130906E+03  0.28309180320E+03 -0.14616848906E+03  0.33553858112E+03  0.00000000000E+00 0.  1.
        -11    1    3    3    0    0  0.23387522075E+03  0.56734171051E+03 -0.44846423835E+03  0.76006210828E+03  0.00000000000E+00 0. -1.
         22    1    1    2    0    0 -0.33913652980E+03 -0.85043351371E+03 -0.75349115444E+02  0.91865566797E+03  0.00000000000E+00 0.  1.
<mgrwt>
<rscale>  0 0.18995665E+04</rscale>
<asrwt>0</asrwt>
<pdfrwt beam="1">  1        2 0.10340573E+00 0.18995665E+04</pdfrwt>
<pdfrwt beam="2">  1       -2 0.20647986E+00 0.18995665E+04</pdfrwt>
<totfact> 0.48702809E+00</totfact>
</mgrwt>
</event>
<event>
 6    1  0.1817112E-005  0.9463348E+03  0.7818608E-02  0.9369445E-01
          2   -1    0    0  501    0  0.00000000000E+00  0.00000000000E+00  0.12443945142E+04  0.12443945142E+04  0.00000000000E+00 0.  1.
         -2   -1    0    0    0  501 -0.00000000000E+00 -0.00000000000E+00 -0.17991671823E+03  0.17991671823E+03  0.00000000000E+00 0. -1.
         23    2    1    2    0    0 -0.18297529445E+03 -0.96686863384E+02 -0.95926784511E+02  0.24559706082E+03  0.91036588081E+02 0.  0.
         13    1    3    3    0    0 -0.16402249895E+02 -0.36287676644E+02  0.73716480502E+01  0.40499018171E+02  0.00000000000E+00 0. -1.
        -13    1    3    3    0    0 -0.16657304455E+03 -0.60399186740E+02 -0.10329843256E+03  0.20509804265E+03  0.00000000000E+00 0.  1.
         22    1    1    2    0    0  0.18297529445E+03  0.96686863384E+02  0.11604045804E+04  0.11787141716E+04  0.00000000000E+00 0.  1.
<mgrwt>
<rscale>  0 0.94633478E+03</rscale>
<asrwt>0</asrwt>
<pdfrwt beam="1">  1        2 0.19144530E+00 0.94633478E+03</pdfrwt>
<pdfrwt beam="2">  1       -2 0.27679496E-01 0.94633478E+03</pdfrwt>
<totfact> 0.21208560E+02</totfact>
</mgrwt>
</event>
<event>
 6    1  0.1817112E-005  0.7319643E+03  0.7818608E-02  0.9664078E-01
          2   -1    0    0  501    0  0.00000000000E+00  0.00000000000E+00  0.81074285535E+03  0.81074285535E+03  0.00000000000E+00 0. -1.
         -2   -1    0    0    0  501 -0.00000000000E+00 -0.00000000000E+00 -0.16521013953E+03  0.16521013953E+03  0.00000000000E+00 0.  1.
         23    2    1    2    0    0  0.33933934160E+03  0.12042110779E+03  0.29453877414E+03  0.47311188771E+03  0.86193601046E+02 0.  0.
         13    1    3    3    0    0  0.25497484448E+03  0.61073560306E+02  0.17501450018E+03  0.31523360601E+03  0.00000000000E+00 0. -1.
        -13    1    3    3    0    0  0.84364497122E+02  0.59347547480E+02  0.11952427396E+03  0.15787828170E+03  0.00000000000E+00 0.  1.
         22    1    1    2    0    0 -0.33933934160E+03 -0.12042110779E+03  0.35099394168E+03  0.50284110717E+03  0.00000000000E+00 0.  1.
<mgrwt>
<rscale>  0 0.73196432E+03</rscale>
<asrwt>0</asrwt>
<pdfrwt beam="1">  1        2 0.12472967E+00 0.73196432E+03</pdfrwt>
<pdfrwt beam="2">  1       -2 0.25416945E-01 0.73196432E+03</pdfrwt>
<totfact> 0.47334096E+02</totfact>
</mgrwt>
</event>
<event>
 6    1  0.1817112E-005  0.8242708E+03  0.7818608E-02  0.9525536E-01
         -2   -1    0    0    0  501 -0.00000000000E+00  0.00000000000E+00  0.65023209745E+02  0.65023209745E+02  0.00000000000E+00 0.  1.
          2   -1    0    0  501    0  0.00000000000E+00 -0.00000000000E+00 -0.26122299883E+04  0.26122299883E+04  0.00000000000E+00 0. -1.
         23    2    1    2    0    0 -0.23060204578E+03  0.67759140751E+02 -0.23566632875E+04  0.23705360211E+04  0.88377440344E+02 0.  0.
         11    1    3    3    0    0 -0.12881036184E+03  0.78124323892E+02 -0.15790418215E+04  0.15862120266E+04  0.00000000000E+00 0.  1.
        -11    1    3    3    0    0 -0.10179168393E+03 -0.10365183141E+02 -0.77762146598E+03  0.78432399446E+03  0.00000000000E+00 0. -1.
         22    1    1    2    0    0  0.23060204578E+03 -0.67759140751E+02 -0.19054349112E+03  0.30671717702E+03  0.00000000000E+00 0.  1.
<mgrwt>
<rscale>  0 0.82427078E+03</rscale>
<asrwt>0</asrwt>
<pdfrwt beam="1">  1        2 0.40188148E+00 0.82427078E+03</pdfrwt>
<pdfrwt beam="2">  1       -2 0.10003572E-01 0.82427078E+03</pdfrwt>
<totfact> 0.21230674E+02</totfact>
</mgrwt>
</event>
<event>
 6    1  0.1817112E-005  0.2526151E+04  0.7818608E-02  0.8393728E-01
         -2   -1    0    0    0  501 -0.00000000000E+00  0.00000000000E+00  0.75628563962E+03  0.75628563962E+03  0.00000000000E+00 0.  1.
          2   -1    0    0  501    0  0.00000000000E+00 -0.00000000000E+00 -0.21094669954E+04  0.21094669954E+04  0.00000000000E+00 0. -1.
         23    2    1    2    0    0  0.12042204605E+03 -0.67202616399E+03 -0.18806672039E+04  0.20029884991E+04  0.94515401770E+02 0.  0.
         13    1    3    3    0    0  0.13236954928E+02 -0.33328790847E+03 -0.94474537872E+03  0.10018981373E+04  0.00000000000E+00 0. -1.
        -13    1    3    3    0    0  0.10718509112E+03 -0.33873825551E+03 -0.93592182521E+03  0.10010903618E+04  0.00000000000E+00 0.  1.
         22    1    1    2    0    0 -0.12042204605E+03  0.67202616399E+03  0.52748584817E+03  0.86276413594E+03  0.00000000000E+00 0.  1.
<mgrwt>
<rscale>  0 0.25261509E+04</rscale>
<asrwt>0</asrwt>
<pdfrwt beam="1">  1        2 0.32453338E+00 0.25261509E+04</pdfrwt>
<pdfrwt beam="2">  1       -2 0.11635164E+00 0.25261509E+04</pdfrwt>
<totfact> 0.29600549E+00</totfact>
</mgrwt>
</event>
<event>
 6    1  0.1817112E-005  0.3572929E+04  0.7818608E-02  0.8096721E-01
         -2   -1    0    0    0  501 -0.00000000000E+00  0.00000000000E+00  0.13924269295E+04  0.13924269295E+04  0.00000000000E+00 0.  1.
          2   -1    0    0  501    0  0.00000000000E+00 -0.00000000000E+00 -0.22920090510E+04  0.22920090510E+04  0.00000000000E+00 0. -1.
         23    2    1    2    0    0 -0.13136423195E+04 -0.49975642970E+03 -0.15853798323E+04  0.21205526304E+04  0.88891017425E+02 0.  0.
         11    1    3    3    0    0 -0.21147092538E+03 -0.81659969113E+02 -0.30712192199E+03  0.38172264513E+03  0.00000000000E+00 0. -1.
        -11    1    3    3    0    0 -0.11021713941E+04 -0.41809646059E+03 -0.12782579103E+04  0.17388299852E+04  0.00000000000E+00 0.  1.
         22    1    1    2    0    0  0.13136423195E+04  0.49975642970E+03  0.68579771079E+03  0.15638833501E+04  0.00000000000E+00 0.  1.
<mgrwt>
<rscale>  0 0.35729288E+04</rscale>
<asrwt>0</asrwt>
<pdfrwt beam="1">  1        2 0.35261678E+00 0.35729288E+04</pdfrwt>
<pdfrwt beam="2">  1       -2 0.21421953E+00 0.35729288E+04</pdfrwt>
<totfact> 0.40258090E-01</totfact>
</mgrwt>
</event>
<event>
 6    1  0.1817112E-005  0.2758937E+04  0.7818608E-02  0.8316131E-01
         -2   -1    0    0    0  501 -0.00000000000E+00  0.00000000000E+00  0.86361243529E+03  0.86361243529E+03  0.00000000000E+00 0.  1.
          2   -1    0    0  501    0  0.00000000000E+00 -0.00000000000E+00 -0.22034574919E+04  0.22034574919E+04  0.00000000000E+00 0. -1.
         23    2    1    2    0    0  0.10073623449E+03 -0.75064798724E+03  0.60911685129E+03  0.97611973454E+03  0.90367073358E+02 0.  0.
         11    1    3    3    0    0  0.85231321391E+02 -0.30113510811E+03  0.24826049182E+03  0.39947465913E+03  0.00000000000E+00 0. -1.
        -11    1    3    3    0    0  0.15504913101E+02 -0.44951287913E+03  0.36085635947E+03  0.57664507541E+03  0.00000000000E+00 0.  1.
         22    1    1    2    0    0 -0.10073623449E+03  0.75064798724E+03 -0.19489619079E+04  0.20909501926E+04  0.00000000000E+00 0. -1.
<mgrwt>
<rscale>  0 0.27589370E+04</rscale>
<asrwt>0</asrwt>
<pdfrwt beam="1">  1        2 0.33899346E+00 0.27589370E+04</pdfrwt>
<pdfrwt beam="2">  1       -2 0.13286345E+00 0.27589370E+04</pdfrwt>
<totfact> 0.18441679E+00</totfact>
</mgrwt>
</event>
<event>
 6    1  0.1817112E-005  0.2239421E+04  0.7818608E-02  0.8502197E-01
          2   -1    0    0  501    0  0.00000000000E+00  0.00000000000E+00  0.16127153845E+04  0.16127153845E+04  0.00000000000E+00 0.  1.
         -2   -1    0    0    0  501 -0.00000000000E+00 -0.00000000000E+00 -0.77741642895E+03  0.77741642895E+03  0.00000000000E+00 0. -1.
         23    2    1    2    0    0 -0.10185470153E+04 -0.41309298160E+03  0.63561158021E+03  0.12730110135E+04  0.92038718133E+02 0.  0.
         11    1    3    3    0    0 -0.47807284316E+03 -0.23189746832E+03  0.34081025495E+03  0.63125407647E+03  0.00000000000E+00 0. -1.
        -11    1    3    3    0    0 -0.54047417215E+03 -0.18119551328E+03  0.29480132527E+03  0.64175693699E+03  0.00000000000E+00 0.  1.
         22    1    1    2    0    0  0.10185470153E+04  0.41309298160E+03  0.19968737531E+03  0.11171208000E+04  0.00000000000E+00 0. -1.
<mgrwt>
<rscale>  0 0.22394208E+04</rscale>
<asrwt>0</asrwt>
<pdfrwt beam="1">  1        2 0.24811006E+00 0.22394208E+04</pdfrwt>
<pdfrwt beam="2">  1       -2 0.11960253E+00 0.22394208E+04</pdfrwt>
<totfact> 0.53522701E+00</totfact>
</mgrwt>
</event>
<event>
 6    1  0.1817112E-005  0.1298683E+04  0.7818608E-02  0.9030610E-01
          2   -1    0    0  501    0  0.00000000000E+00  0.00000000000E+00  0.45675816008E+03  0.45675816008E+03  0.00000000000E+00 0. -1.
         -2   -1    0    0    0  501 -0.00000000000E+00 -0.00000000000E+00 -0.92312374819E+03  0.92312374819E+03  0.00000000000E+00 0.  1.
         23    2    1    2    0    0 -0.52758640301E+03  0.30546641541E+02 -0.62991771941E+03  0.82668229728E+03  0.85596597264E+02 0.  0.
         13    1    3    3    0    0 -0.34108735736E+02  0.51557217079E+01 -0.81447875775E+02  0.88451929250E+02  0.00000000000E+00 0.  1.
        -13    1    3    3    0    0 -0.49347766727E+03  0.25390919833E+02 -0.54846984364E+03  0.73823036803E+03  0.00000000000E+00 0. -1.
         22    1    1    2    0    0  0.52758640301E+03 -0.30546641541E+02  0.16355213130E+03  0.55319961099E+03  0.00000000000E+00 0. -1.
<mgrwt>
<rscale>  0 0.12986829E+04</rscale>
<asrwt>0</asrwt>
<pdfrwt beam="1">  1        2 0.70270487E-01 0.12986829E+04</pdfrwt>
<pdfrwt beam="2">  1       -2 0.14201904E+00 0.12986829E+04</pdfrwt>
<totfact> 0.23169728E+01</totfact>
</mgrwt>
</event>
<event>
 6    1  0.1817112E-005  0.3652087E+04  0.7818608E-02  0.8078664E-01
          2   -1    0    0  501    0  0.00000000000E+00  0.00000000000E+00  0.25166520436E+04  0.25166520436E+04  0.00000000000E+00 0. -1.
         -2   -1    0    0    0  501 -0.00000000000E+00 -0.00000000000E+00 -0.13249487193E+04  0.13249487193E+04  0.00000000000E+00 0.  1.
         23    2    1    2    0    0  0.17117243174E+04 -0.16347800960E+03 -0.46339383180E+02  0.17227626512E+04  0.95071633709E+02 0.  0.
         13    1    3    3    0    0  0.10017419399E+04 -0.13090244148E+03 -0.58210682485E+02  0.10119342107E+04  0.00000000000E+00 0. -1.
        -13    1    3    3    0    0  0.70998237750E+03 -0.32575568116E+02  0.11871299305E+02  0.71082844044E+03  0.00000000000E+00 0.  1.
         22    1    1    2    0    0 -0.17117243174E+04  0.16347800960E+03  0.12380427075E+04  0.21188381118E+04  0.00000000000E+00 0. -1.
<mgrwt>
<rscale>  0 0.36520870E+04</rscale>
<asrwt>0</asrwt>
<pdfrwt beam="1">  1        2 0.38717724E+00 0.36520870E+04</pdfrwt>
<pdfrwt beam="2">  1       -2 0.20383827E+00 0.36520870E+04</pdfrwt>
<totfact> 0.34679440E-01</totfact>
</mgrwt>
</event>
<event>
 6    1  0.1817112E-005  0.3336838E+04  0.7818608E-02  0.8153585E-01
         -2   -1    0    0    0  501 -0.00000000000E+00  0.00000000000E+00  0.12742177870E+04  0.12742177870E+04  0.00000000000E+00 0.  1.
          2   -1    0    0  501    0  0.00000000000E+00 -0.00000000000E+00 -0.21845736560E+04  0.21845736560E+04  0.00000000000E+00 0. -1.
         23    2    1    2    0    0 -0.28998601270E+03  0.28566451048E+03 -0.21313261736E+04  0.21717543088E+04  0.90936347312E+02 0.  0.
         13    1    3    3    0    0 -0.15296257987E+03  0.92590398208E+02 -0.10102669740E+04  0.10259677829E+04  0.00000000000E+00 0. -1.
        -13    1    3    3    0    0 -0.13702343283E+03  0.19307411227E+03 -0.11210591996E+04  0.11457865259E+04  0.00000000000E+00 0.  1.
         22    1    1    2    0    0  0.28998601270E+03 -0.28566451048E+03  0.12209703046E+04  0.12870371342E+04  0.00000000000E+00 0.  1.
<mgrwt>
<rscale>  0 0.33368384E+04</rscale>
<asrwt>0</asrwt>
<pdfrwt beam="1">  1        2 0.33608825E+00 0.33368384E+04</pdfrwt>
<pdfrwt beam="2">  1       -2 0.19603351E+00 0.33368384E+04</pdfrwt>
<totfact> 0.61971886E-01</totfact>
</mgrwt>
</event>
<event>
 6    1  0.1817112E-005  0.3332618E+04  0.7818608E-02  0.8154645E-01
          2   -1    0    0  501    0  0.00000000000E+00  0.00000000000E+00  0.26508594336E+04  0.26508594336E+04  0.00000000000E+00 0. -1.
         -2   -1    0    0    0  501 -0.00000000000E+00 -0.00000000000E+00 -0.10474284206E+04  0.10474284206E+04  0.00000000000E+00 0.  1.
         23    2    1    2    0    0 -0.69756658404E+03  0.14806206926E+04  0.46288778458E+03  0.17033754173E+04  0.91574759516E+02 0.  0.
         11    1    3    3    0    0 -0.13071555214E+03  0.35769051784E+03  0.12639885541E+03  0.40125519657E+03  0.00000000000E+00 0.  1.
        -11    1    3    3    0    0 -0.56685103190E+03  0.11229301748E+04  0.33648892918E+03  0.13021202207E+04  0.00000000000E+00 0. -1.
         22    1    1    2    0    0  0.69756658404E+03 -0.14806206926E+04  0.11405432284E+04  0.19949124368E+04  0.00000000000E+00 0. -1.
<mgrwt>
<rscale>  0 0.33326179E+04</rscale>
<asrwt>0</asrwt>
<pdfrwt beam="1">  1        2 0.40782453E+00 0.33326179E+04</pdfrwt>
<pdfrwt beam="2">  1       -2 0.16114284E+00 0.33326179E+04</pdfrwt>
<totfact> 0.58428990E-01</totfact>
</mgrwt>
</event>
<event>
 6    1  0.1817112E-005  0.4358315E+04  0.7818608E-02  0.7935922E-01
          2   -1    0    0  501    0  0.00000000000E+00  0.00000000000E+00  0.19346774783E+04  0.19346774783E+04  0.00000000000E+00 0. -1.
         -2   -1    0    0    0  501 -0.00000000000E+00 -0.00000000000E+00 -0.24545314052E+04  0.24545314052E+04  0.00000000000E+00 0.  1.
         23    2    1    2    0    0 -0.10440776081E+04  0.19112164030E+04 -0.29325339514E+03  0.21996440884E+04  0.97930438929E+02 0.  0.
         13    1    3    3    0    0 -0.29204024281E+03  0.56494602807E+03 -0.43268754209E+02  0.63743525408E+03  0.00000000000E+00 0.  1.
        -13    1    3    3    0    0 -0.75203736532E+03  0.13462703750E+04 -0.24998464093E+03  0.15622088343E+04  0.00000000000E+00 0. -1.
         22    1    1    2    0    0  0.10440776081E+04 -0.19112164030E+04 -0.22660053176E+03  0.21895647951E+04  0.00000000000E+00 0.  1.
<mgrwt>
<rscale>  0 0.43583146E+04</rscale>
<asrwt>0</asrwt>
<pdfrwt beam="1">  1        2 0.29764269E+00 0.43583146E+04</pdfrwt>
<pdfrwt beam="2">  1       -2 0.37762022E+00 0.43583146E+04</pdfrwt>
<totfact> 0.57739085E-02</totfact>
</mgrwt>
</event>
<event>
 6    1  0.1817112E-005  0.3694864E+04  0.7818608E-02  0.8069101E-01
         -2   -1    0    0    0  501 -0.00000000000E+00  0.00000000000E+00  0.12739212405E+04  0.12739212405E+04  0.00000000000E+00 0.  1.
          2   -1    0    0  501    0  0.00000000000E+00 -0.00000000000E+00 -0.26791338133E+04  0.26791338133E+04  0.00000000000E+00 0. -1.
         23    2    1    2    0    0  0.33189298827E+03  0.38249827465E+03  0.11964532305E+04  0.13025602250E+04  0.93300166698E+02 0.  0.
         11    1    3    3    0    0  0.17954994350E+03  0.26739103418E+03  0.69569362120E+03  0.76663274255E+03  0.00000000000E+00 0. -1.
        -11    1    3    3    0    0  0.15234304477E+03  0.11510724047E+03  0.50075960930E+03  0.53592748241E+03  0.00000000000E+00 0.  1.
         22    1    1    2    0    0 -0.33189298827E+03 -0.38249827465E+03 -0.26016658033E+04  0.26504948288E+04  0.00000000000E+00 0. -1.
<mgrwt>
<rscale>  0 0.36948643E+04</rscale>
<asrwt>0</asrwt>
<pdfrwt beam="1">  1        2 0.41217443E+00 0.36948643E+04</pdfrwt>
<pdfrwt beam="2">  1       -2 0.19598788E+00 0.36948643E+04</pdfrwt>
<totfact> 0.31233855E-01</totfact>
</mgrwt>
</event>
<event>
 6    1  0.1817112E-005  0.4283695E+04  0.7818608E-02  0.7949640E-01
          2   -1    0    0  501    0  0.00000000000E+00  0.00000000000E+00  0.11558831392E+04  0.11558831392E+04  0.00000000000E+00 0. -1.
         -2   -1    0    0    0  501 -0.00000000000E+00 -0.00000000000E+00 -0.39688365522E+04  0.39688365522E+04  0.00000000000E+00 0.  1.
         23    2    1    2    0    0 -0.50057575681E+03 -0.77480806762E+03 -0.37183920733E+04  0.38321552646E+04  0.89837246775E+02 0.  0.
         13    1    3    3    0    0 -0.10964098773E+03 -0.10830341551E+03 -0.61724173239E+03  0.63619032703E+03  0.00000000000E+00 0. -1.
        -13    1    3    3    0    0 -0.39093476909E+03 -0.66650465211E+03 -0.31011503409E+04  0.31959649375E+04  0.00000000000E+00 0.  1.
         22    1    1    2    0    0  0.50057575681E+03  0.77480806762E+03  0.90543866033E+03  0.12925644269E+04  0.00000000000E+00 0. -1.
<mgrwt>
<rscale>  0 0.42836953E+04</rscale>
<asrwt>0</asrwt>
<pdfrwt beam="1">  1        2 0.17782818E+00 0.42836953E+04</pdfrwt>
<pdfrwt beam="2">  1       -2 0.61059024E+00 0.42836953E+04</pdfrwt>
<totfact> 0.71904885E-03</totfact>
</mgrwt>
</event>
<event>
 6    1  0.1817112E-005  0.3941929E+04  0.7818608E-02  0.8016365E-01
         -2   -1    0    0    0  501 -0.00000000000E+00  0.00000000000E+00  0.10833897328E+04  0.10833897328E+04  0.00000000000E+00 0.  1.
          2   -1    0    0  501    0  0.00000000000E+00 -0.00000000000E+00 -0.35856915457E+04  0.35856915457E+04  0.00000000000E+00 0. -1.
         23    2    1    2    0    0 -0.93749194444E+03  0.16550389651E+04 -0.64455334241E+03  0.20102705478E+04  0.87712839874E+02 0.  0.
         13    1    3    3    0    0 -0.29728402065E+03  0.47981369813E+03 -0.15617163748E+03  0.58565224682E+03  0.00000000000E+00 0. -1.
        -13    1    3    3    0    0 -0.64020792379E+03  0.11752252669E+04 -0.48838170493E+03  0.14246183010E+04  0.00000000000E+00 0.  1.
         22    1    1    2    0    0  0.93749194444E+03 -0.16550389651E+04 -0.18577484705E+04  0.26588107306E+04  0.00000000000E+00 0. -1.
<mgrwt>
<rscale>  0 0.39419292E+04</rscale>
<asrwt>0</asrwt>
<pdfrwt beam="1">  1        2 0.55164485E+00 0.39419292E+04</pdfrwt>
<pdfrwt beam="2">  1       -2 0.16667534E+00 0.39419292E+04</pdfrwt>
<totfact> 0.12588672E-01</totfact>
</mgrwt>
</event>
<event>
 6    1  0.1817112E-005  0.2641415E+04  0.7818608E-02  0.8354268E-01
          2   -1    0    0  501    0  0.00000000000E+00  0.00000000000E+00  0.12418297554E+04  0.12418297554E+04  0.00000000000E+00 0. -1.
         -2   -1    0    0    0  501 -0.00000000000E+00 -0.00000000000E+00 -0.14045949402E+04  0.14045949402E+04  0.00000000000E+00 0.  1.
         23    2    1    2    0    0  0.19750397891E+03  0.54566409923E+03 -0.12683528177E+04  0.13977929866E+04  0.91374133866E+02 0.  0.
         11    1    3    3    0    0  0.13072530668E+03  0.26509721411E+03 -0.56595991518E+03  0.63849531269E+03  0.00000000000E+00 0. -1.
        -11    1    3    3    0    0  0.66778672223E+02  0.28056688512E+03 -0.70239290254E+03  0.75929767392E+03  0.00000000000E+00 0.  1.
         22    1    1    2    0    0 -0.19750397891E+03 -0.54566409923E+03  0.11055876329E+04  0.12486317091E+04  0.00000000000E+00 0. -1.
<mgrwt>
<rscale>  0 0.26414146E+04</rscale>
<asrwt>0</asrwt>
<pdfrwt beam="1">  1        2 0.19105073E+00 0.26414146E+04</pdfrwt>
<pdfrwt beam="2">  1       -2 0.21609153E+00 0.26414146E+04</pdfrwt>
<totfact> 0.16501097E+00</totfact>
</mgrwt>
</event>
<event>
 6    1  0.2542178E-005  0.2751363E+04  0.7818608E-02  0.8318529E-01
         -2   -1    0    0    0  501 -0.00000000000E+00  0.00000000000E+00  0.92271852007E+03  0.92271852007E+03  0.00000000000E+00 0.  1.
          2   -1    0    0  501    0  0.00000000000E+00 -0.00000000000E+00 -0.20510044656E+04  0.20510044656E+04  0.00000000000E+00 0. -1.
         23    2    1    2    0    0  0.50986210464E+03  0.27091585857E+03  0.78315108754E+03  0.97698907763E+03  0.88471824410E+02 0.  0.
         13    1    3    3    0    0  0.26224249671E+03  0.10394276113E+03  0.32822744317E+03  0.43279149613E+03  0.00000000000E+00 0. -1.
        -13    1    3    3    0    0  0.24761960792E+03  0.16697309744E+03  0.45492364437E+03  0.54419758150E+03  0.00000000000E+00 0.  1.
         22    1    1    2    0    0 -0.50986210464E+03 -0.27091585857E+03 -0.19114370331E+04  0.19967339080E+04  0.00000000000E+00 0. -1.
<mgrwt>
<rscale>  0 0.27513632E+04</rscale>
<asrwt>0</asrwt>
<pdfrwt beam="1">  1        2 0.31553915E+00 0.27513632E+04</pdfrwt>
<pdfrwt beam="2">  1       -2 0.14195670E+00 0.27513632E+04</pdfrwt>
<totfact> 0.18938866E+00</totfact>
</mgrwt>
</event>
<event>
 6    1  0.1817112E-005  0.3087114E+04  0.7818608E-02  0.8219283E-01
         -1   -1    0    0    0  501 -0.00000000000E+00  0.00000000000E+00  0.15200473916E+04  0.15200473916E+04  0.00000000000E+00 0.  1.
          1   -1    0    0  501    0  0.00000000000E+00 -0.00000000000E+00 -0.15674299425E+04  0.15674299425E+04  0.00000000000E+00 0. -1.
         23    2    1    2    0    0 -0.46672891663E+03 -0.13385426949E+04  0.58385311474E+03  0.15357070891E+04  0.89327354629E+02 0.  0.
         13    1    3    3    0    0 -0.12979493270E+03 -0.46248174157E+03  0.23034314304E+03  0.53272323901E+03  0.00000000000E+00 0.  1.
        -13    1    3    3    0    0 -0.33693398393E+03 -0.87606095328E+03  0.35350997170E+03  0.10029838501E+04  0.00000000000E+00 0. -1.
         22    1    1    2    0    0  0.46672891663E+03  0.13385426949E+04 -0.63123566563E+03  0.15517702450E+04  0.00000000000E+00 0. -1.
<mgrwt>
<rscale>  0 0.30871137E+04</rscale>
<asrwt>0</asrwt>
<pdfrwt beam="1">  1        1 0.24114307E+00 0.30871137E+04</pdfrwt>
<pdfrwt beam="2">  1       -1 0.23385344E+00 0.30871137E+04</pdfrwt>
<totfact> 0.44178564E-01</totfact>
</mgrwt>
</event>
<event>
 6    1  0.1817112E-005  0.2831104E+04  0.7818608E-02  0.8293676E-01
          2   -1    0    0  501    0  0.00000000000E+00  0.00000000000E+00  0.16398833092E+04  0.16398833092E+04  0.00000000000E+00 0. -1.
         -2   -1    0    0    0  501 -0.00000000000E+00 -0.00000000000E+00 -0.12219088792E+04  0.12219088792E+04  0.00000000000E+00 0.  1.
         23    2    1    2    0    0 -0.38545548477E+03  0.91666567574E+03 -0.80702091349E+03  0.12839881818E+04  0.92146646198E+02 0.  0.
         11    1    3    3    0    0 -0.77966181127E+02  0.26025755289E+03 -0.18348584109E+03  0.32784107906E+03  0.00000000000E+00 0.  1.
        -11    1    3    3    0    0 -0.30748930364E+03  0.65640812285E+03 -0.62353507239E+03  0.95614710275E+03  0.00000000000E+00 0. -1.
         22    1    1    2    0    0  0.38545548477E+03 -0.91666567574E+03  0.12249953434E+04  0.15778040066E+04  0.00000000000E+00 0. -1.
<mgrwt>
<rscale>  0 0.28311044E+04</rscale>
<asrwt>0</asrwt>
<pdfrwt beam="1">  1        2 0.25228974E+00 0.28311044E+04</pdfrwt>
<pdfrwt beam="2">  1       -2 0.18798598E+00 0.28311044E+04</pdfrwt>
<totfact> 0.14706121E+00</totfact>
</mgrwt>
</event>
<event>
 6    1  0.1817112E-005  0.1586029E+04  0.7818608E-02  0.8829177E-01
          2   -1    0    0  501    0  0.00000000000E+00  0.00000000000E+00  0.23687504580E+04  0.23687504580E+04  0.00000000000E+00 0. -1.
         -2   -1    0    0    0  501 -0.00000000000E+00 -0.00000000000E+00 -0.26548671449E+03  0.26548671449E+03  0.00000000000E+00 0.  1.
         23    2    1    2    0    0 -0.65788336741E+03  0.58131760899E+02  0.33201179129E+03  0.74386067428E+03  0.83108642426E+02 0.  0.
         13    1    3    3    0    0 -0.23258426395E+03  0.21787848595E+01  0.15670248971E+03  0.28045651574E+03  0.00000000000E+00 0. -1.
        -13    1    3    3    0    0 -0.42529910346E+03  0.55952976039E+02  0.17530930158E+03  0.46340415854E+03  0.00000000000E+00 0.  1.
         22    1    1    2    0    0  0.65788336741E+03 -0.58131760899E+02  0.17712519522E+04  0.18903764982E+04  0.00000000000E+00 0.  1.
<mgrwt>
<rscale>  0 0.15860287E+04</rscale>
<asrwt>0</asrwt>
<pdfrwt beam="1">  1        2 0.36442313E+00 0.15860287E+04</pdfrwt>
<pdfrwt beam="2">  1       -2 0.40844111E-01 0.15860287E+04</pdfrwt>
<totfact> 0.22608941E+01</totfact>
</mgrwt>
</event>
<event>
 6    1  0.1817112E-005  0.3360113E+04  0.7818608E-02  0.8147766E-01
         -2   -1    0    0    0  501 -0.00000000000E+00  0.00000000000E+00  0.17228988486E+04  0.17228988486E+04  0.00000000000E+00 0. -1.
          2   -1    0    0  501    0  0.00000000000E+00 -0.00000000000E+00 -0.16382794775E+04  0.16382794775E+04  0.00000000000E+00 0.  1.
         23    2    1    2    0    0 -0.92868613674E+03 -0.10398465171E+04 -0.89309250324E+03  0.16583397463E+04  0.93476067441E+02 0.  0.
         11    1    3    3    0    0 -0.73809581551E+03 -0.85577698185E+03 -0.75943302661E+03  0.13615719582E+04  0.00000000000E+00 0. -1.
        -11    1    3    3    0    0 -0.19059032123E+03 -0.18406953525E+03 -0.13365947663E+03  0.29676778809E+03  0.00000000000E+00 0.  1.
         22    1    1    2    0    0  0.92868613674E+03  0.10398465171E+04  0.97771187430E+03  0.17028385798E+04  0.00000000000E+00 0. -1.
<mgrwt>
<rscale>  0 0.33601130E+04</rscale>
<asrwt>0</asrwt>
<pdfrwt beam="1">  1        2 0.25204300E+00 0.33601130E+04</pdfrwt>
<pdfrwt beam="2">  1       -2 0.26506136E+00 0.33601130E+04</pdfrwt>
<totfact> 0.45840437E-01</totfact>
</mgrwt>
</event>
<event>
 6    1  0.1817112E-005  0.4201744E+04  0.7818608E-02  0.7965040E-01
         -2   -1    0    0    0  501 -0.00000000000E+00  0.00000000000E+00  0.12925791240E+04  0.12925791240E+04  0.00000000000E+00 0.  1.
          2   -1    0    0  501    0  0.00000000000E+00 -0.00000000000E+00 -0.34146181449E+04  0.34146181449E+04  0.00000000000E+00 0. -1.
         23    2    1    2    0    0 -0.19492898716E+04 -0.74124754874E+03 -0.13365996734E+04  0.24787238225E+04  0.91619698692E+02 0.  0.
         13    1    3    3    0    0 -0.45981117712E+03 -0.21664559871E+03 -0.33065319754E+03  0.60637708655E+03  0.00000000000E+00 0.  1.
        -13    1    3    3    0    0 -0.14894786945E+04 -0.52460195003E+03 -0.10059464758E+04  0.18723467360E+04  0.00000000000E+00 0. -1.
         22    1    1    2    0    0  0.19492898716E+04  0.74124754874E+03 -0.78543934753E+03  0.22284734463E+04  0.00000000000E+00 0. -1.
<mgrwt>
<rscale>  0 0.42017445E+04</rscale>
<asrwt>0</asrwt>
<pdfrwt beam="1">  1        2 0.52532588E+00 0.42017445E+04</pdfrwt>
<pdfrwt beam="2">  1       -2 0.19885832E+00 0.42017445E+04</pdfrwt>
<totfact> 0.97699674E-02</totfact>
</mgrwt>
</event>
<event>
 6    1  0.1817112E-005  0.1394566E+04  0.7818608E-02  0.8957761E-01
          2   -1    0    0  501    0  0.00000000000E+00  0.00000000000E+00  0.30155846907E+04  0.30155846907E+04  0.00000000000E+00 0. -1.
         -2   -1    0    0    0  501 -0.00000000000E+00 -0.00000000000E+00 -0.16123034346E+03  0.16123034346E+03  0.00000000000E+00 0.  1.
         23    2    1    2    0    0  0.44411625249E+03  0.13274207333E+03  0.25595870039E+03  0.53739849990E+03  0.91774656827E+02 0.  0.
         11    1    3    3    0    0  0.27489942638E+03  0.59821114242E+02  0.19877065152E+03  0.34446775210E+03  0.00000000000E+00 0.  1.
        -11    1    3    3    0    0  0.16921682611E+03  0.72920959088E+02  0.57188048867E+02  0.19293074780E+03  0.00000000000E+00 0. -1.
         22    1    1    2    0    0 -0.44411625249E+03 -0.13274207333E+03  0.25983956468E+04  0.26394165342E+04  0.00000000000E+00 0. -1.
<mgrwt>
<rscale>  0 0.13945662E+04</rscale>
<asrwt>0</asrwt>
<pdfrwt beam="1">  1        2 0.46393607E+00 0.13945662E+04</pdfrwt>
<pdfrwt beam="2">  1       -2 0.24804670E-01 0.13945662E+04</pdfrwt>
<totfact> 0.24349934E+01</totfact>
</mgrwt>
</event>
<event>
 6    1  0.1817112E-005  0.2155715E+04  0.7818608E-02  0.8537090E-01
         -2   -1    0    0    0  501 -0.00000000000E+00  0.00000000000E+00  0.66428215794E+03  0.66428215794E+03  0.00000000000E+00 0.  1.
          2   -1    0    0  501    0  0.00000000000E+00 -0.00000000000E+00 -0.17489199662E+04  0.17489199662E+04  0.00000000000E+00 0. -1.
         23    2    1    2    0    0  0.33237557450E+03 -0.79916314442E+03 -0.12587632879E+04  0.15303346728E+04  0.91125967972E+02 0.  0.
         11    1    3    3    0    0  0.40026643125E+02 -0.59221115962E+02 -0.71131489728E+02  0.10084126916E+03  0.00000000000E+00 0. -1.
        -11    1    3    3    0    0  0.29234893138E+03 -0.73994202846E+03 -0.11876317981E+04  0.14294934036E+04  0.00000000000E+00 0.  1.
         22    1    1    2    0    0 -0.33237557450E+03  0.79916314442E+03  0.17412547962E+03  0.88286745131E+03  0.00000000000E+00 0. -1.
<mgrwt>
<rscale>  0 0.21557146E+04</rscale>
<asrwt>0</asrwt>
<pdfrwt beam="1">  1        2 0.26906461E+00 0.21557146E+04</pdfrwt>
<pdfrwt beam="2">  1       -2 0.10219726E+00 0.21557146E+04</pdfrwt>
<totfact> 0.66278117E+00</totfact>
</mgrwt>
</event>
<event>
 6    1  0.1817112E-005  0.1307311E+04  0.7818608E-02  0.9023787E-01
         -2   -1    0    0    0  501 -0.00000000000E+00  0.00000000000E+00  0.28942594556E+03  0.28942594556E+03  0.00000000000E+00 0.  1.
          2   -1    0    0  501    0  0.00000000000E+00 -0.00000000000E+00 -0.14762524400E+04  0.14762524400E+04  0.00000000000E+00 0. -1.
         23    2    1    2    0    0 -0.53313396054E+03 -0.92016727598E+02 -0.10842589789E+03  0.55917652288E+03  0.90682470036E+02 0.  0.
         13    1    3    3    0    0 -0.40544159929E+02 -0.27951096400E+02 -0.25862253986E+02  0.55623276383E+02  0.00000000000E+00 0. -1.
        -13    1    3    3    0    0 -0.49258980061E+03 -0.64065631198E+02 -0.82563643908E+02  0.50355324650E+03  0.00000000000E+00 0.  1.
         22    1    1    2    0    0  0.53313396054E+03  0.92016727598E+02 -0.10784005966E+04  0.12065018627E+04  0.00000000000E+00 0.  1.
<mgrwt>
<rscale>  0 0.13073114E+04</rscale>
<asrwt>0</asrwt>
<pdfrwt beam="1">  1        2 0.22711577E+00 0.13073114E+04</pdfrwt>
<pdfrwt beam="2">  1       -2 0.44527068E-01 0.13073114E+04</pdfrwt>
<totfact> 0.61331716E+01</totfact>
</mgrwt>
</event>
<event>
 6    1  0.1817112E-005  0.3193683E+04  0.7818608E-02  0.8190487E-01
          2   -1    0    0  501    0  0.00000000000E+00  0.00000000000E+00  0.31510529567E+04  0.31510529567E+04  0.00000000000E+00 0. -1.
         -2   -1    0    0    0  501 -0.00000000000E+00 -0.00000000000E+00 -0.80922253510E+03  0.80922253510E+03  0.00000000000E+00 0.  1.
         23    2    1    2    0    0 -0.97171405812E+01  0.10208130022E+04  0.26924774253E+04  0.28808743016E+04  0.88591465406E+02 0.  0.
         11    1    3    3    0    0 -0.43749852278E+02  0.33249821973E+03  0.90658634379E+03  0.96662708137E+03  0.00000000000E+00 0.  1.
        -11    1    3    3    0    0  0.34032711696E+02  0.68831478243E+03  0.17858910815E+04  0.19142472202E+04  0.00000000000E+00 0. -1.
         22    1    1    2    0    0  0.97171405812E+01 -0.10208130022E+04 -0.35064700369E+03  0.10794011902E+04  0.00000000000E+00 0.  1.
<mgrwt>
<rscale>  0 0.31936832E+04</rscale>
<asrwt>0</asrwt>
<pdfrwt beam="1">  1        2 0.48477737E+00 0.31936832E+04</pdfrwt>
<pdfrwt beam="2">  1       -2 0.12449578E+00 0.31936832E+04</pdfrwt>
<totfact> 0.56889114E-01</totfact>
</mgrwt>
</event>
<event>
 6    1  0.1817112E-005  0.2129605E+04  0.7818608E-02  0.8548313E-01
         -2   -1    0    0    0  501 -0.00000000000E+00  0.00000000000E+00  0.51418316087E+03  0.51418316087E+03  0.00000000000E+00 0.  1.
          2   -1    0    0  501    0  0.00000000000E+00 -0.00000000000E+00 -0.22050594620E+04  0.22050594620E+04  0.00000000000E+00 0. -1.
         23    2    1    2    0    0 -0.41318160246E+03  0.66494644787E+03  0.71757005029E+02  0.79057754383E+03  0.83612020016E+02 0.  0.
         11    1    3    3    0    0 -0.29041407804E+03  0.39893015940E+03  0.26802545245E+02  0.49416999629E+03  0.00000000000E+00 0. -1.
        -11    1    3    3    0    0 -0.12276752442E+03  0.26601628847E+03  0.44954459784E+02  0.29640754754E+03  0.00000000000E+00 0.  1.
         22    1    1    2    0    0  0.41318160246E+03 -0.66494644787E+03 -0.17626333062E+04  0.19286650791E+04  0.00000000000E+00 0. -1.
<mgrwt>
<rscale>  0 0.21296051E+04</rscale>
<asrwt>0</asrwt>
<pdfrwt beam="1">  1        2 0.33923992E+00 0.21296051E+04</pdfrwt>
<pdfrwt beam="2">  1       -2 0.79105101E-01 0.21296051E+04</pdfrwt>
<totfact> 0.66856660E+00</totfact>
</mgrwt>
</event>
<event>
 6    1  0.1817112E-005  0.5172578E+04  0.7818608E-02  0.7802423E-01
         -2   -1    0    0    0  501 -0.00000000000E+00  0.00000000000E+00  0.20994146753E+04  0.20994146753E+04  0.00000000000E+00 0. -1.
          2   -1    0    0  501    0  0.00000000000E+00 -0.00000000000E+00 -0.31860738594E+04  0.31860738594E+04  0.00000000000E+00 0.  1.
         23    2    1    2    0    0  0.15495913361E+04 -0.16871004197E+04 -0.17685260985E+04  0.28954082800E+04  0.90351601022E+02 0.  0.
         13    1    3    3    0    0  0.11969029195E+04 -0.12796738813E+04 -0.13960229696E+04  0.22403173822E+04  0.00000000000E+00 0. -1.
        -13    1    3    3    0    0  0.35268841660E+03 -0.40742653839E+03 -0.37250312890E+03  0.65509089784E+03  0.00000000000E+00 0.  1.
         22    1    1    2    0    0 -0.15495913361E+04  0.16871004197E+04  0.68186691439E+03  0.23900802547E+04  0.00000000000E+00 0. -1.
<mgrwt>
<rscale>  0 0.51725778E+04</rscale>
<asrwt>0</asrwt>
<pdfrwt beam="1">  1        2 0.49016521E+00 0.51725778E+04</pdfrwt>
<pdfrwt beam="2">  1       -2 0.32298687E+00 0.51725778E+04</pdfrwt>
<totfact> 0.21801230E-02</totfact>
</mgrwt>
</event>
<event>
 6    1  0.1817112E-005  0.1613559E+04  0.7818608E-02  0.8812261E-01
         -2   -1    0    0    0  501 -0.00000000000E+00  0.00000000000E+00  0.43738511354E+03  0.43738511354E+03  0.00000000000E+00 0.  1.
          2   -1    0    0  501    0  0.00000000000E+00 -0.00000000000E+00 -0.14881463648E+04  0.14881463648E+04  0.00000000000E+00 0. -1.
         23    2    1    2    0    0 -0.78366099473E+03  0.13587543396E+03 -0.38303617321E+03  0.88705015058E+03  0.86917037720E+02 0.  0.
         13    1    3    3    0    0 -0.47014666068E+03  0.50466385619E+02 -0.25985419793E+03  0.53954512583E+03  0.00000000000E+00 0. -1.
        -13    1    3    3    0    0 -0.31351433406E+03  0.85409048339E+02 -0.12318197527E+03  0.34750502475E+03  0.00000000000E+00 0.  1.
         22    1    1    2    0    0  0.78366099473E+03 -0.13587543396E+03 -0.66772507800E+03  0.10384813277E+04  0.00000000000E+00 0. -1.
<mgrwt>
<rscale>  0 0.16135589E+04</rscale>
<asrwt>0</asrwt>
<pdfrwt beam="1">  1        2 0.22894559E+00 0.16135589E+04</pdfrwt>
<pdfrwt beam="2">  1       -2 0.67290018E-01 0.16135589E+04</pdfrwt>
<totfact> 0.25014861E+01</totfact>
</mgrwt>
</event>
<event>
 6    1  0.1817112E-005  0.1126526E+04  0.7818608E-02  0.9179717E-01
          2   -1    0    0  501    0  0.00000000000E+00  0.00000000000E+00  0.74265663034E+03  0.74265663034E+03  0.00000000000E+00 0. -1.
         -2   -1    0    0    0  501 -0.00000000000E+00 -0.00000000000E+00 -0.42720293958E+03  0.42720293958E+03  0.00000000000E+00 0.  1.
         23    2    1    2    0    0  0.46027683740E+03 -0.12924736360E+03  0.46069755000E+03  0.67020426203E+03  0.91497935609E+02 0.  0.
         11    1    3    3    0    0  0.18915647214E+03 -0.78631691703E+02  0.24952237227E+03  0.32283823838E+03  0.00000000000E+00 0. -1.
        -11    1    3    3    0    0  0.27112036526E+03 -0.50615671897E+02  0.21117517773E+03  0.34736602366E+03  0.00000000000E+00 0.  1.
         22    1    1    2    0    0 -0.46027683740E+03  0.12924736360E+03 -0.14524385925E+03  0.49965530788E+03  0.00000000000E+00 0.  1.
<mgrwt>
<rscale>  0 0.11265258E+04</rscale>
<asrwt>0</asrwt>
<pdfrwt beam="1">  1        2 0.11425487E+00 0.11265258E+04</pdfrwt>
<pdfrwt beam="2">  1       -2 0.65723529E-01 0.11265258E+04</pdfrwt>
<totfact> 0.80299797E+01</totfact>
</mgrwt>
</event>
<event>
 6    1  0.1817112E-005  0.1721057E+04  0.7818608E-02  0.8749445E-01
         -2   -1    0    0    0  501 -0.00000000000E+00  0.00000000000E+00  0.18934154385E+04  0.18934154385E+04  0.00000000000E+00 0. -1.
          2   -1    0    0  501    0  0.00000000000E+00 -0.00000000000E+00 -0.39109705874E+03  0.39109705874E+03  0.00000000000E+00 0.  1.
         23    2    1    2    0    0  0.45285114538E+03  0.60827264790E+03  0.12830903525E+04  0.14951262154E+04  0.11837133650E+03 0.  0.
         13    1    3    3    0    0  0.33102084376E+03  0.43519077600E+03  0.10214843551E+04  0.11586181848E+04  0.00000000000E+00 0. -1.
        -13    1    3    3    0    0  0.12183030162E+03  0.17308187191E+03  0.26160599742E+03  0.33650803060E+03  0.00000000000E+00 0.  1.
         22    1    1    2    0    0 -0.45285114538E+03 -0.60827264790E+03  0.21922802733E+03  0.78938628188E+03  0.00000000000E+00 0.  1.
<mgrwt>
<rscale>  0 0.17210569E+04</rscale>
<asrwt>0</asrwt>
<pdfrwt beam="1">  1        2 0.60168780E-01 0.17210569E+04</pdfrwt>
<pdfrwt beam="2">  1       -2 0.29129468E+00 0.17210569E+04</pdfrwt>
<totfact> 0.27888010E+00</totfact>
</mgrwt>
</event>
<event>
 6    1  0.1817112E-005  0.1410365E+04  0.7818608E-02  0.8946349E-01
          2   -1    0    0  501    0  0.00000000000E+00  0.00000000000E+00  0.37769985376E+04  0.37769985376E+04  0.00000000000E+00 0. -1.
         -2   -1    0    0    0  501 -0.00000000000E+00 -0.00000000000E+00 -0.13166081136E+03  0.13166081136E+03  0.00000000000E+00 0.  1.
         23    2    1    2    0    0  0.48769709631E+01 -0.57303019461E+03  0.70324600483E+03  0.91127864474E+03  0.86524194763E+02 0.  0.
         11    1    3    3    0    0  0.21095068487E+02 -0.37650945594E+03  0.51799745704E+03  0.64072282449E+03  0.00000000000E+00 0.  1.
        -11    1    3    3    0    0 -0.16218097524E+02 -0.19652073866E+03  0.18524854779E+03  0.27055582025E+03  0.00000000000E+00 0. -1.
         22    1    1    2    0    0 -0.48769709631E+01  0.57303019461E+03  0.29420917214E+04  0.29973807042E+04  0.00000000000E+00 0. -1.
<mgrwt>
<rscale>  0 0.14103655E+04</rscale>
<asrwt>0</asrwt>
<pdfrwt beam="1">  1        2 0.58107662E+00 0.14103655E+04</pdfrwt>
<pdfrwt beam="2">  1       -2 0.20255512E-01 0.14103655E+04</pdfrwt>
<totfact> 0.10630121E+01</totfact>
</mgrwt>
</event>
<event>
 6    1  0.1817112E-005  0.3701936E+04  0.7818608E-02  0.8067533E-01
          2   -1    0    0  501    0  0.00000000000E+00  0.00000000000E+00  0.36167928939E+04  0.36167928939E+04  0.00000000000E+00 0. -1.
         -2   -1    0    0    0  501 -0.00000000000E+00 -0.00000000000E+00 -0.94727105496E+03  0.94727105496E+03  0.00000000000E+00 0.  1.
         23    2    1    2    0    0 -0.36377918465E+03  0.14643206579E+04  0.26550167483E+04  0.30551634611E+04  0.91321169664E+02 0.  0.
         13    1    3    3    0    0 -0.22401189065E+03  0.10184894812E+04  0.18960807584E+04  0.21639372433E+04  0.00000000000E+00 0. -1.
        -13    1    3    3    0    0 -0.13976729400E+03  0.44583117673E+03  0.75893598989E+03  0.89122621785E+03  0.00000000000E+00 0.  1.
         22    1    1    2    0    0  0.36377918465E+03 -0.14643206579E+04  0.14505090660E+02  0.15089004878E+04  0.00000000000E+00 0.  1.
<mgrwt>
<rscale>  0 0.37019364E+04</rscale>
<asrwt>0</asrwt>
<pdfrwt beam="1">  1        2 0.55642967E+00 0.37019364E+04</pdfrwt>
<pdfrwt beam="2">  1       -2 0.14573401E+00 0.37019364E+04</pdfrwt>
<totfact> 0.17512494E-01</totfact>
</mgrwt>
</event>
<event>
 6    1  0.1817112E-005  0.1330728E+04  0.7818608E-02  0.9005546E-01
         -2   -1    0    0    0  501 -0.00000000000E+00  0.00000000000E+00  0.33312107580E+03  0.33312107580E+03  0.00000000000E+00 0.  1.
          2   -1    0    0  501    0  0.00000000000E+00 -0.00000000000E+00 -0.13289747565E+04  0.13289747565E+04  0.00000000000E+00 0. -1.
         23    2    1    2    0    0  0.48114537465E+03  0.33228156459E+02  0.66322161593E+02  0.49555286186E+03  0.92569043677E+02 0.  0.
         13    1    3    3    0    0  0.99305203796E+02 -0.22244188771E+02  0.38133236686E+02  0.10867599172E+03  0.00000000000E+00 0. -1.
        -13    1    3    3    0    0  0.38184017086E+03  0.55472345230E+02  0.28188924906E+02  0.38687687015E+03  0.00000000000E+00 0.  1.
         22    1    1    2    0    0 -0.48114537465E+03 -0.33228156459E+02 -0.10621758423E+04  0.11665429704E+04  0.00000000000E+00 0. -1.
<mgrwt>
<rscale>  0 0.13307284E+04</rscale>
<asrwt>0</asrwt>
<pdfrwt beam="1">  1        2 0.20445765E+00 0.13307284E+04</pdfrwt>
<pdfrwt beam="2">  1       -2 0.51249397E-01 0.13307284E+04</pdfrwt>
<totfact> 0.55943392E+01</totfact>
</mgrwt>
</event>
<event>
 6    1  0.1817112E-005  0.3630621E+04  0.7818608E-02  0.8083513E-01
          2   -1    0    0  501    0  0.00000000000E+00  0.00000000000E+00  0.31343542832E+04  0.31343542832E+04  0.00000000000E+00 0. -1.
         -2   -1    0    0    0  501 -0.00000000000E+00 -0.00000000000E+00 -0.10513653379E+04  0.10513653379E+04  0.00000000000E+00 0.  1.
         23    2    1    2    0    0  0.94497354431E+03  0.98908164432E+03  0.24159551766E+04  0.27778403615E+04  0.91105214591E+02 0.  0.
         11    1    3    3    0    0  0.52693219593E+03  0.52592418371E+03  0.13986775996E+04  0.15844724086E+04  0.00000000000E+00 0. -1.
        -11    1    3    3    0    0  0.41804134837E+03  0.46315746061E+03  0.10172775770E+04  0.11933679529E+04  0.00000000000E+00 0.  1.
         22    1    1    2    0    0 -0.94497354431E+03 -0.98908164432E+03 -0.33296623129E+03  0.14078792596E+04  0.00000000000E+00 0.  1.
<mgrwt>
<rscale>  0 0.36306206E+04</rscale>
<asrwt>0</asrwt>
<pdfrwt beam="1">  1        2 0.48220835E+00 0.36306206E+04</pdfrwt>
<pdfrwt beam="2">  1       -2 0.16174851E+00 0.36306206E+04</pdfrwt>
<totfact> 0.28408617E-01</totfact>
</mgrwt>
</event>
<event>
 6    1  0.1817112E-005  0.6667411E+03  0.7818608E-02  0.9775863E-01
          2   -1    0    0  501    0  0.00000000000E+00  0.00000000000E+00  0.55918605250E+03  0.55918605250E+03  0.00000000000E+00 0. -1.
         -2   -1    0    0    0  501 -0.00000000000E+00 -0.00000000000E+00 -0.19874589735E+03  0.19874589735E+03  0.00000000000E+00 0.  1.
         23    2    1    2    0    0 -0.20535936750E+03  0.23883270461E+03  0.28137188569E+03  0.43317770146E+03  0.96225009082E+02 0.  0.
         11    1    3    3    0    0 -0.14665815236E+03  0.14502463405E+03  0.23639776522E+03  0.31372704942E+03  0.00000000000E+00 0. -1.
        -11    1    3    3    0    0 -0.58701215141E+02  0.93808070559E+02  0.44974120470E+02  0.11945065204E+03  0.00000000000E+00 0.  1.
         22    1    1    2    0    0  0.20535936750E+03 -0.23883270461E+03  0.79068269463E+02  0.32475424839E+03  0.00000000000E+00 0.  1.
<mgrwt>
<rscale>  0 0.66674113E+03</rscale>
<asrwt>0</asrwt>
<pdfrwt beam="1">  1        2 0.86028623E-01 0.66674113E+03</pdfrwt>
<pdfrwt beam="2">  1       -2 0.30576292E-01 0.66674113E+03</pdfrwt>
<totfact> 0.53746184E+02</totfact>
</mgrwt>
</event>
<event>
 6    1  0.1817112E-005  0.1521299E+04  0.7818608E-02  0.8870412E-01
          2   -1    0    0  501    0  0.00000000000E+00  0.00000000000E+00  0.94626780657E+03  0.94626780657E+03  0.00000000000E+00 0. -1.
         -2   -1    0    0    0  501 -0.00000000000E+00 -0.00000000000E+00 -0.61144148979E+03  0.61144148979E+03  0.00000000000E+00 0.  1.
         23    2    1    2    0    0 -0.17793523629E+03  0.37153983573E+03  0.81962244502E+03  0.92152529483E+03  0.87892654927E+02 0.  0.
         11    1    3    3    0    0 -0.15714991088E+02  0.70797247713E+02  0.21660161950E+03  0.22841951055E+03  0.00000000000E+00 0. -1.
        -11    1    3    3    0    0 -0.16222024520E+03  0.30074258802E+03  0.60302082552E+03  0.69310578429E+03  0.00000000000E+00 0.  1.
         22    1    1    2    0    0  0.17793523629E+03 -0.37153983573E+03 -0.48479612824E+03  0.63618400153E+03  0.00000000000E+00 0.  1.
<mgrwt>
<rscale>  0 0.15212987E+04</rscale>
<asrwt>0</asrwt>
<pdfrwt beam="1">  1        2 0.14557966E+00 0.15212987E+04</pdfrwt>
<pdfrwt beam="2">  1       -2 0.94067922E-01 0.15212987E+04</pdfrwt>
<totfact> 0.25126443E+01</totfact>
</mgrwt>
</event>
<event>
 6    1  0.1817112E-005  0.3311397E+04  0.7818608E-02  0.8160001E-01
         -2   -1    0    0    0  501 -0.00000000000E+00  0.00000000000E+00  0.29809440126E+04  0.29809440126E+04  0.00000000000E+00 0. -1.
          2   -1    0    0  501    0  0.00000000000E+00 -0.00000000000E+00 -0.91962054209E+03  0.91962054209E+03  0.00000000000E+00 0.  1.
         23    2    1    2    0    0 -0.30766125458E+03  0.13928171476E+04  0.44194830042E+02  0.14300579252E+04  0.92289934180E+02 0.  0.
         13    1    3    3    0    0 -0.17501584398E+03  0.92251060718E+03 -0.45671656833E+01  0.93897669035E+03  0.00000000000E+00 0. -1.
        -13    1    3    3    0    0 -0.13264541060E+03  0.47030654046E+03  0.48761995725E+02  0.49108123481E+03  0.00000000000E+00 0.  1.
         22    1    1    2    0    0  0.30766125458E+03 -0.13928171476E+04  0.20171286404E+04  0.24705066295E+04  0.00000000000E+00 0. -1.
<mgrwt>
<rscale>  0 0.33113969E+04</rscale>
<asrwt>0</asrwt>
<pdfrwt beam="1">  1        2 0.14148009E+00 0.33113969E+04</pdfrwt>
<pdfrwt beam="2">  1       -2 0.45860676E+00 0.33113969E+04</pdfrwt>
<totfact> 0.72169166E-02</totfact>
</mgrwt>
</event>
<event>
 6    1  0.1817112E-005  0.3871282E+04  0.7818608E-02  0.8031029E-01
          2   -1    0    0  501    0  0.00000000000E+00  0.00000000000E+00  0.19788956094E+04  0.19788956094E+04  0.00000000000E+00 0. -1.
         -2   -1    0    0    0  501 -0.00000000000E+00 -0.00000000000E+00 -0.18933318726E+04  0.18933318726E+04  0.00000000000E+00 0.  1.
         23    2    1    2    0    0 -0.18293877896E+04  0.39536644817E+03 -0.44716029528E+03  0.19262651988E+04  0.87011339881E+02 0.  0.
         13    1    3    3    0    0 -0.13966459603E+04  0.31548225293E+03 -0.30643390746E+03  0.14642577403E+04  0.00000000000E+00 0.  1.
        -13    1    3    3    0    0 -0.43274182931E+03  0.79884195243E+02 -0.14072638783E+03  0.46200745850E+03  0.00000000000E+00 0. -1.
         22    1    1    2    0    0  0.18293877896E+04 -0.39536644817E+03  0.53272403205E+03  0.19459622832E+04  0.00000000000E+00 0. -1.
<mgrwt>
<rscale>  0 0.38712820E+04</rscale>
<asrwt>0</asrwt>
<pdfrwt beam="1">  1        2 0.30444548E+00 0.38712820E+04</pdfrwt>
<pdfrwt beam="2">  1       -2 0.29128183E+00 0.38712820E+04</pdfrwt>
<totfact> 0.19664305E-01</totfact>
</mgrwt>
</event>
<event>
 6    1  0.1817112E-005  0.1107155E+04  0.7818608E-02  0.9198246E-01
          2   -1    0    0  501    0  0.00000000000E+00  0.00000000000E+00  0.69618756269E+03  0.69618756269E+03  0.00000000000E+00 0.  1.
         -2   -1    0    0    0  501 -0.00000000000E+00 -0.00000000000E+00 -0.44018047925E+03  0.44018047925E+03  0.00000000000E+00 0. -1.
         23    2    1    2    0    0  0.49151877200E+03  0.19653554283E+03 -0.23819772516E+02  0.53760265205E+03  0.90732062186E+02 0.  0.
         13    1    3    3    0    0  0.10671970520E+03  0.76774764642E+01 -0.20509817368E+02  0.10894352543E+03  0.00000000000E+00 0. -1.
        -13    1    3    3    0    0  0.38479906679E+03  0.18885806636E+03 -0.33099551480E+01  0.42865912663E+03  0.00000000000E+00 0.  1.
         22    1    1    2    0    0 -0.49151877200E+03 -0.19653554283E+03  0.27982685596E+03  0.59876538990E+03  0.00000000000E+00 0. -1.
<mgrwt>
<rscale>  0 0.11071552E+04</rscale>
<asrwt>0</asrwt>
<pdfrwt beam="1">  1        2 0.10710578E+00 0.11071552E+04</pdfrwt>
<pdfrwt beam="2">  1       -2 0.67720074E-01 0.11071552E+04</pdfrwt>
<totfact> 0.81856435E+01</totfact>
</mgrwt>
</event>
<event>
 6    1  0.1817112E-005  0.3397731E+04  0.7818608E-02  0.8138463E-01
         -2   -1    0    0    0  501 -0.00000000000E+00  0.00000000000E+00  0.84144713992E+03  0.84144713992E+03  0.00000000000E+00 0.  1.
          2   -1    0    0  501    0  0.00000000000E+00 -0.00000000000E+00 -0.34299773549E+04  0.34299773549E+04  0.00000000000E+00 0. -1.
         23    2    1    2    0    0 -0.55685250316E+03 -0.15133487419E+04 -0.19618668727E+04  0.25413909491E+04  0.97145279488E+02 0.  0.
         13    1    3    3    0    0 -0.27501923623E+03 -0.66656594752E+03 -0.81499515263E+03  0.10881924653E+04  0.00000000000E+00 0. -1.
        -13    1    3    3    0    0 -0.28183326693E+03 -0.84678279434E+03 -0.11468717201E+04  0.14531984838E+04  0.00000000000E+00 0.  1.
         22    1    1    2    0    0  0.55685250316E+03  0.15133487419E+04 -0.62666334229E+03  0.17300335457E+04  0.00000000000E+00 0.  1.
<mgrwt>
<rscale>  0 0.33977314E+04</rscale>
<asrwt>0</asrwt>
<pdfrwt beam="1">  1        2 0.52768883E+00 0.33977314E+04</pdfrwt>
<pdfrwt beam="2">  1       -2 0.12945341E+00 0.33977314E+04</pdfrwt>
<totfact> 0.33026844E-01</totfact>
</mgrwt>
</event>
<event>
 6    1  0.1817112E-005  0.3609637E+04  0.7818608E-02  0.8088288E-01
          2   -1    0    0  501    0  0.00000000000E+00  0.00000000000E+00  0.45250007646E+04  0.45250007646E+04  0.00000000000E+00 0.  1.
         -2   -1    0    0    0  501 -0.00000000000E+00 -0.00000000000E+00 -0.71986074225E+03  0.71986074225E+03  0.00000000000E+00 0. -1.
         23    2    1    2    0    0  0.11922238583E+04  0.93452503229E+03  0.48135800653E+03  0.15921554342E+04  0.92296436025E+02 0.  0.
         13    1    3    3    0    0  0.10735697202E+04  0.84692736613E+03  0.40534673892E+03  0.14262341626E+04  0.00000000000E+00 0.  1.
        -13    1    3    3    0    0  0.11865413806E+03  0.87597666152E+02  0.76011267611E+02  0.16592127169E+03  0.00000000000E+00 0. -1.
         22    1    1    2    0    0 -0.11922238583E+04 -0.93452503229E+03  0.33237820159E+04  0.36527060727E+04  0.00000000000E+00 0.  1.
<mgrwt>
<rscale>  0 0.36096373E+04</rscale>
<asrwt>0</asrwt>
<pdfrwt beam="1">  1        2 0.69615395E+00 0.36096373E+04</pdfrwt>
<pdfrwt beam="2">  1       -2 0.11074781E+00 0.36096373E+04</pdfrwt>
<totfact> 0.60870812E-02</totfact>
</mgrwt>
</event>
<event>
 6    1  0.1817112E-005  0.4555455E+04  0.7818608E-02  0.7900999E-01
         -2   -1    0    0    0  501 -0.00000000000E+00  0.00000000000E+00  0.24137539981E+04  0.24137539981E+04  0.00000000000E+00 0. -1.
          2   -1    0    0  501    0  0.00000000000E+00 -0.00000000000E+00 -0.21493672060E+04  0.21493672060E+04  0.00000000000E+00 0.  1.
         23    2    1    2    0    0 -0.14072670075E+04  0.14403720163E+04 -0.93199846149E+03  0.22208125884E+04  0.91189059536E+02 0.  0.
         13    1    3    3    0    0 -0.89343962295E+03  0.97640953201E+03 -0.61143383764E+03  0.14578961801E+04  0.00000000000E+00 0. -1.
        -13    1    3    3    0    0 -0.51382738458E+03  0.46396248430E+03 -0.32056462385E+03  0.76291640830E+03  0.00000000000E+00 0.  1.
         22    1    1    2    0    0  0.14072670075E+04 -0.14403720163E+04  0.11963852536E+04  0.23423086156E+04  0.00000000000E+00 0. -1.
<mgrwt>
<rscale>  0 0.45554555E+04</rscale>
<asrwt>0</asrwt>
<pdfrwt beam="1">  1        2 0.33067188E+00 0.45554555E+04</pdfrwt>
<pdfrwt beam="2">  1       -2 0.37134677E+00 0.45554555E+04</pdfrwt>
<totfact> 0.47335735E-02</totfact>
</mgrwt>
</event>
<event>
 6    1  0.1817112E-005  0.8813403E+03  0.7818608E-02  0.9449212E-01
         -2   -1    0    0    0  501 -0.00000000000E+00  0.00000000000E+00  0.20115134919E+03  0.20115134919E+03  0.00000000000E+00 0. -1.
          2   -1    0    0  501    0  0.00000000000E+00 -0.00000000000E+00 -0.96539343619E+03  0.96539343619E+03  0.00000000000E+00 0.  1.
         23    2    1    2    0    0  0.21656811744E+03  0.27714986590E+03 -0.45230871521E+02  0.36611307334E+03  0.90989851486E+02 0.  0.
         13    1    3    3    0    0  0.20493367106E+03  0.26631249357E+03 -0.63405028313E+02  0.34196542425E+03  0.00000000000E+00 0. -1.
        -13    1    3    3    0    0  0.11634446378E+02  0.10837372326E+02  0.18174156792E+02  0.24147649090E+02  0.00000000000E+00 0.  1.
         22    1    1    2    0    0 -0.21656811744E+03 -0.27714986590E+03 -0.71901121548E+03  0.80043171204E+03  0.00000000000E+00 0.  1.
<mgrwt>
<rscale>  0 0.88134033E+03</rscale>
<asrwt>0</asrwt>
<pdfrwt beam="1">  1        2 0.14852206E+00 0.88134033E+03</pdfrwt>
<pdfrwt beam="2">  1       -2 0.30946362E-01 0.88134033E+03</pdfrwt>
<totfact> 0.25711377E+02</totfact>
</mgrwt>
</event>
<event>
 6    1  0.1817112E-005  0.4528289E+04  0.7818608E-02  0.7905703E-01
          2   -1    0    0  501    0  0.00000000000E+00  0.00000000000E+00  0.42694893252E+04  0.42694893252E+04  0.00000000000E+00 0. -1.
         -2   -1    0    0    0  501 -0.00000000000E+00 -0.00000000000E+00 -0.12006939913E+04  0.12006939913E+04  0.00000000000E+00 0.  1.
         23    2    1    2    0    0 -0.56596557751E+03 -0.16534655756E+04  0.32721604052E+04  0.37107451116E+04  0.91269496003E+02 0.  0.
         13    1    3    3    0    0 -0.17477328085E+03 -0.51771151153E+03  0.11143286955E+04  0.12410879704E+04  0.00000000000E+00 0. -1.
        -13    1    3    3    0    0 -0.39119229665E+03 -0.11357540641E+04  0.21578317098E+04  0.24696571412E+04  0.00000000000E+00 0.  1.
         22    1    1    2    0    0  0.56596557751E+03  0.16534655756E+04 -0.20336507133E+03  0.17594382049E+04  0.00000000000E+00 0.  1.
<mgrwt>
<rscale>  0 0.45282889E+04</rscale>
<asrwt>0</asrwt>
<pdfrwt beam="1">  1        2 0.65684451E+00 0.45282889E+04</pdfrwt>
<pdfrwt beam="2">  1       -2 0.18472215E+00 0.45282889E+04</pdfrwt>
<totfact> 0.25536573E-02</totfact>
</mgrwt>
</event>
<event>
 6    1  0.1817112E-005  0.2563448E+04  0.7818608E-02  0.8380724E-01
         -2   -1    0    0    0  501 -0.00000000000E+00  0.00000000000E+00  0.72492970034E+03  0.72492970034E+03  0.00000000000E+00 0.  1.
          2   -1    0    0  501    0  0.00000000000E+00 -0.00000000000E+00 -0.22661735459E+04  0.22661735459E+04  0.00000000000E+00 0. -1.
         23    2    1    2    0    0 -0.87956381659E+03 -0.78118379287E+03 -0.13605739481E+04  0.18009258488E+04  0.91059424407E+02 0.  0.
         13    1    3    3    0    0 -0.24689267543E+03 -0.25745908769E+03 -0.45952719454E+03  0.58172709885E+03  0.00000000000E+00 0.  1.
        -13    1    3    3    0    0 -0.63267114115E+03 -0.52372470518E+03 -0.90104675356E+03  0.12191987499E+04  0.00000000000E+00 0. -1.
         22    1    1    2    0    0  0.87956381659E+03  0.78118379287E+03 -0.18066989748E+03  0.11901773975E+04  0.00000000000E+00 0.  1.
<mgrwt>
<rscale>  0 0.25634481E+04</rscale>
<asrwt>0</asrwt>
<pdfrwt beam="1">  1        2 0.34864209E+00 0.25634481E+04</pdfrwt>
<pdfrwt beam="2">  1       -2 0.11152765E+00 0.25634481E+04</pdfrwt>
<totfact> 0.26707643E+00</totfact>
</mgrwt>
</event>
<event>
 6    1  0.1817112E-005  0.1389740E+04  0.7818608E-02  0.8961279E-01
          2   -1    0    0  501    0  0.00000000000E+00  0.00000000000E+00  0.51574475853E+03  0.51574475853E+03  0.00000000000E+00 0. -1.
         -2   -1    0    0    0  501 -0.00000000000E+00 -0.00000000000E+00 -0.93620853285E+03  0.93620853285E+03  0.00000000000E+00 0.  1.
         23    2    1    2    0    0 -0.41623201884E+02  0.54072075384E+03 -0.65991762461E+03  0.85912146785E+03  0.92124918837E+02 0.  0.
         11    1    3    3    0    0  0.19294816261E+02  0.16247666046E+03 -0.15567712989E+03  0.22584579672E+03  0.00000000000E+00 0.  1.
        -11    1    3    3    0    0 -0.60918018145E+02  0.37824409338E+03 -0.50424049473E+03  0.63327567112E+03  0.00000000000E+00 0. -1.
         22    1    1    2    0    0  0.41623201884E+02 -0.54072075384E+03  0.23945385029E+03  0.59283182353E+03  0.00000000000E+00 0. -1.
<mgrwt>
<rscale>  0 0.13897405E+04</rscale>
<asrwt>0</asrwt>
<pdfrwt beam="1">  1        2 0.79345348E-01 0.13897405E+04</pdfrwt>
<pdfrwt beam="2">  1       -2 0.14403208E+00 0.13897405E+04</pdfrwt>
<totfact> 0.19276122E+01</totfact>
</mgrwt>
</event>
<event>
 6    1  0.1817112E-005  0.2548932E+04  0.7818608E-02  0.8385758E-01
          2   -1    0    0  501    0  0.00000000000E+00  0.00000000000E+00  0.31650199629E+04  0.31650199629E+04  0.00000000000E+00 0. -1.
         -2   -1    0    0    0  501 -0.00000000000E+00 -0.00000000000E+00 -0.51319223707E+03  0.51319223707E+03  0.00000000000E+00 0.  1.
         23    2    1    2    0    0  0.14678712939E+03 -0.76864452198E+03 -0.12059810489E+03  0.79746475367E+03  0.95106613360E+02 0.  0.
         13    1    3    3    0    0  0.15370814408E+03 -0.60693743844E+03 -0.86336868498E+02  0.63202318201E+03  0.00000000000E+00 0. -1.
        -13    1    3    3    0    0 -0.69210146886E+01 -0.16170708355E+03 -0.34261236391E+02  0.16544157166E+03  0.00000000000E+00 0.  1.
         22    1    1    2    0    0 -0.14678712939E+03  0.76864452198E+03  0.27724258307E+04  0.28807474463E+04  0.00000000000E+00 0. -1.
<mgrwt>
<rscale>  0 0.25489321E+04</rscale>
<asrwt>0</asrwt>
<pdfrwt beam="1">  1        2 0.48692614E+00 0.25489321E+04</pdfrwt>
<pdfrwt beam="2">  1       -2 0.78952654E-01 0.25489321E+04</pdfrwt>
<totfact> 0.17288681E+00</totfact>
</mgrwt>
</event>
<event>
 6    1  0.1817112E-005  0.5597987E+04  0.7818608E-02  0.7742348E-01
         -2   -1    0    0    0  501 -0.00000000000E+00  0.00000000000E+00  0.35589944145E+04  0.35589944145E+04  0.00000000000E+00 0.  1.
          2   -1    0    0  501    0  0.00000000000E+00 -0.00000000000E+00 -0.22012858155E+04  0.22012858155E+04  0.00000000000E+00 0. -1.
         23    2    1    2    0    0  0.12373050971E+04 -0.15134768739E+04  0.27391261717E+04  0.33665695830E+04  0.97172122391E+02 0.  0.
         11    1    3    3    0    0  0.69893395034E+03 -0.84475538505E+03  0.16180357494E+04  0.19545229633E+04  0.00000000000E+00 0. -1.
        -11    1    3    3    0    0  0.53837114680E+03 -0.66872148883E+03  0.11210904222E+04  0.14120466197E+04  0.00000000000E+00 0.  1.
         22    1    1    2    0    0 -0.12373050971E+04  0.15134768739E+04 -0.13814175727E+04  0.23937106470E+04  0.00000000000E+00 0. -1.
<mgrwt>
<rscale>  0 0.55979868E+04</rscale>
<asrwt>0</asrwt>
<pdfrwt beam="1">  1        2 0.33865936E+00 0.55979868E+04</pdfrwt>
<pdfrwt beam="2">  1       -2 0.54753760E+00 0.55979868E+04</pdfrwt>
<totfact> 0.31946789E-03</totfact>
</mgrwt>
</event>
<event>
 6    1  0.1817112E-005  0.2272699E+04  0.7818608E-02  0.8488764E-01
         -2   -1    0    0    0  501 -0.00000000000E+00  0.00000000000E+00  0.67033587345E+03  0.67033587345E+03  0.00000000000E+00 0.  1.
          2   -1    0    0  501    0  0.00000000000E+00 -0.00000000000E+00 -0.19263323771E+04  0.19263323771E+04  0.00000000000E+00 0. -1.
         23    2    1    2    0    0 -0.10893067677E+04 -0.66082392952E+02 -0.27503435660E+03  0.11292750344E+04  0.93070345249E+02 0.  0.
         11    1    3    3    0    0 -0.88466212559E+03 -0.84773117045E+02 -0.20380582956E+03  0.91178417073E+03  0.00000000000E+00 0.  1.
        -11    1    3    3    0    0 -0.20464464211E+03  0.18690724093E+02 -0.71228527033E+02  0.21749086366E+03  0.00000000000E+00 0. -1.
         22    1    1    2    0    0  0.10893067677E+04  0.66082392952E+02 -0.98096214704E+03  0.14673932161E+04  0.00000000000E+00 0. -1.
<mgrwt>
<rscale>  0 0.22726986E+04</rscale>
<asrwt>0</asrwt>
<pdfrwt beam="1">  1        2 0.29635882E+00 0.22726986E+04</pdfrwt>
<pdfrwt beam="2">  1       -2 0.10312860E+00 0.22726986E+04</pdfrwt>
<totfact> 0.51198674E+00</totfact>
</mgrwt>
</event>
<event>
 6    1  0.1817112E-005  0.1823720E+04  0.7818608E-02  0.8693786E-01
         -2   -1    0    0    0  501 -0.00000000000E+00  0.00000000000E+00  0.89694423949E+03  0.89694423949E+03  0.00000000000E+00 0.  1.
          2   -1    0    0  501    0  0.00000000000E+00 -0.00000000000E+00 -0.92702338217E+03  0.92702338217E+03  0.00000000000E+00 0. -1.
         23    2    1    2    0    0 -0.69557382669E+03  0.51393523553E+03 -0.29683505885E+03  0.91892005744E+03  0.91381864288E+02 0.  0.
         11    1    3    3    0    0 -0.27740780893E+03  0.17512841305E+03 -0.73309370454E+02  0.33615371084E+03  0.00000000000E+00 0.  1.
        -11    1    3    3    0    0 -0.41816601775E+03  0.33880682248E+03 -0.22352568840E+03  0.58276634661E+03  0.00000000000E+00 0. -1.
         22    1    1    2    0    0  0.69557382669E+03 -0.51393523553E+03  0.26675591617E+03  0.90504756422E+03  0.00000000000E+00 0. -1.
<mgrwt>
<rscale>  0 0.18237196E+04</rscale>
<asrwt>0</asrwt>
<pdfrwt beam="1">  1        2 0.14261898E+00 0.18237196E+04</pdfrwt>
<pdfrwt beam="2">  1       -2 0.13799142E+00 0.18237196E+04</pdfrwt>
<totfact> 0.98791442E+00</totfact>
</mgrwt>
</event>
<event>
 6    1  0.1817112E-005  0.1983193E+04  0.7818608E-02  0.8614519E-01
         -2   -1    0    0    0  501 -0.00000000000E+00  0.00000000000E+00  0.10182238975E+04  0.10182238975E+04  0.00000000000E+00 0.  1.
          2   -1    0    0  501    0  0.00000000000E+00 -0.00000000000E+00 -0.96566569120E+03  0.96566569120E+03  0.00000000000E+00 0. -1.
         23    2    1    2    0    0  0.55084809024E+03 -0.81722377879E+03  0.11491113056E+03  0.99637948229E+03  0.90990008609E+02 0.  0.
         11    1    3    3    0    0  0.82809958063E+02 -0.12623763471E+03  0.51004007010E+02  0.15935758000E+03  0.00000000000E+00 0.  1.
        -11    1    3    3    0    0  0.46803813218E+03 -0.69098614407E+03  0.63907123554E+02  0.83702190229E+03  0.00000000000E+00 0. -1.
         22    1    1    2    0    0 -0.55084809024E+03  0.81722377879E+03 -0.62352924241E+02  0.98751010643E+03  0.00000000000E+00 0.  1.
<mgrwt>
<rscale>  0 0.19831933E+04</rscale>
<asrwt>0</asrwt>
<pdfrwt beam="1">  1        2 0.14856395E+00 0.19831933E+04</pdfrwt>
<pdfrwt beam="2">  1       -2 0.15664983E+00 0.19831933E+04</pdfrwt>
<totfact> 0.65796476E+00</totfact>
</mgrwt>
</event>
<event>
 6    1  0.1817112E-005  0.4762131E+04  0.7818608E-02  0.7866286E-01
         -2   -1    0    0    0  501 -0.00000000000E+00  0.00000000000E+00  0.29416479359E+04  0.29416479359E+04  0.00000000000E+00 0.  1.
          2   -1    0    0  501    0  0.00000000000E+00 -0.00000000000E+00 -0.19273117922E+04  0.19273117922E+04  0.00000000000E+00 0. -1.
         23    2    1    2    0    0  0.18685387724E+04  0.78167524765E+03 -0.77086961423E+03  0.21690684460E+04  0.90358311454E+02 0.  0.
         13    1    3    3    0    0  0.86022597467E+03  0.39885230562E+03 -0.33158227894E+03  0.10044992269E+04  0.00000000000E+00 0. -1.
        -13    1    3    3    0    0  0.10083127978E+04  0.38282294202E+03 -0.43928733528E+03  0.11645692191E+04  0.00000000000E+00 0.  1.
         22    1    1    2    0    0 -0.18685387724E+04 -0.78167524765E+03  0.17852057579E+04  0.26998912820E+04  0.00000000000E+00 0.  1.
<mgrwt>
<rscale>  0 0.47621309E+04</rscale>
<asrwt>0</asrwt>
<pdfrwt beam="1">  1        2 0.29650950E+00 0.47621309E+04</pdfrwt>
<pdfrwt beam="2">  1       -2 0.45256122E+00 0.47621309E+04</pdfrwt>
<totfact> 0.18200393E-02</totfact>
</mgrwt>
</event>
<event>
 6    1  0.1817112E-005  0.5201288E+04  0.7818608E-02  0.7798185E-01
         -2   -1    0    0    0  501 -0.00000000000E+00  0.00000000000E+00  0.19604886800E+04  0.19604886800E+04  0.00000000000E+00 0.  1.
          2   -1    0    0  501    0  0.00000000000E+00 -0.00000000000E+00 -0.34498285817E+04  0.34498285817E+04  0.00000000000E+00 0. -1.
         23    2    1    2    0    0  0.95623130394E+03  0.18716238548E+04  0.84692071183E+03  0.22677915554E+04  0.90827782950E+02 0.  0.
         11    1    3    3    0    0  0.72428272074E+03  0.13353471734E+04  0.59446341867E+03  0.16312952796E+04  0.00000000000E+00 0. -1.
        -11    1    3    3    0    0  0.23194858320E+03  0.53627668139E+03  0.25245729316E+03  0.63649627581E+03  0.00000000000E+00 0.  1.
         22    1    1    2    0    0 -0.95623130394E+03 -0.18716238548E+04 -0.23362606135E+04  0.31425257063E+04  0.00000000000E+00 0. -1.
<mgrwt>
<rscale>  0 0.52012883E+04</rscale>
<asrwt>0</asrwt>
<pdfrwt beam="1">  1        2 0.53074285E+00 0.52012883E+04</pdfrwt>
<pdfrwt beam="2">  1       -2 0.30161365E+00 0.52012883E+04</pdfrwt>
<totfact> 0.19578056E-02</totfact>
</mgrwt>
</event>
<event>
 6    1  0.1817112E-005  0.1650430E+04  0.7818608E-02  0.8790152E-01
          2   -1    0    0  501    0  0.00000000000E+00  0.00000000000E+00  0.54395778273E+03  0.54395778273E+03  0.00000000000E+00 0.  1.
         -2   -1    0    0    0  501 -0.00000000000E+00 -0.00000000000E+00 -0.12518989976E+04  0.12518989976E+04  0.00000000000E+00 0. -1.
         23    2    1    2    0    0  0.52244160920E+03 -0.43190114934E+03 -0.86147596251E+03  0.11008339342E+04  0.10104790411E+03 0.  0.
         13    1    3    3    0    0  0.15001772115E+03 -0.18359468028E+03 -0.32118517843E+03  0.39921453146E+03  0.00000000000E+00 0.  1.
        -13    1    3    3    0    0  0.37242388805E+03 -0.24830646906E+03 -0.54029078409E+03  0.70161940276E+03  0.00000000000E+00 0. -1.
         22    1    1    2    0    0 -0.52244160920E+03  0.43190114934E+03  0.15353474767E+03  0.69502284607E+03  0.00000000000E+00 0. -1.
<mgrwt>
<rscale>  0 0.16504305E+04</rscale>
<asrwt>0</asrwt>
<pdfrwt beam="1">  1        2 0.83685814E-01 0.16504305E+04</pdfrwt>
<pdfrwt beam="2">  1       -2 0.19259984E+00 0.16504305E+04</pdfrwt>
<totfact> 0.79260115E+00</totfact>
</mgrwt>
</event>
<event>
 6    1  0.1817112E-005  0.9952386E+03  0.7818608E-02  0.9313782E-01
         -2   -1    0    0    0  501 -0.00000000000E+00  0.00000000000E+00  0.11221548602E+03  0.11221548602E+03  0.00000000000E+00 0.  1.
          2   -1    0    0  501    0  0.00000000000E+00 -0.00000000000E+00 -0.22066915611E+04  0.22066915611E+04  0.00000000000E+00 0. -1.
         23    2    1    2    0    0 -0.40715005220E+03  0.12964376904E+01 -0.40705900144E+03  0.58306453521E+03  0.92164938080E+02 0.  0.
         11    1    3    3    0    0 -0.22635181005E+03  0.41832982205E+02 -0.25352168191E+03  0.34243011478E+03  0.00000000000E+00 0.  1.
        -11    1    3    3    0    0 -0.18079824215E+03 -0.40536544515E+02 -0.15353731953E+03  0.24063442043E+03  0.00000000000E+00 0. -1.
         22    1    1    2    0    0  0.40715005220E+03 -0.12964376904E+01 -0.16874170736E+04  0.17358425119E+04  0.00000000000E+00 0. -1.
<mgrwt>
<rscale>  0 0.99523860E+03</rscale>
<asrwt>0</asrwt>
<pdfrwt beam="1">  1        2 0.33949098E+00 0.99523860E+03</pdfrwt>
<pdfrwt beam="2">  1       -2 0.17263923E-01 0.99523860E+03</pdfrwt>
<totfact> 0.14216265E+02</totfact>
</mgrwt>
</event>
<event>
 6    1  0.1817112E-005  0.1088825E+04  0.7818608E-02  0.9216153E-01
         -2   -1    0    0    0  501 -0.00000000000E+00  0.00000000000E+00  0.43063936348E+03  0.43063936348E+03  0.00000000000E+00 0.  1.
          2   -1    0    0  501    0  0.00000000000E+00 -0.00000000000E+00 -0.68824371233E+03  0.68824371233E+03  0.00000000000E+00 0. -1.
         23    2    1    2    0    0 -0.11285260985E+03  0.52266203377E+03 -0.21153563466E+03  0.58219542035E+03  0.91065194465E+02 0.  0.
         13    1    3    3    0    0 -0.80263379307E+02  0.38657464965E+03 -0.19777664833E+03  0.44158552109E+03  0.00000000000E+00 0. -1.
        -13    1    3    3    0    0 -0.32589230539E+02  0.13608738412E+03 -0.13758986332E+02  0.14060989926E+03  0.00000000000E+00 0.  1.
         22    1    1    2    0    0  0.11285260985E+03 -0.52266203377E+03 -0.46068714197E+02  0.53668765546E+03  0.00000000000E+00 0.  1.
<mgrwt>
<rscale>  0 0.10888248E+04</rscale>
<asrwt>0</asrwt>
<pdfrwt beam="1">  1        2 0.10588365E+00 0.10888248E+04</pdfrwt>
<pdfrwt beam="2">  1       -2 0.66252210E-01 0.10888248E+04</pdfrwt>
<totfact> 0.87184438E+01</totfact>
</mgrwt>
</event>
<event>
 6    1  0.1817112E-005  0.2469860E+04  0.7818608E-02  0.8413802E-01
         -2   -1    0    0    0  501 -0.00000000000E+00  0.00000000000E+00  0.19539519018E+04  0.19539519018E+04  0.00000000000E+00 0.  1.
          2   -1    0    0  501    0  0.00000000000E+00 -0.00000000000E+00 -0.78049616282E+03  0.78049616282E+03  0.00000000000E+00 0. -1.
         23    2    1    2    0    0 -0.86494826757E+03 -0.82156628296E+03  0.24117009616E+03  0.12204258776E+04  0.90386086401E+02 0.  0.
         13    1    3    3    0    0 -0.82544057662E+02 -0.10967363731E+03  0.46002089619E+02  0.14476885171E+03  0.00000000000E+00 0.  1.
        -13    1    3    3    0    0 -0.78240420991E+03 -0.71189264565E+03  0.19516800654E+03  0.10756570259E+04  0.00000000000E+00 0. -1.
         22    1    1    2    0    0  0.86494826757E+03  0.82156628296E+03  0.93228564277E+03  0.15140221870E+04  0.00000000000E+00 0.  1.
<mgrwt>
<rscale>  0 0.24698599E+04</rscale>
<asrwt>0</asrwt>
<pdfrwt beam="1">  1        2 0.12007633E+00 0.24698599E+04</pdfrwt>
<pdfrwt beam="2">  1       -2 0.30060798E+00 0.24698599E+04</pdfrwt>
<totfact> 0.10030349E+00</totfact>
</mgrwt>
</event>
<event>
 6    1  0.1817112E-005  0.2396407E+04  0.7818608E-02  0.8440850E-01
         -2   -1    0    0    0  501 -0.00000000000E+00  0.00000000000E+00  0.86846405294E+03  0.86846405294E+03  0.00000000000E+00 0.  1.
          2   -1    0    0  501    0  0.00000000000E+00 -0.00000000000E+00 -0.16531392670E+04  0.16531392670E+04  0.00000000000E+00 0. -1.
         23    2    1    2    0    0  0.33373327147E+03  0.21973542574E+03 -0.15796161610E+04  0.16318883865E+04  0.90614215653E+02 0.  0.
         11    1    3    3    0    0  0.11229183091E+03  0.81663313936E+02 -0.38979656023E+03  0.41378703520E+03  0.00000000000E+00 0.  1.
        -11    1    3    3    0    0  0.22144144056E+03  0.13807211180E+03 -0.11898196007E+04  0.12181013513E+04  0.00000000000E+00 0. -1.
         22    1    1    2    0    0 -0.33373327147E+03 -0.21973542574E+03  0.79494094690E+03  0.88971493349E+03  0.00000000000E+00 0.  1.
<mgrwt>
<rscale>  0 0.23964073E+04</rscale>
<asrwt>0</asrwt>
<pdfrwt beam="1">  1        2 0.25432912E+00 0.23964073E+04</pdfrwt>
<pdfrwt beam="2">  1       -2 0.13360985E+00 0.23964073E+04</pdfrwt>
<totfact> 0.37954161E+00</totfact>
</mgrwt>
</event>
<event>
 6    1  0.1817112E-005  0.1542225E+04  0.7818608E-02  0.8856849E-01
         -2   -1    0    0    0  501 -0.00000000000E+00  0.00000000000E+00  0.12214495396E+04  0.12214495396E+04  0.00000000000E+00 0.  1.
          2   -1    0    0  501    0  0.00000000000E+00 -0.00000000000E+00 -0.48681069592E+03  0.48681069592E+03  0.00000000000E+00 0. -1.
         23    2    1    2    0    0 -0.12602505011E+03  0.67643330676E+03  0.74774870101E+03  0.10200624441E+04  0.89190460527E+02 0.  0.
         13    1    3    3    0    0 -0.29163405748E+02  0.39571011640E+03  0.43541524584E+03  0.58908695179E+03  0.00000000000E+00 0. -1.
        -13    1    3    3    0    0 -0.96861644365E+02  0.28072319036E+03  0.31233345517E+03  0.43097549232E+03  0.00000000000E+00 0.  1.
         22    1    1    2    0    0  0.12602505011E+03 -0.67643330676E+03 -0.13109857324E+02  0.68819779142E+03  0.00000000000E+00 0. -1.
<mgrwt>
<rscale>  0 0.15422253E+04</rscale>
<asrwt>0</asrwt>
<pdfrwt beam="1">  1        2 0.74893953E-01 0.15422253E+04</pdfrwt>
<pdfrwt beam="2">  1       -2 0.18791531E+00 0.15422253E+04</pdfrwt>
<totfact> 0.97842096E+00</totfact>
</mgrwt>
</event>
<event>
 6    1  0.1817112E-005  0.1515121E+04  0.7818608E-02  0.8874459E-01
         -2   -1    0    0    0  501 -0.00000000000E+00  0.00000000000E+00  0.44208978392E+03  0.44208978392E+03  0.00000000000E+00 0.  1.
          2   -1    0    0  501    0  0.00000000000E+00 -0.00000000000E+00 -0.12981484520E+04  0.12981484520E+04  0.00000000000E+00 0. -1.
         23    2    1    2    0    0 -0.53745189604E+03  0.39229274901E+03 -0.20143076735E+02  0.67182679019E+03  0.90539223482E+02 0.  0.
         13    1    3    3    0    0 -0.17521338734E+03  0.11764636741E+03 -0.47835519635E+02  0.21639925094E+03  0.00000000000E+00 0.  1.
        -13    1    3    3    0    0 -0.36223850870E+03  0.27464638161E+03  0.27692442900E+02  0.45542753925E+03  0.00000000000E+00 0. -1.
         22    1    1    2    0    0  0.53745189604E+03 -0.39229274901E+03 -0.83591559132E+03  0.10684114457E+04  0.00000000000E+00 0. -1.
<mgrwt>
<rscale>  0 0.15151213E+04</rscale>
<asrwt>0</asrwt>
<pdfrwt beam="1">  1        2 0.19971514E+00 0.15151213E+04</pdfrwt>
<pdfrwt beam="2">  1       -2 0.68013814E-01 0.15151213E+04</pdfrwt>
<totfact> 0.31657672E+01</totfact>
</mgrwt>
</event>
<event>
 6    1  0.1817112E-005  0.1602161E+04  0.7818608E-02  0.8819222E-01
          2   -1    0    0  501    0  0.00000000000E+00  0.00000000000E+00  0.13892921193E+04  0.13892921193E+04  0.00000000000E+00 0. -1.
         -2   -1    0    0    0  501 -0.00000000000E+00 -0.00000000000E+00 -0.46191136604E+03  0.46191136604E+03  0.00000000000E+00 0.  1.
         23    2    1    2    0    0  0.63214328191E+03  0.46919989148E+03  0.61920213455E+03  0.10057877722E+04  0.91891741494E+02 0.  0.
         11    1    3    3    0    0  0.17662671146E+03  0.14031359358E+03  0.12715520348E+03  0.25894660747E+03  0.00000000000E+00 0.  1.
        -11    1    3    3    0    0  0.45551657045E+03  0.32888629789E+03  0.49204693107E+03  0.74684116469E+03  0.00000000000E+00 0. -1.
         22    1    1    2    0    0 -0.63214328191E+03 -0.46919989148E+03  0.30817861868E+03  0.84541571315E+03  0.00000000000E+00 0.  1.
<mgrwt>
<rscale>  0 0.16021608E+04</rscale>
<asrwt>0</asrwt>
<pdfrwt beam="1">  1        2 0.21373725E+00 0.16021608E+04</pdfrwt>
<pdfrwt beam="2">  1       -2 0.71063288E-01 0.16021608E+04</pdfrwt>
<totfact> 0.25308091E+01</totfact>
</mgrwt>
</event>
<event>
 6    1  0.1817112E-005  0.2576864E+04  0.7818608E-02  0.8376103E-01
         -2   -1    0    0    0  501 -0.00000000000E+00  0.00000000000E+00  0.11484866141E+04  0.11484866141E+04  0.00000000000E+00 0.  1.
          2   -1    0    0  501    0  0.00000000000E+00 -0.00000000000E+00 -0.14454298245E+04  0.14454298245E+04  0.00000000000E+00 0. -1.
         23    2    1    2    0    0 -0.96722035849E+03  0.55886555463E+03 -0.79190121015E+03  0.13721024791E+04  0.87816606667E+02 0.  0.
         13    1    3    3    0    0 -0.35419480651E+03  0.23279323363E+03 -0.34336447668E+03  0.54547760213E+03  0.00000000000E+00 0.  1.
        -13    1    3    3    0    0 -0.61302555198E+03  0.32607232100E+03 -0.44853673348E+03  0.82662487694E+03  0.00000000000E+00 0. -1.
         22    1    1    2    0    0  0.96722035849E+03 -0.55886555463E+03  0.49495799973E+03  0.12218139595E+04  0.00000000000E+00 0.  1.
<mgrwt>
<rscale>  0 0.25768638E+04</rscale>
<asrwt>0</asrwt>
<pdfrwt beam="1">  1        2 0.22237382E+00 0.25768638E+04</pdfrwt>
<pdfrwt beam="2">  1       -2 0.17669025E+00 0.25768638E+04</pdfrwt>
<totfact> 0.23100908E+00</totfact>
</mgrwt>
</event>
<event>
 6    1  0.1817112E-005  0.3219312E+04  0.7818608E-02  0.8183736E-01
         -2   -1    0    0    0  501 -0.00000000000E+00  0.00000000000E+00  0.13029806110E+04  0.13029806110E+04  0.00000000000E+00 0.  1.
          2   -1    0    0  501    0  0.00000000000E+00 -0.00000000000E+00 -0.19885115735E+04  0.19885115735E+04  0.00000000000E+00 0. -1.
         23    2    1    2    0    0  0.99141138318E+03  0.10521565006E+04 -0.10638722125E+04  0.17971455266E+04  0.89320359093E+02 0.  0.
         13    1    3    3    0    0  0.75083486104E+03  0.75907102313E+03 -0.82116383104E+03  0.13469416632E+04  0.00000000000E+00 0.  1.
        -13    1    3    3    0    0  0.24057652214E+03  0.29308547752E+03 -0.24270838150E+03  0.45020386336E+03  0.00000000000E+00 0. -1.
         22    1    1    2    0    0 -0.99141138318E+03 -0.10521565006E+04  0.37834125006E+03  0.14943466579E+04  0.00000000000E+00 0.  1.
<mgrwt>
<rscale>  0 0.32193117E+04</rscale>
<asrwt>0</asrwt>
<pdfrwt beam="1">  1        2 0.30592486E+00 0.32193117E+04</pdfrwt>
<pdfrwt beam="2">  1       -2 0.20045856E+00 0.32193117E+04</pdfrwt>
<totfact> 0.75296548E-01</totfact>
</mgrwt>
</event>
<event>
 6    1  0.1817112E-005  0.1136267E+04  0.7818608E-02  0.9170547E-01
         -2   -1    0    0    0  501 -0.00000000000E+00  0.00000000000E+00  0.57054753532E+03  0.57054753532E+03  0.00000000000E+00 0.  1.
          2   -1    0    0  501    0  0.00000000000E+00 -0.00000000000E+00 -0.56572974768E+03  0.56572974768E+03  0.00000000000E+00 0. -1.
         23    2    1    2    0    0  0.24449487875E+03 -0.32545408167E+03  0.39378161428E+03  0.57325777761E+03  0.88670258986E+02 0.  0.
         13    1    3    3    0    0  0.72494754426E+02 -0.59915918258E+02  0.13496867688E+03  0.16450516836E+03  0.00000000000E+00 0. -1.
        -13    1    3    3    0    0  0.17200012433E+03 -0.26553816341E+03  0.25881293741E+03  0.40875260924E+03  0.00000000000E+00 0.  1.
         22    1    1    2    0    0 -0.24449487875E+03  0.32545408167E+03 -0.38896382664E+03  0.56301950539E+03  0.00000000000E+00 0. -1.
<mgrwt>
<rscale>  0 0.11362671E+04</rscale>
<asrwt>0</asrwt>
<pdfrwt beam="1">  1        2 0.87035346E-01 0.11362671E+04</pdfrwt>
<pdfrwt beam="2">  1       -2 0.87776544E-01 0.11362671E+04</pdfrwt>
<totfact> 0.59069657E+01</totfact>
</mgrwt>
</event>
<event>
 6    1  0.1817112E-005  0.3925313E+04  0.7818608E-02  0.8019785E-01
         -1   -1    0    0    0  501 -0.00000000000E+00  0.00000000000E+00  0.19051057802E+04  0.19051057802E+04  0.00000000000E+00 0.  1.
          1   -1    0    0  501    0  0.00000000000E+00 -0.00000000000E+00 -0.20219455547E+04  0.20219455547E+04  0.00000000000E+00 0. -1.
         23    2    1    2    0    0 -0.97673771825E+02  0.19592209639E+04 -0.62697219026E+02  0.19646501609E+04  0.88500634857E+02 0.  0.
         13    1    3    3    0    0 -0.40298916314E+02  0.28531626582E+03 -0.26602460690E+02  0.28937357362E+03  0.00000000000E+00 0. -1.
        -13    1    3    3    0    0 -0.57374855511E+02  0.16739046981E+04 -0.36094758336E+02  0.16752765873E+04  0.00000000000E+00 0.  1.
         22    1    1    2    0    0  0.97673771825E+02 -0.19592209639E+04 -0.54142555445E+02  0.19624011739E+04  0.00000000000E+00 0. -1.
<mgrwt>
<rscale>  0 0.39253128E+04</rscale>
<asrwt>0</asrwt>
<pdfrwt beam="1">  1        1 0.31106855E+00 0.39253128E+04</pdfrwt>
<pdfrwt beam="2">  1       -1 0.29309320E+00 0.39253128E+04</pdfrwt>
<totfact> 0.83012792E-02</totfact>
</mgrwt>
</event>
<event>
 6    1  0.1817112E-005  0.2128182E+04  0.7818608E-02  0.8548929E-01
         -2   -1    0    0    0  501 -0.00000000000E+00  0.00000000000E+00  0.61738687505E+03  0.61738687505E+03  0.00000000000E+00 0. -1.
          2   -1    0    0  501    0  0.00000000000E+00 -0.00000000000E+00 -0.18340042972E+04  0.18340042972E+04  0.00000000000E+00 0.  1.
         23    2    1    2    0    0  0.59310340731E+03  0.84971397347E+03 -0.87945024836E+03  0.13616814900E+04  0.83416140429E+02 0.  0.
         13    1    3    3    0    0  0.15521839744E+03  0.26780363199E+03 -0.29950906957E+03  0.43071709853E+03  0.00000000000E+00 0.  1.
        -13    1    3    3    0    0  0.43788500987E+03  0.58191034148E+03 -0.57994117879E+03  0.93096439150E+03  0.00000000000E+00 0. -1.
         22    1    1    2    0    0 -0.59310340731E+03 -0.84971397347E+03 -0.33716717382E+03  0.10897096822E+04  0.00000000000E+00 0. -1.
<mgrwt>
<rscale>  0 0.21281825E+04</rscale>
<asrwt>0</asrwt>
<pdfrwt beam="1">  1        2 0.28215451E+00 0.21281825E+04</pdfrwt>
<pdfrwt beam="2">  1       -2 0.94982597E-01 0.21281825E+04</pdfrwt>
<totfact> 0.70825187E+00</totfact>
</mgrwt>
</event>
<event>
 6    1  0.1817112E-005  0.4951708E+04  0.7818608E-02  0.7836000E-01
          2   -1    0    0  501    0  0.00000000000E+00  0.00000000000E+00  0.19551087255E+04  0.19551087255E+04  0.00000000000E+00 0. -1.
         -2   -1    0    0    0  501 -0.00000000000E+00 -0.00000000000E+00 -0.31353000486E+04  0.31353000486E+04  0.00000000000E+00 0.  1.
         23    2    1    2    0    0  0.17431249303E+04 -0.90167125454E+02  0.12130874347E+04  0.21282477648E+04  0.10603202760E+03 0.  0.
         13    1    3    3    0    0  0.42428205878E+02  0.11448581765E+02  0.19847753482E+02  0.48219871388E+02  0.00000000000E+00 0.  1.
        -13    1    3    3    0    0  0.17006967244E+04 -0.10161570722E+03  0.11932396812E+04  0.20800278934E+04  0.00000000000E+00 0. -1.
         22    1    1    2    0    0 -0.17431249303E+04  0.90167125454E+02 -0.23932787578E+04  0.29621610094E+04  0.00000000000E+00 0.  1.
<mgrwt>
<rscale>  0 0.49517078E+04</rscale>
<asrwt>0</asrwt>
<pdfrwt beam="1">  1        2 0.30078596E+00 0.49517078E+04</pdfrwt>
<pdfrwt beam="2">  1       -2 0.48235384E+00 0.49517078E+04</pdfrwt>
<totfact> 0.11084057E-02</totfact>
</mgrwt>
</event>
<event>
 6    1  0.1817112E-005  0.4263249E+04  0.7818608E-02  0.7953449E-01
         -2   -1    0    0    0  501 -0.00000000000E+00  0.00000000000E+00  0.11441543342E+04  0.11441543342E+04  0.00000000000E+00 0.  1.
          2   -1    0    0  501    0  0.00000000000E+00 -0.00000000000E+00 -0.39713384006E+04  0.39713384006E+04  0.00000000000E+00 0. -1.
         23    2    1    2    0    0 -0.11206326834E+04 -0.11135603891E+04  0.30059832061E+03  0.16113727296E+04  0.10162859901E+03 0.  0.
         11    1    3    3    0    0 -0.28303683945E+03 -0.22148840623E+03  0.64680142725E+02  0.36517186015E+03  0.00000000000E+00 0. -1.
        -11    1    3    3    0    0 -0.83759584392E+03 -0.89207198282E+03  0.23591817788E+03  0.12462008694E+04  0.00000000000E+00 0.  1.
         22    1    1    2    0    0  0.11206326834E+04  0.11135603891E+04 -0.31277823870E+04  0.35041200053E+04  0.00000000000E+00 0. -1.
<mgrwt>
<rscale>  0 0.42632495E+04</rscale>
<asrwt>0</asrwt>
<pdfrwt beam="1">  1        2 0.61097513E+00 0.42632495E+04</pdfrwt>
<pdfrwt beam="2">  1       -2 0.17602375E+00 0.42632495E+04</pdfrwt>
<totfact> 0.53649762E-02</totfact>
</mgrwt>
</event>
<event>
 6    1  0.1817112E-005  0.3559418E+04  0.7818608E-02  0.8099851E-01
          2   -1    0    0  501    0  0.00000000000E+00  0.00000000000E+00  0.27196713685E+04  0.27196713685E+04  0.00000000000E+00 0.  1.
         -2   -1    0    0    0  501 -0.00000000000E+00 -0.00000000000E+00 -0.11646130093E+04  0.11646130093E+04  0.00000000000E+00 0. -1.
         23    2    1    2    0    0 -0.13490347551E+04 -0.78306809672E+03  0.17098847769E+04  0.23167826604E+04  0.10337083960E+03 0.  0.
         13    1    3    3    0    0 -0.10618449289E+04 -0.63248736918E+03  0.12938783895E+04  0.17893228362E+04  0.00000000000E+00 0.  1.
        -13    1    3    3    0    0 -0.28718982622E+03 -0.15058072754E+03  0.41600638739E+03  0.52745982420E+03  0.00000000000E+00 0. -1.
         22    1    1    2    0    0  0.13490347551E+04  0.78306809672E+03 -0.15482641774E+03  0.15675017175E+04  0.00000000000E+00 0. -1.
<mgrwt>
<rscale>  0 0.35594183E+04</rscale>
<asrwt>0</asrwt>
<pdfrwt beam="1">  1        2 0.41841098E+00 0.35594183E+04</pdfrwt>
<pdfrwt beam="2">  1       -2 0.17917123E+00 0.35594183E+04</pdfrwt>
<totfact> 0.38822672E-01</totfact>
</mgrwt>
</event>
<event>
 6    1  0.1817112E-005  0.2387258E+04  0.7818608E-02  0.8444290E-01
          2   -1    0    0  501    0  0.00000000000E+00  0.00000000000E+00  0.24946681846E+04  0.24946681846E+04  0.00000000000E+00 0.  1.
         -2   -1    0    0    0  501 -0.00000000000E+00 -0.00000000000E+00 -0.57111792171E+03  0.57111792171E+03  0.00000000000E+00 0. -1.
         23    2    1    2    0    0 -0.10091526729E+04 -0.63522246112E+03  0.95219332970E+03  0.15277903378E+04  0.74662487636E+02 0.  0.
         11    1    3    3    0    0 -0.52987771553E+03 -0.30818503831E+03  0.45009151162E+03  0.76048062440E+03  0.00000000000E+00 0. -1.
        -11    1    3    3    0    0 -0.47927495732E+03 -0.32703742281E+03  0.50210181808E+03  0.76730971345E+03  0.00000000000E+00 0.  1.
         22    1    1    2    0    0  0.10091526729E+04  0.63522246112E+03  0.97135693323E+03  0.15379957685E+04  0.00000000000E+00 0. -1.
<mgrwt>
<rscale>  0 0.23872576E+04</rscale>
<asrwt>0</asrwt>
<pdfrwt beam="1">  1        2 0.38379510E+00 0.23872576E+04</pdfrwt>
<pdfrwt beam="2">  1       -2 0.87864297E-01 0.23872576E+04</pdfrwt>
<totfact> 0.35246009E+00</totfact>
</mgrwt>
</event>
<event>
 6    1  0.1817112E-005  0.2914021E+04  0.7818608E-02  0.8268718E-01
         -2   -1    0    0    0  501 -0.00000000000E+00  0.00000000000E+00  0.99732267906E+03  0.99732267906E+03  0.00000000000E+00 0. -1.
          2   -1    0    0  501    0  0.00000000000E+00 -0.00000000000E+00 -0.21285786081E+04  0.21285786081E+04  0.00000000000E+00 0.  1.
         23    2    1    2    0    0  0.53319490290E+03 -0.72032866987E+03  0.66395044513E+03  0.11194277331E+04  0.95488528174E+02 0.  0.
         11    1    3    3    0    0  0.14575607369E+03 -0.14058671592E+03  0.17678123404E+03  0.26881417824E+03  0.00000000000E+00 0. -1.
        -11    1    3    3    0    0  0.38743882921E+03 -0.57974195395E+03  0.48716921109E+03  0.85061355490E+03  0.00000000000E+00 0.  1.
         22    1    1    2    0    0 -0.53319490290E+03  0.72032866987E+03 -0.17952063742E+04  0.20064735540E+04  0.00000000000E+00 0.  1.
<mgrwt>
<rscale>  0 0.29140211E+04</rscale>
<asrwt>0</asrwt>
<pdfrwt beam="1">  1        2 0.32747363E+00 0.29140211E+04</pdfrwt>
<pdfrwt beam="2">  1       -2 0.15343426E+00 0.29140211E+04</pdfrwt>
<totfact> 0.13772500E+00</totfact>
</mgrwt>
</event>
<event>
 6    1  0.1817112E-005  0.5465073E+04  0.7818608E-02  0.7760513E-01
         -2   -1    0    0    0  501 -0.00000000000E+00  0.00000000000E+00  0.26453962930E+04  0.26453962930E+04  0.00000000000E+00 0. -1.
          2   -1    0    0  501    0  0.00000000000E+00 -0.00000000000E+00 -0.28225470061E+04  0.28225470061E+04  0.00000000000E+00 0.  1.
         23    2    1    2    0    0  0.63706353789E+03 -0.24014670268E+04 -0.12248773275E+04  0.27715336695E+04  0.90446566730E+02 0.  0.
         13    1    3    3    0    0  0.22220033206E+03 -0.98088557746E+03 -0.52343243834E+03  0.11337949643E+04  0.00000000000E+00 0.  1.
        -13    1    3    3    0    0  0.41486320582E+03 -0.14205814493E+04 -0.70144488913E+03  0.16377387051E+04  0.00000000000E+00 0. -1.
         22    1    1    2    0    0 -0.63706353789E+03  0.24014670268E+04  0.10477266144E+04  0.26964096296E+04  0.00000000000E+00 0. -1.
<mgrwt>
<rscale>  0 0.54650729E+04</rscale>
<asrwt>0</asrwt>
<pdfrwt beam="1">  1        2 0.43423800E+00 0.54650729E+04</pdfrwt>
<pdfrwt beam="2">  1       -2 0.40698405E+00 0.54650729E+04</pdfrwt>
<totfact> 0.10514681E-02</totfact>
</mgrwt>
</event>
<event>
 6    1  0.1817112E-005  0.3083836E+04  0.7818608E-02  0.8220188E-01
          2   -1    0    0  501    0  0.00000000000E+00  0.00000000000E+00  0.72069163991E+03  0.72069163991E+03  0.00000000000E+00 0. -1.
         -2   -1    0    0    0  501 -0.00000000000E+00 -0.00000000000E+00 -0.32989294416E+04  0.32989294416E+04  0.00000000000E+00 0.  1.
         23    2    1    2    0    0  0.88295976574E+03 -0.43457057667E+03  0.25439412030E+03  0.10209091681E+04  0.95234589573E+02 0.  0.
         11    1    3    3    0    0  0.10231574631E+03 -0.82272179574E+02  0.49263962728E+02  0.14022896099E+03  0.00000000000E+00 0.  1.
        -11    1    3    3    0    0  0.78064401943E+03 -0.35229839709E+03  0.20513015758E+03  0.88068020712E+03  0.00000000000E+00 0. -1.
         22    1    1    2    0    0 -0.88295976574E+03  0.43457057667E+03 -0.28326319220E+04  0.29987119134E+04  0.00000000000E+00 0.  1.
<mgrwt>
<rscale>  0 0.30838358E+04</rscale>
<asrwt>0</asrwt>
<pdfrwt beam="1">  1        2 0.11087563E+00 0.30838358E+04</pdfrwt>
<pdfrwt beam="2">  1       -2 0.50752762E+00 0.30838358E+04</pdfrwt>
<totfact> 0.49602811E-02</totfact>
</mgrwt>
</event>
<event>
 6    1  0.3181000E-005  0.4512421E+04  0.7818608E-02  0.7908466E-01
         -2   -1    0    0    0  501 -0.00000000000E+00  0.00000000000E+00  0.19431575474E+04  0.19431575474E+04  0.00000000000E+00 0.  1.
          2   -1    0    0  501    0  0.00000000000E+00 -0.00000000000E+00 -0.26196975519E+04  0.26196975519E+04  0.00000000000E+00 0. -1.
         23    2    1    2    0    0  0.17884681848E+03 -0.57718278420E+03  0.18587131835E+04  0.19565867175E+04  0.91053465449E+02 0.  0.
         13    1    3    3    0    0  0.29453690519E+02 -0.24502224791E+03  0.73504394722E+03  0.77536638191E+03  0.00000000000E+00 0. -1.
        -13    1    3    3    0    0  0.14939312796E+03 -0.33216053630E+03  0.11236692363E+04  0.11812203356E+04  0.00000000000E+00 0.  1.
         22    1    1    2    0    0 -0.17884681848E+03  0.57718278420E+03 -0.25352531880E+04  0.26062683818E+04  0.00000000000E+00 0. -1.
<mgrwt>
<rscale>  0 0.45124207E+04</rscale>
<asrwt>0</asrwt>
<pdfrwt beam="1">  1        2 0.40303039E+00 0.45124207E+04</pdfrwt>
<pdfrwt beam="2">  1       -2 0.29894732E+00 0.45124207E+04</pdfrwt>
<totfact> 0.72349705E-02</totfact>
</mgrwt>
</event>
<event>
 6    1  0.1817112E-005  0.1508848E+04  0.7818608E-02  0.8878590E-01
         -2   -1    0    0    0  501 -0.00000000000E+00  0.00000000000E+00  0.42549904554E+03  0.42549904554E+03  0.00000000000E+00 0.  1.
          2   -1    0    0  501    0  0.00000000000E+00 -0.00000000000E+00 -0.13376188198E+04  0.13376188198E+04  0.00000000000E+00 0. -1.
         23    2    1    2    0    0 -0.44605932883E+03 -0.15260996664E+03 -0.11417917631E+04  0.12387058620E+04  0.91896983422E+02 0.  0.
         11    1    3    3    0    0 -0.15681052511E+03 -0.98533829746E+02 -0.47752770513E+03  0.51218274624E+03  0.00000000000E+00 0. -1.
        -11    1    3    3    0    0 -0.28924880372E+03 -0.54076136892E+02 -0.66426405798E+03  0.72652311578E+03  0.00000000000E+00 0.  1.
         22    1    1    2    0    0  0.44605932883E+03  0.15260996664E+03  0.22967198885E+03  0.52441200331E+03  0.00000000000E+00 0.  1.
<mgrwt>
<rscale>  0 0.15088479E+04</rscale>
<asrwt>0</asrwt>
<pdfrwt beam="1">  1        2 0.20578751E+00 0.15088479E+04</pdfrwt>
<pdfrwt beam="2">  1       -2 0.65461392E-01 0.15088479E+04</pdfrwt>
<totfact> 0.32633081E+01</totfact>
</mgrwt>
</event>
<event>
 6    1  0.1817112E-005  0.1537597E+04  0.7818608E-02  0.8859829E-01
          2   -1    0    0  501    0  0.00000000000E+00  0.00000000000E+00  0.62318816213E+03  0.62318816213E+03  0.00000000000E+00 0.  1.
         -2   -1    0    0    0  501 -0.00000000000E+00 -0.00000000000E+00 -0.94843145660E+03  0.94843145660E+03  0.00000000000E+00 0. -1.
         23    2    1    2    0    0 -0.43523357027E+03 -0.59079126280E+03  0.61107919143E+02  0.74232483571E+03  0.94071287002E+02 0.  0.
         13    1    3    3    0    0 -0.22416238287E+03 -0.22608725751E+03  0.30535993874E+02  0.31983850429E+03  0.00000000000E+00 0.  1.
        -13    1    3    3    0    0 -0.21107118740E+03 -0.36470400528E+03  0.30571925269E+02  0.42248633142E+03  0.00000000000E+00 0. -1.
         22    1    1    2    0    0  0.43523357027E+03  0.59079126280E+03 -0.38635121361E+03  0.82929478302E+03  0.00000000000E+00 0. -1.
<mgrwt>
<rscale>  0 0.15375972E+04</rscale>
<asrwt>0</asrwt>
<pdfrwt beam="1">  1        2 0.95875103E-01 0.15375972E+04</pdfrwt>
<pdfrwt beam="2">  1       -2 0.14591253E+00 0.15375972E+04</pdfrwt>
<totfact> 0.14697072E+01</totfact>
</mgrwt>
</event>
<event>
 6    1  0.1817112E-005  0.2424048E+04  0.7818608E-02  0.8430555E-01
         -1   -1    0    0    0  501 -0.00000000000E+00  0.00000000000E+00  0.20439917673E+04  0.20439917673E+04  0.00000000000E+00 0.  1.
          1   -1    0    0  501    0  0.00000000000E+00 -0.00000000000E+00 -0.71869273933E+03  0.71869273933E+03  0.00000000000E+00 0. -1.
         23    2    1    2    0    0 -0.11458326018E+04 -0.25828915611E+03  0.33090542233E+03  0.12237029335E+04  0.91130848859E+02 0.  0.
         13    1    3    3    0    0 -0.63267288154E+03 -0.17665800221E+03  0.15277206386E+03  0.67440516626E+03  0.00000000000E+00 0. -1.
        -13    1    3    3    0    0 -0.51315972021E+03 -0.81631153904E+02  0.17813335847E+03  0.54929776728E+03  0.00000000000E+00 0.  1.
         22    1    1    2    0    0  0.11458326018E+04  0.25828915611E+03  0.99439360566E+03  0.15389815731E+04  0.00000000000E+00 0.  1.
<mgrwt>
<rscale>  0 0.24240479E+04</rscale>
<asrwt>0</asrwt>
<pdfrwt beam="1">  1        1 0.11056812E+00 0.24240479E+04</pdfrwt>
<pdfrwt beam="2">  1       -1 0.31446027E+00 0.24240479E+04</pdfrwt>
<totfact> 0.62253860E-01</totfact>
</mgrwt>
</event>
<event>
 6    1  0.1817112E-005  0.2921913E+04  0.7818608E-02  0.8266387E-01
         -4   -1    0    0    0  501 -0.00000000000E+00  0.00000000000E+00  0.14011765729E+04  0.14011765729E+04  0.00000000000E+00 0.  1.
          4   -1    0    0  501    0  0.00000000000E+00 -0.00000000000E+00 -0.15232867570E+04  0.15232867570E+04  0.00000000000E+00 0. -1.
         23    2    1    2    0    0  0.11771964661E+04  0.62772218806E+03 -0.65354862269E+03  0.14884084984E+04  0.91691825307E+02 0.  0.
         13    1    3    3    0    0  0.56687867757E+03  0.26269793761E+03 -0.33858272197E+03  0.71063345061E+03  0.00000000000E+00 0.  1.
        -13    1    3    3    0    0  0.61031778851E+03  0.36502425044E+03 -0.31496590072E+03  0.77777504781E+03  0.00000000000E+00 0. -1.
         22    1    1    2    0    0 -0.11771964661E+04 -0.62772218806E+03  0.53143843856E+03  0.14360548315E+04  0.00000000000E+00 0.  1.
<mgrwt>
<rscale>  0 0.29219129E+04</rscale>
<asrwt>0</asrwt>
<pdfrwt beam="1">  1        4 0.23435181E+00 0.29219129E+04</pdfrwt>
<pdfrwt beam="2">  1       -4 0.21556563E+00 0.29219129E+04</pdfrwt>
<totfact> 0.14099726E-02</totfact>
</mgrwt>
</event>
<event>
 6    1  0.1817112E-005  0.1890650E+04  0.7818608E-02  0.8659524E-01
          1   -1    0    0  501    0  0.00000000000E+00  0.00000000000E+00  0.59402676395E+03  0.59402676395E+03  0.00000000000E+00 0. -1.
         -1   -1    0    0    0  501 -0.00000000000E+00 -0.00000000000E+00 -0.15043757202E+04  0.15043757202E+04  0.00000000000E+00 0.  1.
         23    2    1    2    0    0 -0.27862874345E+03 -0.85880093082E+03 -0.15301890189E+03  0.91996206278E+03  0.87990892496E+02 0.  0.
         11    1    3    3    0    0 -0.34681094890E+02 -0.21336758917E+03 -0.54844794740E+02  0.22301672126E+03  0.00000000000E+00 0. -1.
        -11    1    3    3    0    0 -0.24394764856E+03 -0.64543334165E+03 -0.98174107147E+02  0.69694534152E+03  0.00000000000E+00 0.  1.
         22    1    1    2    0    0  0.27862874345E+03  0.85880093082E+03 -0.75733005437E+03  0.11784404214E+04  0.00000000000E+00 0.  1.
<mgrwt>
<rscale>  0 0.18906501E+04</rscale>
<asrwt>0</asrwt>
<pdfrwt beam="1">  1        1 0.91388734E-01 0.18906501E+04</pdfrwt>
<pdfrwt beam="2">  1       -1 0.23144241E+00 0.18906501E+04</pdfrwt>
<totfact> 0.30039391E+00</totfact>
</mgrwt>
</event>
<event>
 6    1  0.1817112E-005  0.1064642E+04  0.7818608E-02  0.9240356E-01
         -2   -1    0    0    0  501 -0.00000000000E+00  0.00000000000E+00  0.10831349520E+03  0.10831349520E+03  0.00000000000E+00 0.  1.
          2   -1    0    0  501    0  0.00000000000E+00 -0.00000000000E+00 -0.26161639302E+04  0.26161639302E+04  0.00000000000E+00 0. -1.
         23    2    1    2    0    0 -0.25975785491E+03  0.45693859396E+03 -0.14043849769E+04  0.15022241624E+04  0.90073573807E+02 0.  0.
         11    1    3    3    0    0 -0.14866980022E+03  0.21410386176E+03 -0.58555280113E+03  0.64094871560E+03  0.00000000000E+00 0.  1.
        -11    1    3    3    0    0 -0.11108805469E+03  0.24283473220E+03 -0.81883217580E+03  0.86127544676E+03  0.00000000000E+00 0. -1.
         22    1    1    2    0    0  0.25975785491E+03 -0.45693859396E+03 -0.11034654580E+04  0.12222532630E+04  0.00000000000E+00 0.  1.
<mgrwt>
<rscale>  0 0.10646424E+04</rscale>
<asrwt>0</asrwt>
<pdfrwt beam="1">  1        2 0.40248674E+00 0.10646424E+04</pdfrwt>
<pdfrwt beam="2">  1       -2 0.16663616E-01 0.10646424E+04</pdfrwt>
<totfact> 0.87991764E+01</totfact>
</mgrwt>
</event>
<event>
 6    1  0.1817112E-005  0.1852944E+04  0.7818608E-02  0.8678640E-01
         -2   -1    0    0    0  501 -0.00000000000E+00  0.00000000000E+00  0.86426734239E+03  0.86426734239E+03  0.00000000000E+00 0.  1.
          2   -1    0    0  501    0  0.00000000000E+00 -0.00000000000E+00 -0.99315378901E+03  0.99315378901E+03  0.00000000000E+00 0. -1.
         23    2    1    2    0    0 -0.78785534216E+03 -0.44545256969E+03  0.12491561081E+03  0.91744266549E+03  0.83385266286E+02 0.  0.
         11    1    3    3    0    0 -0.38751038086E+03 -0.19128207701E+03  0.93779566455E+02  0.44220779656E+03  0.00000000000E+00 0.  1.
        -11    1    3    3    0    0 -0.40034496130E+03 -0.25417049268E+03  0.31136044355E+02  0.47523486893E+03  0.00000000000E+00 0. -1.
         22    1    1    2    0    0  0.78785534216E+03  0.44545256969E+03 -0.25380205743E+03  0.93997846590E+03  0.00000000000E+00 0. -1.
<mgrwt>
<rscale>  0 0.18529440E+04</rscale>
<asrwt>0</asrwt>
<pdfrwt beam="1">  1        2 0.15279289E+00 0.18529440E+04</pdfrwt>
<pdfrwt beam="2">  1       -2 0.13296421E+00 0.18529440E+04</pdfrwt>
<totfact> 0.98103367E+00</totfact>
</mgrwt>
</event>
<event>
 6    1  0.1817112E-005  0.3519473E+04  0.7818608E-02  0.8109190E-01
         -1   -1    0    0    0  501 -0.00000000000E+00  0.00000000000E+00  0.15669308469E+04  0.15669308469E+04  0.00000000000E+00 0.  1.
          1   -1    0    0  501    0  0.00000000000E+00 -0.00000000000E+00 -0.19762666642E+04  0.19762666642E+04  0.00000000000E+00 0. -1.
         23    2    1    2    0    0 -0.14066906196E+04  0.43837928349E+03 -0.11713778304E+04  0.18843838009E+04  0.88438634490E+02 0.  0.
         13    1    3    3    0    0 -0.86665203957E+03  0.25422465875E+03 -0.76894309733E+03  0.11861658492E+04  0.00000000000E+00 0.  1.
        -13    1    3    3    0    0 -0.54003858003E+03  0.18415462474E+03 -0.40243473308E+03  0.69821795173E+03  0.00000000000E+00 0. -1.
         22    1    1    2    0    0  0.14066906196E+04 -0.43837928349E+03  0.76204201308E+03  0.16588137102E+04  0.00000000000E+00 0.  1.
<mgrwt>
<rscale>  0 0.35194734E+04</rscale>
<asrwt>0</asrwt>
<pdfrwt beam="1">  1        1 0.30404103E+00 0.35194734E+04</pdfrwt>
<pdfrwt beam="2">  1       -1 0.24106628E+00 0.35194734E+04</pdfrwt>
<totfact> 0.20096983E-01</totfact>
</mgrwt>
</event>
<event>
 6    1  0.1817112E-005  0.1283181E+04  0.7818608E-02  0.9043010E-01
          4   -1    0    0  501    0  0.00000000000E+00  0.00000000000E+00  0.13241974422E+03  0.13241974422E+03  0.00000000000E+00 0. -1.
         -4   -1    0    0    0  501 -0.00000000000E+00 -0.00000000000E+00 -0.31085856652E+04  0.31085856652E+04  0.00000000000E+00 0.  1.
         23    2    1    2    0    0  0.58249187749E+03 -0.26481052444E+03 -0.15157325704E+04  0.16465503387E+04  0.65279335025E+02 0.  0.
         13    1    3    3    0    0  0.41436187798E+03 -0.20747699916E+03 -0.11536071674E+04  0.12432023037E+04  0.00000000000E+00 0. -1.
        -13    1    3    3    0    0  0.16812999951E+03 -0.57333525282E+02 -0.36212540298E+03  0.40334803500E+03  0.00000000000E+00 0.  1.
         22    1    1    2    0    0 -0.58249187749E+03  0.26481052444E+03 -0.14604333505E+04  0.15944550707E+04  0.00000000000E+00 0.  1.
<mgrwt>
<rscale>  0 0.12831806E+04</rscale>
<asrwt>0</asrwt>
<pdfrwt beam="1">  1        4 0.20372270E-01 0.12831806E+04</pdfrwt>
<pdfrwt beam="2">  1       -4 0.47824391E+00 0.12831806E+04</pdfrwt>
<totfact> 0.81506886E-02</totfact>
</mgrwt>
</event>
<event>
 6    1  0.1817112E-005  0.6182502E+03  0.7818608E-02  0.9868250E-01
         -2   -1    0    0    0  501 -0.00000000000E+00  0.00000000000E+00  0.89626962297E+02  0.89626962297E+02  0.00000000000E+00 0.  1.
          2   -1    0    0  501    0  0.00000000000E+00 -0.00000000000E+00 -0.10661783833E+04  0.10661783833E+04  0.00000000000E+00 0. -1.
         23    2    1    2    0    0  0.24055574804E+03 -0.79227625530E+02 -0.80802168533E+03  0.85159101924E+03  0.90355605965E+02 0.  0.
         11    1    3    3    0    0  0.16042184477E+03 -0.81419714977E+02 -0.64947559146E+03  0.67393091795E+03  0.00000000000E+00 0. -1.
        -11    1    3    3    0    0  0.80133903276E+02  0.21920894476E+01 -0.15854609386E+03  0.17766010129E+03  0.00000000000E+00 0.  1.
         22    1    1    2    0    0 -0.24055574804E+03  0.79227625530E+02 -0.16852973571E+03  0.30421432639E+03  0.00000000000E+00 0. -1.
<mgrwt>
<rscale>  0 0.61825021E+03</rscale>
<asrwt>0</asrwt>
<pdfrwt beam="1">  1        2 0.16402744E+00 0.61825021E+03</pdfrwt>
<pdfrwt beam="2">  1       -2 0.13788764E-01 0.61825021E+03</pdfrwt>
<totfact> 0.93164887E+02</totfact>
</mgrwt>
</event>
<event>
 6    1  0.1817112E-005  0.4729628E+04  0.7818608E-02  0.7871624E-01
         -2   -1    0    0    0  501 -0.00000000000E+00  0.00000000000E+00  0.21134047790E+04  0.21134047790E+04  0.00000000000E+00 0.  1.
          2   -1    0    0  501    0  0.00000000000E+00 -0.00000000000E+00 -0.26461306348E+04  0.26461306348E+04  0.00000000000E+00 0. -1.
         23    2    1    2    0    0 -0.35246202932E+03 -0.13482051762E+04 -0.21880442687E+04  0.25957503672E+04  0.92171404693E+02 0.  0.
         11    1    3    3    0    0 -0.14377434527E+03 -0.70735522713E+03 -0.10884351428E+04  0.13060296857E+04  0.00000000000E+00 0. -1.
        -11    1    3    3    0    0 -0.20868768405E+03 -0.64084994908E+03 -0.10996091259E+04  0.12897206816E+04  0.00000000000E+00 0.  1.
         22    1    1    2    0    0  0.35246202932E+03  0.13482051762E+04  0.16553184130E+04  0.21637850465E+04  0.00000000000E+00 0.  1.
<mgrwt>
<rscale>  0 0.47296279E+04</rscale>
<asrwt>0</asrwt>
<pdfrwt beam="1">  1        2 0.40709702E+00 0.47296279E+04</pdfrwt>
<pdfrwt beam="2">  1       -2 0.32513920E+00 0.47296279E+04</pdfrwt>
<totfact> 0.47310413E-02</totfact>
</mgrwt>
</event>
<event>
 6    1  0.1817112E-005  0.1067215E+04  0.7818608E-02  0.9237748E-01
          1   -1    0    0  501    0  0.00000000000E+00  0.00000000000E+00  0.12568119456E+04  0.12568119456E+04  0.00000000000E+00 0. -1.
         -1   -1    0    0    0  501 -0.00000000000E+00 -0.00000000000E+00 -0.22655512703E+03  0.22655512703E+03  0.00000000000E+00 0.  1.
         23    2    1    2    0    0 -0.44827154675E+03 -0.73170613480E+02  0.89714156807E+03  0.10100585177E+04  0.95151971431E+02 0.  0.
         13    1    3    3    0    0 -0.22301435338E+03 -0.33851914767E+02  0.54904763872E+03  0.59357784959E+03  0.00000000000E+00 0. -1.
        -13    1    3    3    0    0 -0.22525719338E+03 -0.39318698713E+02  0.34809392935E+03  0.41648066808E+03  0.00000000000E+00 0.  1.
         22    1    1    2    0    0  0.44827154675E+03  0.73170613480E+02  0.13311525053E+03  0.47330855499E+03  0.00000000000E+00 0.  1.
<mgrwt>
<rscale>  0 0.10672154E+04</rscale>
<asrwt>0</asrwt>
<pdfrwt beam="1">  1        1 0.19335568E+00 0.10672154E+04</pdfrwt>
<pdfrwt beam="2">  1       -1 0.34854636E-01 0.10672154E+04</pdfrwt>
<totfact> 0.75789147E+01</totfact>
</mgrwt>
</event>
<event>
 6    1  0.1817112E-005  0.3763848E+04  0.7818608E-02  0.8053958E-01
         -2   -1    0    0    0  501 -0.00000000000E+00  0.00000000000E+00  0.16347162777E+04  0.16347162777E+04  0.00000000000E+00 0. -1.
          2   -1    0    0  501    0  0.00000000000E+00 -0.00000000000E+00 -0.21665154806E+04  0.21665154806E+04  0.00000000000E+00 0.  1.
         23    2    1    2    0    0  0.16682883591E+03  0.14094358530E+04  0.98028021665E+03  0.17274127075E+04  0.93081011304E+02 0.  0.
         11    1    3    3    0    0  0.96313553061E+02  0.61479155198E+03  0.38139344236E+03  0.72986705006E+03  0.00000000000E+00 0.  1.
        -11    1    3    3    0    0  0.70515282849E+02  0.79464430105E+03  0.59888677429E+03  0.99754565746E+03  0.00000000000E+00 0. -1.
         22    1    1    2    0    0 -0.16682883591E+03 -0.14094358530E+04 -0.15120794196E+04  0.20738190508E+04  0.00000000000E+00 0.  1.
<mgrwt>
<rscale>  0 0.37638481E+04</rscale>
<asrwt>0</asrwt>
<pdfrwt beam="1">  1        2 0.33331008E+00 0.37638481E+04</pdfrwt>
<pdfrwt beam="2">  1       -2 0.25149481E+00 0.37638481E+04</pdfrwt>
<totfact> 0.27286106E-01</totfact>
</mgrwt>
</event>
<event>
 6    1  0.1817112E-005  0.2624344E+04  0.7818608E-02  0.8359979E-01
         -2   -1    0    0    0  501 -0.00000000000E+00  0.00000000000E+00  0.51158443496E+03  0.51158443496E+03  0.00000000000E+00 0.  1.
          2   -1    0    0  501    0  0.00000000000E+00 -0.00000000000E+00 -0.33656136282E+04  0.33656136282E+04  0.00000000000E+00 0. -1.
         23    2    1    2    0    0 -0.11347140702E+04 -0.63769713953E+03 -0.16545547599E+04  0.21071775607E+04  0.91717805732E+02 0.  0.
         13    1    3    3    0    0 -0.48355020926E+03 -0.25254364311E+03 -0.62588333959E+03  0.83025842443E+03  0.00000000000E+00 0.  1.
        -13    1    3    3    0    0 -0.65116386094E+03 -0.38515349642E+03 -0.10286714203E+04  0.12769191362E+04  0.00000000000E+00 0. -1.
         22    1    1    2    0    0  0.11347140702E+04  0.63769713953E+03 -0.11994744333E+04  0.17700205025E+04  0.00000000000E+00 0. -1.
<mgrwt>
<rscale>  0 0.26243441E+04</rscale>
<asrwt>0</asrwt>
<pdfrwt beam="1">  1        2 0.51778672E+00 0.26243441E+04</pdfrwt>
<pdfrwt beam="2">  1       -2 0.78705296E-01 0.26243441E+04</pdfrwt>
<totfact> 0.12740888E+00</totfact>
</mgrwt>
</event>
<event>
 6    1  0.1817112E-005  0.4113373E+04  0.7818608E-02  0.7982058E-01
          2   -1    0    0  501    0  0.00000000000E+00  0.00000000000E+00  0.24181798275E+04  0.24181798275E+04  0.00000000000E+00 0. -1.
         -2   -1    0    0    0  501 -0.00000000000E+00 -0.00000000000E+00 -0.17492330769E+04  0.17492330769E+04  0.00000000000E+00 0.  1.
         23    2    1    2    0    0 -0.10519219708E+04  0.14563159361E+04 -0.67779088370E+03  0.19221738984E+04  0.89196833834E+02 0.  0.
         13    1    3    3    0    0 -0.32188257767E+03  0.48268380339E+03 -0.18096617589E+03  0.60773415626E+03  0.00000000000E+00 0. -1.
        -13    1    3    3    0    0 -0.73003939313E+03  0.97363213272E+03 -0.49682470782E+03  0.13144397421E+04  0.00000000000E+00 0.  1.
         22    1    1    2    0    0  0.10519219708E+04 -0.14563159361E+04  0.13467376343E+04  0.22452390060E+04  0.00000000000E+00 0. -1.
<mgrwt>
<rscale>  0 0.41133734E+04</rscale>
<asrwt>0</asrwt>
<pdfrwt beam="1">  1        2 0.37202767E+00 0.41133734E+04</pdfrwt>
<pdfrwt beam="2">  1       -2 0.26911278E+00 0.41133734E+04</pdfrwt>
<totfact> 0.14889555E-01</totfact>
</mgrwt>
</event>
<event>
 6    1  0.1817112E-005  0.7561563E+03  0.7818608E-02  0.9625741E-01
         -2   -1    0    0    0  501 -0.00000000000E+00  0.00000000000E+00  0.14739627670E+03  0.14739627670E+03  0.00000000000E+00 0.  1.
          2   -1    0    0  501    0  0.00000000000E+00 -0.00000000000E+00 -0.96978752955E+03  0.96978752955E+03  0.00000000000E+00 0. -1.
         23    2    1    2    0    0 -0.19052460470E+03 -0.62001136021E+02  0.48161406642E+02  0.22387215918E+03  0.87495466737E+02 0.  0.
         13    1    3    3    0    0 -0.61018104203E+02 -0.12434881367E+02 -0.24981669323E+02  0.67096342056E+02  0.00000000000E+00 0. -1.
        -13    1    3    3    0    0 -0.12950650050E+03 -0.49566254654E+02  0.73143075965E+02  0.15677581712E+03  0.00000000000E+00 0.  1.
         22    1    1    2    0    0  0.19052460470E+03  0.62001136021E+02 -0.87055265949E+03  0.89331164708E+03  0.00000000000E+00 0. -1.
<mgrwt>
<rscale>  0 0.75615626E+03</rscale>
<asrwt>0</asrwt>
<pdfrwt beam="1">  1        2 0.14919808E+00 0.75615626E+03</pdfrwt>
<pdfrwt beam="2">  1       -2 0.22676350E-01 0.75615626E+03</pdfrwt>
<totfact> 0.45272650E+02</totfact>
</mgrwt>
</event>
<event>
 6    1  0.1817112E-005  0.2007691E+04  0.7818608E-02  0.8603033E-01
         -1   -1    0    0    0  501 -0.00000000000E+00  0.00000000000E+00  0.72086395389E+03  0.72086395389E+03  0.00000000000E+00 0.  1.
          1   -1    0    0  501    0  0.00000000000E+00 -0.00000000000E+00 -0.13979137557E+04  0.13979137557E+04  0.00000000000E+00 0. -1.
         23    2    1    2    0    0  0.11143849501E+03  0.92232786747E+02 -0.13853258165E+04  0.13958805259E+04  0.91811762777E+02 0.  0.
         11    1    3    3    0    0  0.51677561682E+02  0.72101552297E+02 -0.46429264154E+03  0.47269108434E+03  0.00000000000E+00 0. -1.
        -11    1    3    3    0    0  0.59760933323E+02  0.20131234450E+02 -0.92103317494E+03  0.92318944161E+03  0.00000000000E+00 0.  1.
         22    1    1    2    0    0 -0.11143849501E+03 -0.92232786747E+02  0.70827601469E+03  0.72289718363E+03  0.00000000000E+00 0.  1.
<mgrwt>
<rscale>  0 0.20076908E+04</rscale>
<asrwt>0</asrwt>
<pdfrwt beam="1">  1        1 0.21506365E+00 0.20076908E+04</pdfrwt>
<pdfrwt beam="2">  1       -1 0.11090215E+00 0.20076908E+04</pdfrwt>
<totfact> 0.53494547E+00</totfact>
</mgrwt>
</event>
<event>
 6    1  0.1817112E-005  0.1649207E+04  0.7818608E-02  0.8790876E-01
         -2   -1    0    0    0  501 -0.00000000000E+00  0.00000000000E+00  0.13248694114E+04  0.13248694114E+04  0.00000000000E+00 0. -1.
          2   -1    0    0  501    0  0.00000000000E+00 -0.00000000000E+00 -0.51323597629E+03  0.51323597629E+03  0.00000000000E+00 0.  1.
         23    2    1    2    0    0  0.49991044371E+03  0.19774249981E+03  0.11002092364E+04  0.12279508654E+04  0.91599213251E+02 0.  0.
         13    1    3    3    0    0  0.24677235552E+03  0.12341855116E+03  0.64998258384E+03  0.70612045256E+03  0.00000000000E+00 0.  1.
        -13    1    3    3    0    0  0.25313808818E+03  0.74323948651E+02  0.45022665260E+03  0.52183041282E+03  0.00000000000E+00 0. -1.
         22    1    1    2    0    0 -0.49991044371E+03 -0.19774249981E+03 -0.28857580134E+03  0.61015452230E+03  0.00000000000E+00 0.  1.
<mgrwt>
<rscale>  0 0.16492067E+04</rscale>
<asrwt>0</asrwt>
<pdfrwt beam="1">  1        2 0.78959382E-01 0.16492067E+04</pdfrwt>
<pdfrwt beam="2">  1       -2 0.20382606E+00 0.16492067E+04</pdfrwt>
<totfact> 0.71572233E+00</totfact>
</mgrwt>
</event>
<event>
 6    1  0.1817112E-005  0.5446320E+04  0.7818608E-02  0.7763119E-01
         -2   -1    0    0    0  501 -0.00000000000E+00  0.00000000000E+00  0.16899826935E+04  0.16899826935E+04  0.00000000000E+00 0.  1.
          2   -1    0    0  501    0  0.00000000000E+00 -0.00000000000E+00 -0.43879749039E+04  0.43879749039E+04  0.00000000000E+00 0. -1.
         23    2    1    2    0    0 -0.13623008801E+04  0.21520400752E+04 -0.27664542356E+03  0.25636923206E+04  0.94050257578E+02 0.  0.
         11    1    3    3    0    0 -0.83288157819E+03  0.12376944139E+04 -0.14168737311E+03  0.14985507990E+04  0.00000000000E+00 0. -1.
        -11    1    3    3    0    0 -0.52941930192E+03  0.91434566135E+03 -0.13495805046E+03  0.10651415216E+04  0.00000000000E+00 0.  1.
         22    1    1    2    0    0  0.13623008801E+04 -0.21520400752E+04 -0.24213467868E+04  0.35142652768E+04  0.00000000000E+00 0. -1.
<mgrwt>
<rscale>  0 0.54463205E+04</rscale>
<asrwt>0</asrwt>
<pdfrwt beam="1">  1        2 0.67507306E+00 0.54463205E+04</pdfrwt>
<pdfrwt beam="2">  1       -2 0.25999734E+00 0.54463205E+04</pdfrwt>
<totfact> 0.61197255E-03</totfact>
</mgrwt>
</event>
<event>
 6    1  0.1817112E-005  0.4531258E+04  0.7818608E-02  0.7905187E-01
          2   -1    0    0  501    0  0.00000000000E+00  0.00000000000E+00  0.27185806118E+04  0.27185806118E+04  0.00000000000E+00 0. -1.
         -2   -1    0    0    0  501 -0.00000000000E+00 -0.00000000000E+00 -0.18881454405E+04  0.18881454405E+04  0.00000000000E+00 0.  1.
         23    2    1    2    0    0  0.15443333248E+04  0.16223533683E+04  0.75714147497E+02  0.22431271664E+04  0.94292007570E+02 0.  0.
         11    1    3    3    0    0  0.94804110974E+03  0.10464931180E+04  0.18406088538E+02  0.14121857441E+04  0.00000000000E+00 0.  1.
        -11    1    3    3    0    0  0.59629221505E+03  0.57586025030E+03  0.57308058958E+02  0.83094142226E+03  0.00000000000E+00 0. -1.
         22    1    1    2    0    0 -0.15443333248E+04 -0.16223533683E+04  0.75472102387E+03  0.23635988859E+04  0.00000000000E+00 0. -1.
<mgrwt>
<rscale>  0 0.45312584E+04</rscale>
<asrwt>0</asrwt>
<pdfrwt beam="1">  1        2 0.41824317E+00 0.45312584E+04</pdfrwt>
<pdfrwt beam="2">  1       -2 0.29048391E+00 0.45312584E+04</pdfrwt>
<totfact> 0.71090091E-02</totfact>
</mgrwt>
</event>
<event>
 6    1  0.1817112E-005  0.2354832E+04  0.7818608E-02  0.8456610E-01
          2   -1    0    0  501    0  0.00000000000E+00  0.00000000000E+00  0.13838271409E+04  0.13838271409E+04  0.00000000000E+00 0. -1.
         -2   -1    0    0    0  501 -0.00000000000E+00 -0.00000000000E+00 -0.10017928076E+04  0.10017928076E+04  0.00000000000E+00 0.  1.
         23    2    1    2    0    0 -0.77534386146E+03 -0.72304979875E+03 -0.32332746322E+03  0.11122408302E+04  0.92627754425E+02 0.  0.
         11    1    3    3    0    0 -0.30662939148E+03 -0.31999871554E+03 -0.95126438887E+02  0.45328776847E+03  0.00000000000E+00 0.  1.
        -11    1    3    3    0    0 -0.46871446998E+03 -0.40305108321E+03 -0.22820102433E+03  0.65895306172E+03  0.00000000000E+00 0. -1.
         22    1    1    2    0    0  0.77534386146E+03  0.72304979875E+03  0.70536179656E+03  0.12733791183E+04  0.00000000000E+00 0.  1.
<mgrwt>
<rscale>  0 0.23548317E+04</rscale>
<asrwt>0</asrwt>
<pdfrwt beam="1">  1        2 0.21289648E+00 0.23548317E+04</pdfrwt>
<pdfrwt beam="2">  1       -2 0.15412197E+00 0.23548317E+04</pdfrwt>
<totfact> 0.37196366E+00</totfact>
</mgrwt>
</event>
<event>
 6    1  0.1817112E-005  0.2150277E+04  0.7818608E-02  0.8539413E-01
         -2   -1    0    0    0  501 -0.00000000000E+00  0.00000000000E+00  0.70835218032E+03  0.70835218032E+03  0.00000000000E+00 0. -1.
          2   -1    0    0  501    0  0.00000000000E+00 -0.00000000000E+00 -0.16318483416E+04  0.16318483416E+04  0.00000000000E+00 0.  1.
         23    2    1    2    0    0  0.12150213543E+03  0.10663747263E+04 -0.46585149072E+03  0.11734287061E+04  0.89439874632E+02 0.  0.
         13    1    3    3    0    0  0.32578285631E+01  0.30018414084E+03 -0.15840141642E+03  0.33942913927E+03  0.00000000000E+00 0. -1.
        -13    1    3    3    0    0  0.11824430687E+03  0.76619058543E+03 -0.30745007430E+03  0.83399956684E+03  0.00000000000E+00 0.  1.
         22    1    1    2    0    0 -0.12150213543E+03 -0.10663747263E+04 -0.45764467060E+03  0.11667718159E+04  0.00000000000E+00 0. -1.
<mgrwt>
<rscale>  0 0.21502775E+04</rscale>
<asrwt>0</asrwt>
<pdfrwt beam="1">  1        2 0.25105359E+00 0.21502775E+04</pdfrwt>
<pdfrwt beam="2">  1       -2 0.10897726E+00 0.21502775E+04</pdfrwt>
<totfact> 0.66026384E+00</totfact>
</mgrwt>
</event>
<event>
 6    1  0.1817112E-005  0.1366917E+04  0.7818608E-02  0.8978120E-01
          2   -1    0    0  501    0  0.00000000000E+00  0.00000000000E+00  0.16986910476E+04  0.16986910476E+04  0.00000000000E+00 0. -1.
         -2   -1    0    0    0  501 -0.00000000000E+00 -0.00000000000E+00 -0.27498546296E+03  0.27498546296E+03  0.00000000000E+00 0.  1.
         23    2    1    2    0    0 -0.48216962258E+03  0.42535464387E+03  0.39700270706E+03  0.76225878044E+03  0.10006588301E+03 0.  0.
         13    1    3    3    0    0 -0.28848313064E+03  0.27558574656E+03  0.19118008313E+03  0.44240235596E+03  0.00000000000E+00 0. -1.
        -13    1    3    3    0    0 -0.19368649194E+03  0.14976889731E+03  0.20582262393E+03  0.31985642448E+03  0.00000000000E+00 0.  1.
         22    1    1    2    0    0  0.48216962258E+03 -0.42535464387E+03  0.10267028776E+04  0.12114177301E+04  0.00000000000E+00 0. -1.
<mgrwt>
<rscale>  0 0.13669167E+04</rscale>
<asrwt>0</asrwt>
<pdfrwt beam="1">  1        2 0.26133708E+00 0.13669167E+04</pdfrwt>
<pdfrwt beam="2">  1       -2 0.42305457E-01 0.13669167E+04</pdfrwt>
<totfact> 0.50748782E+01</totfact>
</mgrwt>
</event>
<event>
 6    1  0.1817112E-005  0.2868254E+04  0.7818608E-02  0.8282386E-01
          2   -1    0    0  501    0  0.00000000000E+00  0.00000000000E+00  0.22107616641E+04  0.22107616641E+04  0.00000000000E+00 0. -1.
         -2   -1    0    0    0  501 -0.00000000000E+00 -0.00000000000E+00 -0.93032199112E+03  0.93032199112E+03  0.00000000000E+00 0.  1.
         23    2    1    2    0    0  0.14057948654E+04  0.19024208057E+03  0.42136400606E+03  0.14826318910E+04  0.90545269398E+02 0.  0.
         11    1    3    3    0    0  0.11755642707E+04  0.15071869080E+03  0.38544152042E+03  0.12462875447E+04  0.00000000000E+00 0.  1.
        -11    1    3    3    0    0  0.23023059469E+03  0.39523389767E+02  0.35922485634E+02  0.23634434633E+03  0.00000000000E+00 0. -1.
         22    1    1    2    0    0 -0.14057948654E+04 -0.19024208057E+03  0.85907566696E+03  0.16584517642E+04  0.00000000000E+00 0. -1.
<mgrwt>
<rscale>  0 0.28682540E+04</rscale>
<asrwt>0</asrwt>
<pdfrwt beam="1">  1        2 0.34011718E+00 0.28682540E+04</pdfrwt>
<pdfrwt beam="2">  1       -2 0.14312646E+00 0.28682540E+04</pdfrwt>
<totfact> 0.14939011E+00</totfact>
</mgrwt>
</event>
<event>
 6    1  0.1817112E-005  0.2869322E+04  0.7818608E-02  0.8282064E-01
          2   -1    0    0  501    0  0.00000000000E+00  0.00000000000E+00  0.13441344263E+04  0.13441344263E+04  0.00000000000E+00 0. -1.
         -2   -1    0    0    0  501 -0.00000000000E+00 -0.00000000000E+00 -0.15312844843E+04  0.15312844843E+04  0.00000000000E+00 0.  1.
         23    2    1    2    0    0  0.38383391859E+03 -0.95198765744E+03  0.90869680824E+03  0.13739232126E+04  0.91247618942E+02 0.  0.
         13    1    3    3    0    0  0.27360115840E+03 -0.67343174856E+03  0.69730537712E+03  0.10072748894E+04  0.00000000000E+00 0.  1.
        -13    1    3    3    0    0  0.11023276019E+03 -0.27855590888E+03  0.21139143112E+03  0.36664832325E+03  0.00000000000E+00 0. -1.
         22    1    1    2    0    0 -0.38383391859E+03  0.95198765744E+03 -0.10958468662E+04  0.15014956980E+04  0.00000000000E+00 0.  1.
<mgrwt>
<rscale>  0 0.28693220E+04</rscale>
<asrwt>0</asrwt>
<pdfrwt beam="1">  1        2 0.20678991E+00 0.28693220E+04</pdfrwt>
<pdfrwt beam="2">  1       -2 0.23558223E+00 0.28693220E+04</pdfrwt>
<totfact> 0.10639154E+00</totfact>
</mgrwt>
</event>
<event>
 6    1  0.1817112E-005  0.1687335E+04  0.7818608E-02  0.8768621E-01
         -2   -1    0    0    0  501 -0.00000000000E+00  0.00000000000E+00  0.41189349597E+03  0.41189349597E+03  0.00000000000E+00 0.  1.
          2   -1    0    0  501    0  0.00000000000E+00 -0.00000000000E+00 -0.17280560940E+04  0.17280560940E+04  0.00000000000E+00 0. -1.
         23    2    1    2    0    0 -0.33986724407E+03 -0.12681920799E+03  0.30217293083E+03  0.48145547208E+03  0.94329403501E+02 0.  0.
         11    1    3    3    0    0 -0.19226921340E+03 -0.93290174473E+02  0.22937013077E+03  0.31349826788E+03  0.00000000000E+00 0.  1.
        -11    1    3    3    0    0 -0.14759803067E+03 -0.33529033515E+02  0.72802800056E+02  0.16795720420E+03  0.00000000000E+00 0. -1.
         22    1    1    2    0    0  0.33986724407E+03  0.12681920799E+03 -0.16183355289E+04  0.16584941179E+04  0.00000000000E+00 0. -1.
<mgrwt>
<rscale>  0 0.16873353E+04</rscale>
<asrwt>0</asrwt>
<pdfrwt beam="1">  1        2 0.26585478E+00 0.16873353E+04</pdfrwt>
<pdfrwt beam="2">  1       -2 0.63368230E-01 0.16873353E+04</pdfrwt>
<totfact> 0.20774149E+01</totfact>
</mgrwt>
</event>
<event>
 6    1  0.1817112E-005  0.3503198E+04  0.7818608E-02  0.8113032E-01
          1   -1    0    0  501    0  0.00000000000E+00  0.00000000000E+00  0.30703413347E+04  0.30703413347E+04  0.00000000000E+00 0. -1.
         -1   -1    0    0    0  501 -0.00000000000E+00 -0.00000000000E+00 -0.99926988856E+03  0.99926988856E+03  0.00000000000E+00 0.  1.
         23    2    1    2    0    0 -0.26078583447E+03  0.49396856134E+03  0.29633456860E+04  0.30169158683E+04  0.91375655921E+02 0.  0.
         11    1    3    3    0    0 -0.12833760333E+02  0.76965329104E+02  0.31662936685E+03  0.32610201355E+03  0.00000000000E+00 0. -1.
        -11    1    3    3    0    0 -0.24795207413E+03  0.41700323224E+03  0.26467163192E+04  0.26908138548E+04  0.00000000000E+00 0.  1.
         22    1    1    2    0    0  0.26078583447E+03 -0.49396856134E+03 -0.89227423991E+03  0.10526953549E+04  0.00000000000E+00 0.  1.
<mgrwt>
<rscale>  0 0.35031983E+04</rscale>
<asrwt>0</asrwt>
<pdfrwt beam="1">  1        1 0.47236020E+00 0.35031983E+04</pdfrwt>
<pdfrwt beam="2">  1       -1 0.15373383E+00 0.35031983E+04</pdfrwt>
<totfact> 0.14116635E-01</totfact>
</mgrwt>
</event>
<event>
 6    1  0.1817112E-005  0.2207856E+04  0.7818608E-02  0.8515165E-01
          2   -1    0    0  501    0  0.00000000000E+00  0.00000000000E+00  0.11544772486E+04  0.11544772486E+04  0.00000000000E+00 0. -1.
         -2   -1    0    0    0  501 -0.00000000000E+00 -0.00000000000E+00 -0.10555922465E+04  0.10555922465E+04  0.00000000000E+00 0.  1.
         23    2    1    2    0    0 -0.40193990096E+03  0.91860810024E+03 -0.40820050482E+03  0.10864448971E+04  0.91314492165E+02 0.  0.
         11    1    3    3    0    0 -0.11072754657E+03  0.29427629900E+03 -0.17056070481E+03  0.35770110952E+03  0.00000000000E+00 0.  1.
        -11    1    3    3    0    0 -0.29121235438E+03  0.62433180124E+03 -0.23763980001E+03  0.72874378757E+03  0.00000000000E+00 0. -1.
         22    1    1    2    0    0  0.40193990096E+03 -0.91860810024E+03  0.50708550691E+03  0.11236245979E+04  0.00000000000E+00 0. -1.
<mgrwt>
<rscale>  0 0.22078562E+04</rscale>
<asrwt>0</asrwt>
<pdfrwt beam="1">  1        2 0.17761188E+00 0.22078562E+04</pdfrwt>
<pdfrwt beam="2">  1       -2 0.16239881E+00 0.22078562E+04</pdfrwt>
<totfact> 0.44572902E+00</totfact>
</mgrwt>
</event>
<event>
 6    1  0.1817112E-005  0.2457251E+04  0.7818608E-02  0.8418375E-01
         -2   -1    0    0    0  501 -0.00000000000E+00  0.00000000000E+00  0.17384446738E+04  0.17384446738E+04  0.00000000000E+00 0.  1.
          2   -1    0    0  501    0  0.00000000000E+00 -0.00000000000E+00 -0.86831677036E+03  0.86831677036E+03  0.00000000000E+00 0. -1.
         23    2    1    2    0    0 -0.75522970393E+03  0.65602033408E+03 -0.31805459246E+03  0.10535350511E+04  0.89681635608E+02 0.  0.
         13    1    3    3    0    0 -0.38912064654E+03  0.29081641331E+03 -0.12554729625E+03  0.50174813145E+03  0.00000000000E+00 0.  1.
        -13    1    3    3    0    0 -0.36610905739E+03  0.36520392076E+03 -0.19250729621E+03  0.55178691969E+03  0.00000000000E+00 0. -1.
         22    1    1    2    0    0  0.75522970393E+03 -0.65602033408E+03  0.11881824959E+04  0.15532263930E+04  0.00000000000E+00 0.  1.
<mgrwt>
<rscale>  0 0.24572510E+04</rscale>
<asrwt>0</asrwt>
<pdfrwt beam="1">  1        2 0.13358720E+00 0.24572510E+04</pdfrwt>
<pdfrwt beam="2">  1       -2 0.26745303E+00 0.24572510E+04</pdfrwt>
<totfact> 0.13857411E+00</totfact>
</mgrwt>
</event>
<event>
 6    1  0.1817112E-005  0.1066448E+04  0.7818608E-02  0.9238525E-01
         -2   -1    0    0    0  501 -0.00000000000E+00  0.00000000000E+00  0.12044175412E+04  0.12044175412E+04  0.00000000000E+00 0.  1.
          2   -1    0    0  501    0  0.00000000000E+00 -0.00000000000E+00 -0.23607077748E+03  0.23607077748E+03  0.00000000000E+00 0. -1.
         23    2    1    2    0    0 -0.13245086166E+02  0.48162073762E+03  0.19101760474E+03  0.52595314243E+03  0.89470752204E+02 0.  0.
         13    1    3    3    0    0  0.30962859389E+02  0.18250569476E+03  0.46700621523E+02  0.19091352841E+03  0.00000000000E+00 0. -1.
        -13    1    3    3    0    0 -0.44207945555E+02  0.29911504286E+03  0.14431698322E+03  0.33503961402E+03  0.00000000000E+00 0.  1.
         22    1    1    2    0    0  0.13245086166E+02 -0.48162073762E+03  0.77732915898E+03  0.91453517626E+03  0.00000000000E+00 0.  1.
<mgrwt>
<rscale>  0 0.10664479E+04</rscale>
<asrwt>0</asrwt>
<pdfrwt beam="1">  1        2 0.36318582E-01 0.10664479E+04</pdfrwt>
<pdfrwt beam="2">  1       -2 0.18529500E+00 0.10664479E+04</pdfrwt>
<totfact> 0.23801245E+01</totfact>
</mgrwt>
</event>
<event>
 6    1  0.1817112E-005  0.2270197E+04  0.7818608E-02  0.8489766E-01
         -2   -1    0    0    0  501 -0.00000000000E+00  0.00000000000E+00  0.85561735484E+03  0.85561735484E+03  0.00000000000E+00 0.  1.
          2   -1    0    0  501    0  0.00000000000E+00 -0.00000000000E+00 -0.15058698841E+04  0.15058698841E+04  0.00000000000E+00 0. -1.
         23    2    1    2    0    0  0.10094575339E+04  0.51089238566E+03 -0.39347435255E+03  0.12013361390E+04  0.91492678903E+02 0.  0.
         11    1    3    3    0    0  0.54366840918E+03  0.26488717907E+03 -0.16289536121E+03  0.62631897263E+03  0.00000000000E+00 0.  1.
        -11    1    3    3    0    0  0.46578912474E+03  0.24600520659E+03 -0.23057899134E+03  0.57501716640E+03  0.00000000000E+00 0. -1.
         22    1    1    2    0    0 -0.10094575339E+04 -0.51089238566E+03 -0.25677817668E+03  0.11601510999E+04  0.00000000000E+00 0. -1.
<mgrwt>
<rscale>  0 0.22701968E+04</rscale>
<asrwt>0</asrwt>
<pdfrwt beam="1">  1        2 0.23167229E+00 0.22701968E+04</pdfrwt>
<pdfrwt beam="2">  1       -2 0.13163344E+00 0.22701968E+04</pdfrwt>
<totfact> 0.48178787E+00</totfact>
</mgrwt>
</event>
<event>
 6    1  0.1817112E-005  0.1146951E+04  0.7818608E-02  0.9160601E-01
          2   -1    0    0  501    0  0.00000000000E+00  0.00000000000E+00  0.45953209631E+03  0.45953209631E+03  0.00000000000E+00 0. -1.
         -2   -1    0    0    0  501 -0.00000000000E+00 -0.00000000000E+00 -0.71567175495E+03  0.71567175495E+03  0.00000000000E+00 0.  1.
         23    2    1    2    0    0 -0.15369102935E+03 -0.38421976932E+03 -0.53055400047E+03  0.67866684897E+03  0.88630586413E+02 0.  0.
         11    1    3    3    0    0 -0.58238548313E+01 -0.62492101023E+02 -0.12792439255E+03  0.14249150916E+03  0.00000000000E+00 0.  1.
        -11    1    3    3    0    0 -0.14786717452E+03 -0.32172766829E+03 -0.40262960792E+03  0.53617533981E+03  0.00000000000E+00 0. -1.
         22    1    1    2    0    0  0.15369102935E+03  0.38421976932E+03  0.27441434183E+03  0.49653700229E+03  0.00000000000E+00 0. -1.
<mgrwt>
<rscale>  0 0.11469510E+04</rscale>
<asrwt>0</asrwt>
<pdfrwt beam="1">  1        2 0.70697246E-01 0.11469510E+04</pdfrwt>
<pdfrwt beam="2">  1       -2 0.11010335E+00 0.11469510E+04</pdfrwt>
<totfact> 0.44062701E+01</totfact>
</mgrwt>
</event>
<event>
 6    1  0.1817112E-005  0.7533817E+03  0.7818608E-02  0.9630060E-01
          2   -1    0    0  501    0  0.00000000000E+00  0.00000000000E+00  0.19194469306E+04  0.19194469306E+04  0.00000000000E+00 0. -1.
         -2   -1    0    0    0  501 -0.00000000000E+00 -0.00000000000E+00 -0.73925467457E+02  0.73925467457E+02  0.00000000000E+00 0.  1.
         23    2    1    2    0    0 -0.95205808196E+02 -0.33154170375E+03  0.12976778320E+04  0.13459801743E+04  0.93331809298E+02 0.  0.
         13    1    3    3    0    0 -0.74131970923E+02 -0.99664859399E+02  0.42552905724E+03  0.44328727916E+03  0.00000000000E+00 0. -1.
        -13    1    3    3    0    0 -0.21073837273E+02 -0.23187684435E+03  0.87214877481E+03  0.90269289516E+03  0.00000000000E+00 0.  1.
         22    1    1    2    0    0  0.95205808196E+02  0.33154170375E+03  0.54784363114E+03  0.64739222378E+03  0.00000000000E+00 0.  1.
<mgrwt>
<rscale>  0 0.75338174E+03</rscale>
<asrwt>0</asrwt>
<pdfrwt beam="1">  1        2 0.29529949E+00 0.75338174E+03</pdfrwt>
<pdfrwt beam="2">  1       -2 0.11373150E-01 0.75338174E+03</pdfrwt>
<totfact> 0.42063272E+02</totfact>
</mgrwt>
</event>
<event>
 6    1  0.1817112E-005  0.1391796E+04  0.7818608E-02  0.8959779E-01
         -2   -1    0    0    0  501 -0.00000000000E+00  0.00000000000E+00  0.57523839871E+03  0.57523839871E+03  0.00000000000E+00 0.  1.
          2   -1    0    0  501    0  0.00000000000E+00 -0.00000000000E+00 -0.84186660950E+03  0.84186660950E+03  0.00000000000E+00 0. -1.
         23    2    1    2    0    0  0.49345212971E+03  0.46590559902E+03  0.73771154102E+01  0.68522936966E+03  0.94455469347E+02 0.  0.
         13    1    3    3    0    0  0.31909131278E+03  0.36054089162E+03  0.48838183536E+01  0.48149024092E+03  0.00000000000E+00 0. -1.
        -13    1    3    3    0    0  0.17436081693E+03  0.10536470740E+03  0.24932970566E+01  0.20373912873E+03  0.00000000000E+00 0.  1.
         22    1    1    2    0    0 -0.49345212971E+03 -0.46590559902E+03 -0.27400532621E+03  0.73187563855E+03  0.00000000000E+00 0. -1.
<mgrwt>
<rscale>  0 0.13917960E+04</rscale>
<asrwt>0</asrwt>
<pdfrwt beam="1">  1        2 0.12951794E+00 0.13917960E+04</pdfrwt>
<pdfrwt beam="2">  1       -2 0.88498215E-01 0.13917960E+04</pdfrwt>
<totfact> 0.34417591E+01</totfact>
</mgrwt>
</event>
<event>
 6    1  0.1817112E-005  0.1758444E+04  0.7818608E-02  0.8728716E-01
          2   -1    0    0  501    0  0.00000000000E+00  0.00000000000E+00  0.22492672207E+04  0.22492672207E+04  0.00000000000E+00 0. -1.
         -2   -1    0    0    0  501 -0.00000000000E+00 -0.00000000000E+00 -0.34368141911E+03  0.34368141911E+03  0.00000000000E+00 0.  1.
         23    2    1    2    0    0  0.63057929471E+03 -0.20027669471E+03  0.18037816908E+04  0.19235421278E+04  0.92978104585E+02 0.  0.
         11    1    3    3    0    0  0.12336747387E+03 -0.67503158087E+02  0.46331154521E+03  0.48418364067E+03  0.00000000000E+00 0. -1.
        -11    1    3    3    0    0  0.50721182084E+03 -0.13277353662E+03  0.13404701456E+04  0.14393584871E+04  0.00000000000E+00 0.  1.
         22    1    1    2    0    0 -0.63057929471E+03  0.20027669471E+03  0.10180411078E+03  0.66940651201E+03  0.00000000000E+00 0.  1.
<mgrwt>
<rscale>  0 0.17584440E+04</rscale>
<asrwt>0</asrwt>
<pdfrwt beam="1">  1        2 0.34604110E+00 0.17584440E+04</pdfrwt>
<pdfrwt beam="2">  1       -2 0.52874066E-01 0.17584440E+04</pdfrwt>
<totfact> 0.15486501E+01</totfact>
</mgrwt>
</event>
<event>
 6    1  0.1817112E-005  0.2975524E+04  0.7818608E-02  0.8250755E-01
         -2   -1    0    0    0  501 -0.00000000000E+00  0.00000000000E+00  0.19064261740E+04  0.19064261740E+04  0.00000000000E+00 0.  1.
          2   -1    0    0  501    0  0.00000000000E+00 -0.00000000000E+00 -0.11610394959E+04  0.11610394959E+04  0.00000000000E+00 0. -1.
         23    2    1    2    0    0  0.46538224319E+03  0.13517574608E+04 -0.45898470789E+02  0.14334641239E+04  0.94254230397E+02 0.  0.
         13    1    3    3    0    0  0.25821669874E+03  0.85715562090E+03  0.73031331578E+00  0.89520509120E+03  0.00000000000E+00 0. -1.
        -13    1    3    3    0    0  0.20716554446E+03  0.49460183989E+03 -0.46628784105E+02  0.53825903275E+03  0.00000000000E+00 0.  1.
         22    1    1    2    0    0 -0.46538224319E+03 -0.13517574608E+04  0.79128514894E+03  0.16340015459E+04  0.00000000000E+00 0.  1.
<mgrwt>
<rscale>  0 0.29755242E+04</rscale>
<asrwt>0</asrwt>
<pdfrwt beam="1">  1        2 0.17862146E+00 0.29755242E+04</pdfrwt>
<pdfrwt beam="2">  1       -2 0.29329633E+00 0.29755242E+04</pdfrwt>
<totfact> 0.59895798E-01</totfact>
</mgrwt>
</event>
<event>
 6    1  0.1817112E-005  0.3351912E+04  0.7818608E-02  0.8149811E-01
          2   -1    0    0  501    0  0.00000000000E+00  0.00000000000E+00  0.34649136940E+04  0.34649136940E+04  0.00000000000E+00 0. -1.
         -2   -1    0    0    0  501 -0.00000000000E+00 -0.00000000000E+00 -0.81064878109E+03  0.81064878109E+03  0.00000000000E+00 0.  1.
         23    2    1    2    0    0 -0.42663167729E+03 -0.21306364279E+03  0.33758496344E+04  0.34106374990E+04  0.93148761977E+02 0.  0.
         13    1    3    3    0    0 -0.32650930777E+03 -0.12179971687E+03  0.22886621086E+04  0.23150416295E+04  0.00000000000E+00 0. -1.
        -13    1    3    3    0    0 -0.10012236952E+03 -0.91263925919E+02  0.10871875258E+04  0.10955958695E+04  0.00000000000E+00 0.  1.
         22    1    1    2    0    0  0.42663167729E+03  0.21306364279E+03 -0.72158472147E+03  0.86492497606E+03  0.00000000000E+00 0.  1.
<mgrwt>
<rscale>  0 0.33519117E+04</rscale>
<asrwt>0</asrwt>
<pdfrwt beam="1">  1        2 0.53306364E+00 0.33519117E+04</pdfrwt>
<pdfrwt beam="2">  1       -2 0.12471520E+00 0.33519117E+04</pdfrwt>
<totfact> 0.34447232E-01</totfact>
</mgrwt>
</event>
<event>
 6    1  0.1817112E-005  0.2297948E+04  0.7818608E-02  0.8478731E-01
         -2   -1    0    0    0  501 -0.00000000000E+00  0.00000000000E+00  0.12748552014E+04  0.12748552014E+04  0.00000000000E+00 0.  1.
          2   -1    0    0  501    0  0.00000000000E+00 -0.00000000000E+00 -0.10355227702E+04  0.10355227702E+04  0.00000000000E+00 0. -1.
         23    2    1    2    0    0 -0.46279718951E+03  0.10119978176E+04 -0.16045897940E+03  0.11279423525E+04  0.90476764991E+02 0.  0.
         13    1    3    3    0    0 -0.21693237210E+03  0.57741001792E+03 -0.10249256047E+03  0.62527330649E+03  0.00000000000E+00 0.  1.
        -13    1    3    3    0    0 -0.24586481742E+03  0.43458779967E+03 -0.57966418935E+02  0.50266904598E+03  0.00000000000E+00 0. -1.
         22    1    1    2    0    0  0.46279718951E+03 -0.10119978176E+04  0.39979141065E+03  0.11824356192E+04  0.00000000000E+00 0.  1.
<mgrwt>
<rscale>  0 0.22979483E+04</rscale>
<asrwt>0</asrwt>
<pdfrwt beam="1">  1        2 0.15931120E+00 0.22979483E+04</pdfrwt>
<pdfrwt beam="2">  1       -2 0.19613157E+00 0.22979483E+04</pdfrwt>
<totfact> 0.30571969E+00</totfact>
</mgrwt>
</event>
<event>
 6    1  0.1817112E-005  0.1301605E+04  0.7818608E-02  0.9028294E-01
         -2   -1    0    0    0  501 -0.00000000000E+00  0.00000000000E+00  0.32568563154E+03  0.32568563154E+03  0.00000000000E+00 0.  1.
          2   -1    0    0  501    0  0.00000000000E+00 -0.00000000000E+00 -0.13004677784E+04  0.13004677784E+04  0.00000000000E+00 0. -1.
         23    2    1    2    0    0 -0.32663110153E+03 -0.24191585423E+03  0.14001166310E+03  0.43957159828E+03  0.91699330408E+02 0.  0.
         13    1    3    3    0    0 -0.19023495394E+03 -0.97534131285E+02  0.41140636989E+02  0.21770345996E+03  0.00000000000E+00 0. -1.
        -13    1    3    3    0    0 -0.13639614759E+03 -0.14438172295E+03  0.98871026113E+02  0.22186813832E+03  0.00000000000E+00 0.  1.
         22    1    1    2    0    0  0.32663110153E+03  0.24191585423E+03 -0.11147938100E+04  0.11865818117E+04  0.00000000000E+00 0. -1.
<mgrwt>
<rscale>  0 0.13016047E+04</rscale>
<asrwt>0</asrwt>
<pdfrwt beam="1">  1        2 0.20007197E+00 0.13016047E+04</pdfrwt>
<pdfrwt beam="2">  1       -2 0.50105481E-01 0.13016047E+04</pdfrwt>
<totfact> 0.60993959E+01</totfact>
</mgrwt>
</event>
<event>
 6    1  0.1817112E-005  0.9342361E+03  0.7818608E-02  0.9383768E-01
          1   -1    0    0  501    0  0.00000000000E+00  0.00000000000E+00  0.14974156793E+04  0.14974156793E+04  0.00000000000E+00 0. -1.
         -1   -1    0    0    0  501 -0.00000000000E+00 -0.00000000000E+00 -0.14571723278E+03  0.14571723278E+03  0.00000000000E+00 0.  1.
         23    2    1    2    0    0  0.10101530796E+02  0.31970728852E+03  0.90864056643E+02  0.34235693215E+03  0.81469018324E+02 0.  0.
         13    1    3    3    0    0  0.13603368343E+02  0.19000637970E+03  0.94315900635E+02  0.21256284970E+03  0.00000000000E+00 0.  1.
        -13    1    3    3    0    0 -0.35018375479E+01  0.12970090882E+03 -0.34518439918E+01  0.12979408246E+03  0.00000000000E+00 0. -1.
         22    1    1    2    0    0 -0.10101530796E+02 -0.31970728852E+03  0.12608343898E+04  0.13007759799E+04  0.00000000000E+00 0. -1.
<mgrwt>
<rscale>  0 0.93423609E+03</rscale>
<asrwt>0</asrwt>
<pdfrwt beam="1">  1        1 0.23037163E+00 0.93423609E+03</pdfrwt>
<pdfrwt beam="2">  1       -1 0.22418037E-01 0.93423609E+03</pdfrwt>
<totfact> 0.11156965E+02</totfact>
</mgrwt>
</event>
<event>
 6    1  0.1817112E-005  0.4360024E+04  0.7818608E-02  0.7935611E-01
         -2   -1    0    0    0  501 -0.00000000000E+00  0.00000000000E+00  0.11174237548E+04  0.11174237548E+04  0.00000000000E+00 0.  1.
          2   -1    0    0  501    0  0.00000000000E+00 -0.00000000000E+00 -0.42530429835E+04  0.42530429835E+04  0.00000000000E+00 0. -1.
         23    2    1    2    0    0 -0.14687805568E+03 -0.13272637794E+04  0.55244149535E+03  0.14480957451E+04  0.92668106333E+02 0.  0.
         11    1    3    3    0    0 -0.14391190000E+02 -0.10329225736E+03  0.71110546994E+02  0.12622641036E+03  0.00000000000E+00 0.  1.
        -11    1    3    3    0    0 -0.13248686568E+03 -0.12239715221E+04  0.48133094835E+03  0.13218693348E+04  0.00000000000E+00 0. -1.
         22    1    1    2    0    0  0.14687805568E+03  0.13272637794E+04 -0.36880607241E+04  0.39223709931E+04  0.00000000000E+00 0. -1.
<mgrwt>
<rscale>  0 0.43600235E+04</rscale>
<asrwt>0</asrwt>
<pdfrwt beam="1">  1        2 0.65431431E+00 0.43600235E+04</pdfrwt>
<pdfrwt beam="2">  1       -2 0.17191135E+00 0.43600235E+04</pdfrwt>
<totfact> 0.32878026E-02</totfact>
</mgrwt>
</event>
<event>
 6    1  0.1817112E-005  0.3066347E+04  0.7818608E-02  0.8225035E-01
          2   -1    0    0  501    0  0.00000000000E+00  0.00000000000E+00  0.19685383143E+04  0.19685383143E+04  0.00000000000E+00 0. -1.
         -2   -1    0    0    0  501 -0.00000000000E+00 -0.00000000000E+00 -0.11940947929E+04  0.11940947929E+04  0.00000000000E+00 0.  1.
         23    2    1    2    0    0  0.70558802187E+03 -0.86086479375E+03  0.14729326699E+04  0.18485441680E+04  0.92963654315E+02 0.  0.
         11    1    3    3    0    0  0.39392605277E+03 -0.40732075656E+03  0.74533414592E+03  0.93627502521E+03  0.00000000000E+00 0. -1.
        -11    1    3    3    0    0  0.31166196911E+03 -0.45354403719E+03  0.72759852401E+03  0.91226914274E+03  0.00000000000E+00 0.  1.
         22    1    1    2    0    0 -0.70558802187E+03  0.86086479375E+03 -0.69848914845E+03  0.13140889392E+04  0.00000000000E+00 0.  1.
<mgrwt>
<rscale>  0 0.30663472E+04</rscale>
<asrwt>0</asrwt>
<pdfrwt beam="1">  1        2 0.30285205E+00 0.30663472E+04</pdfrwt>
<pdfrwt beam="2">  1       -2 0.18370689E+00 0.30663472E+04</pdfrwt>
<totfact> 0.10127200E+00</totfact>
</mgrwt>
</event>
<event>
 6    1  0.1817112E-005  0.3019473E+04  0.7818608E-02  0.8238192E-01
          2   -1    0    0  501    0  0.00000000000E+00  0.00000000000E+00  0.13020254758E+04  0.13020254758E+04  0.00000000000E+00 0. -1.
         -2   -1    0    0    0  501 -0.00000000000E+00 -0.00000000000E+00 -0.17505834210E+04  0.17505834210E+04  0.00000000000E+00 0.  1.
         23    2    1    2    0    0  0.59078823268E+03 -0.50288476035E+03 -0.15322077699E+04  0.17198595727E+04  0.91282427563E+02 0.  0.
         11    1    3    3    0    0  0.23014103078E+03 -0.16464649098E+03 -0.64101724175E+03  0.70069712805E+03  0.00000000000E+00 0. -1.
        -11    1    3    3    0    0  0.36064720190E+03 -0.33823826938E+03 -0.89119052819E+03  0.10191624447E+04  0.00000000000E+00 0.  1.
         22    1    1    2    0    0 -0.59078823268E+03  0.50288476035E+03  0.10836498247E+04  0.13327493240E+04  0.00000000000E+00 0. -1.
<mgrwt>
<rscale>  0 0.30194729E+04</rscale>
<asrwt>0</asrwt>
<pdfrwt beam="1">  1        2 0.20031161E+00 0.30194729E+04</pdfrwt>
<pdfrwt beam="2">  1       -2 0.26932053E+00 0.30194729E+04</pdfrwt>
<totfact> 0.68945253E-01</totfact>
</mgrwt>
</event>
<event>
 6    1  0.1817112E-005  0.1525334E+04  0.7818608E-02  0.8867779E-01
          4   -1    0    0  501    0  0.00000000000E+00  0.00000000000E+00  0.11705297791E+04  0.11705297791E+04  0.00000000000E+00 0.  1.
         -4   -1    0    0    0  501 -0.00000000000E+00 -0.00000000000E+00 -0.49692112289E+03  0.49692112289E+03  0.00000000000E+00 0. -1.
         23    2    1    2    0    0  0.53495616530E+03  0.35425136958E+03 -0.10715238896E+03  0.65687683678E+03  0.91287527077E+02 0.  0.
         13    1    3    3    0    0  0.25641198020E+03  0.12684515914E+03 -0.75714733831E+02  0.29592147422E+03  0.00000000000E+00 0.  1.
        -13    1    3    3    0    0  0.27854418510E+03  0.22740621044E+03 -0.31437655127E+02  0.36095536256E+03  0.00000000000E+00 0. -1.
         22    1    1    2    0    0 -0.53495616530E+03 -0.35425136958E+03  0.78076104520E+03  0.10105740652E+04  0.00000000000E+00 0.  1.
<mgrwt>
<rscale>  0 0.15253340E+04</rscale>
<asrwt>0</asrwt>
<pdfrwt beam="1">  1        4 0.18008150E+00 0.15253340E+04</pdfrwt>
<pdfrwt beam="2">  1       -4 0.76449404E-01 0.15253340E+04</pdfrwt>
<totfact> 0.53239699E-01</totfact>
</mgrwt>
</event>
<event>
 6    1  0.1817112E-005  0.1028958E+04  0.7818608E-02  0.9277342E-01
         -2   -1    0    0    0  501 -0.00000000000E+00  0.00000000000E+00  0.15086980882E+03  0.15086980882E+03  0.00000000000E+00 0.  1.
          2   -1    0    0  501    0  0.00000000000E+00 -0.00000000000E+00 -0.17544182937E+04  0.17544182937E+04  0.00000000000E+00 0. -1.
         23    2    1    2    0    0 -0.50812521277E+03  0.65863944326E+01 -0.72075768826E+03  0.88668405627E+03  0.92099717729E+02 0.  0.
         11    1    3    3    0    0 -0.25099847127E+03 -0.62947610959E+01 -0.27866209568E+03  0.37508988278E+03  0.00000000000E+00 0.  1.
        -11    1    3    3    0    0 -0.25712674150E+03  0.12881155528E+02 -0.44209559259E+03  0.51159417349E+03  0.00000000000E+00 0. -1.
         22    1    1    2    0    0  0.50812521277E+03 -0.65863944326E+01 -0.88279079661E+03  0.10186040462E+04  0.00000000000E+00 0.  1.
<mgrwt>
<rscale>  0 0.10289582E+04</rscale>
<asrwt>0</asrwt>
<pdfrwt beam="1">  1        2 0.26991052E+00 0.10289582E+04</pdfrwt>
<pdfrwt beam="2">  1       -2 0.23210739E-01 0.10289582E+04</pdfrwt>
<totfact> 0.14968006E+02</totfact>
</mgrwt>
</event>
<event>
 6    1  0.1817112E-005  0.3481320E+04  0.7818608E-02  0.8118231E-01
         -2   -1    0    0    0  501 -0.00000000000E+00  0.00000000000E+00  0.18455997821E+04  0.18455997821E+04  0.00000000000E+00 0.  1.
          2   -1    0    0  501    0  0.00000000000E+00 -0.00000000000E+00 -0.16416869958E+04  0.16416869958E+04  0.00000000000E+00 0. -1.
         23    2    1    2    0    0 -0.51062525211E+03 -0.84668896444E+03  0.15355852154E+04  0.18286813972E+04  0.91833262275E+02 0.  0.
         11    1    3    3    0    0 -0.33191251645E+03 -0.48690854545E+03  0.85548614459E+03  0.10387985338E+04  0.00000000000E+00 0.  1.
        -11    1    3    3    0    0 -0.17871273566E+03 -0.35978041899E+03  0.68009907083E+03  0.78988286342E+03  0.00000000000E+00 0. -1.
         22    1    1    2    0    0  0.51062525211E+03  0.84668896444E+03 -0.13316724291E+04  0.16586053807E+04  0.00000000000E+00 0. -1.
<mgrwt>
<rscale>  0 0.34813200E+04</rscale>
<asrwt>0</asrwt>
<pdfrwt beam="1">  1        2 0.25256723E+00 0.34813200E+04</pdfrwt>
<pdfrwt beam="2">  1       -2 0.28393843E+00 0.34813200E+04</pdfrwt>
<totfact> 0.34657209E-01</totfact>
</mgrwt>
</event>
<event>
 6    1  0.1817112E-005  0.2464606E+04  0.7818608E-02  0.8415704E-01
          2   -1    0    0  501    0  0.00000000000E+00  0.00000000000E+00  0.10604995739E+04  0.10604995739E+04  0.00000000000E+00 0. -1.
         -2   -1    0    0    0  501 -0.00000000000E+00 -0.00000000000E+00 -0.14319392532E+04  0.14319392532E+04  0.00000000000E+00 0.  1.
         23    2    1    2    0    0 -0.39879516953E+03  0.77313841386E+03 -0.10661772474E+04  0.13791370339E+04  0.92219527354E+02 0.  0.
         13    1    3    3    0    0 -0.47682887257E+02  0.17326000307E+03 -0.21476834440E+03  0.28003236984E+03  0.00000000000E+00 0. -1.
        -13    1    3    3    0    0 -0.35111228227E+03  0.59987841079E+03 -0.85140890296E+03  0.10991046640E+04  0.00000000000E+00 0.  1.
         22    1    1    2    0    0  0.39879516953E+03 -0.77313841386E+03  0.69473756811E+03  0.11133017932E+04  0.00000000000E+00 0. -1.
<mgrwt>
<rscale>  0 0.24646062E+04</rscale>
<asrwt>0</asrwt>
<pdfrwt beam="1">  1        2 0.16315378E+00 0.24646062E+04</pdfrwt>
<pdfrwt beam="2">  1       -2 0.22029835E+00 0.24646062E+04</pdfrwt>
<totfact> 0.20290805E+00</totfact>
</mgrwt>
</event>
<event>
 6    1  0.1817112E-005  0.3215618E+04  0.7818608E-02  0.8184705E-01
          2   -1    0    0  501    0  0.00000000000E+00  0.00000000000E+00  0.36483319888E+04  0.36483319888E+04  0.00000000000E+00 0. -1.
         -2   -1    0    0    0  501 -0.00000000000E+00 -0.00000000000E+00 -0.70855659567E+03  0.70855659567E+03  0.00000000000E+00 0.  1.
         23    2    1    2    0    0  0.54308449877E+03  0.12308764283E+04  0.26611071681E+04  0.29829695424E+04  0.81353404273E+02 0.  0.
         11    1    3    3    0    0  0.10880813274E+03  0.18505045846E+03  0.38883665722E+03  0.44415856169E+03  0.00000000000E+00 0.  1.
        -11    1    3    3    0    0  0.43427636603E+03  0.10458259698E+04  0.22722705109E+04  0.25388109807E+04  0.00000000000E+00 0. -1.
         22    1    1    2    0    0 -0.54308449877E+03 -0.12308764283E+04  0.27866822501E+03  0.13739190420E+04  0.00000000000E+00 0.  1.
<mgrwt>
<rscale>  0 0.32156179E+04</rscale>
<asrwt>0</asrwt>
<pdfrwt beam="1">  1        2 0.56128183E+00 0.32156179E+04</pdfrwt>
<pdfrwt beam="2">  1       -2 0.10900871E+00 0.32156179E+04</pdfrwt>
<totfact> 0.35921902E-01</totfact>
</mgrwt>
</event>
<event>
 6    1  0.1817112E-005  0.9869901E+03  0.7818608E-02  0.9322930E-01
         -2   -1    0    0    0  501 -0.00000000000E+00  0.00000000000E+00  0.16270861310E+03  0.16270861310E+03  0.00000000000E+00 0.  1.
          2   -1    0    0  501    0  0.00000000000E+00 -0.00000000000E+00 -0.14967699350E+04  0.14967699350E+04  0.00000000000E+00 0. -1.
         23    2    1    2    0    0 -0.40108738530E+03 -0.23982786072E+03 -0.42862201540E+03  0.64055321660E+03  0.90570954428E+02 0.  0.
         11    1    3    3    0    0 -0.89505251170E+02 -0.21672795714E+02 -0.11662281528E+03  0.14859939806E+03  0.00000000000E+00 0.  1.
        -11    1    3    3    0    0 -0.31158213413E+03 -0.21815506500E+03 -0.31199920012E+03  0.49195381854E+03  0.00000000000E+00 0. -1.
         22    1    1    2    0    0  0.40108738530E+03  0.23982786072E+03 -0.90543930648E+03  0.10189253315E+04  0.00000000000E+00 0.  1.
<mgrwt>
<rscale>  0 0.98699009E+03</rscale>
<asrwt>0</asrwt>
<pdfrwt beam="1">  1        2 0.23027229E+00 0.98699009E+03</pdfrwt>
<pdfrwt beam="2">  1       -2 0.25032095E-01 0.98699009E+03</pdfrwt>
<totfact> 0.18212207E+02</totfact>
</mgrwt>
</event>
<event>
 6    1  0.1817112E-005  0.2955386E+04  0.7818608E-02  0.8256587E-01
         -2   -1    0    0    0  501 -0.00000000000E+00  0.00000000000E+00  0.58494781977E+03  0.58494781977E+03  0.00000000000E+00 0.  1.
          2   -1    0    0  501    0  0.00000000000E+00 -0.00000000000E+00 -0.37329437572E+04  0.37329437572E+04  0.00000000000E+00 0. -1.
         23    2    1    2    0    0  0.74203668228E+03 -0.30812374595E+03 -0.33849922745E+04  0.34802007363E+04  0.89809721689E+02 0.  0.
         13    1    3    3    0    0  0.21566084157E+03 -0.63429134133E+02 -0.10898377328E+04  0.11127799142E+04  0.00000000000E+00 0.  1.
        -13    1    3    3    0    0  0.52637584071E+03 -0.24469461182E+03 -0.22951545417E+04  0.23674208221E+04  0.00000000000E+00 0. -1.
         22    1    1    2    0    0 -0.74203668228E+03  0.30812374595E+03  0.23699633708E+03  0.83769084062E+03  0.00000000000E+00 0.  1.
<mgrwt>
<rscale>  0 0.29553865E+04</rscale>
<asrwt>0</asrwt>
<pdfrwt beam="1">  1        2 0.57429903E+00 0.29553865E+04</pdfrwt>
<pdfrwt beam="2">  1       -2 0.89991974E-01 0.29553865E+04</pdfrwt>
<totfact> 0.50076564E-01</totfact>
</mgrwt>
</event>
<event>
 6    1  0.1817112E-005  0.1072778E+04  0.7818608E-02  0.9232138E-01
         -2   -1    0    0    0  501 -0.00000000000E+00  0.00000000000E+00  0.21367397984E+03  0.21367397984E+03  0.00000000000E+00 0.  1.
          2   -1    0    0  501    0  0.00000000000E+00 -0.00000000000E+00 -0.13465048470E+04  0.13465048470E+04  0.00000000000E+00 0. -1.
         23    2    1    2    0    0 -0.11009353624E+02 -0.27791863258E+03  0.89699149000E+02  0.30640866744E+03  0.92088880695E+02 0.  0.
         13    1    3    3    0    0  0.27860701119E+02 -0.12873155927E+03  0.74933125660E+02  0.15153549531E+03  0.00000000000E+00 0.  1.
        -13    1    3    3    0    0 -0.38870054743E+02 -0.14918707331E+03  0.14766023341E+02  0.15487317212E+03  0.00000000000E+00 0. -1.
         22    1    1    2    0    0  0.11009353624E+02  0.27791863258E+03 -0.12225300162E+04  0.12537701594E+04  0.00000000000E+00 0. -1.
<mgrwt>
<rscale>  0 0.10727778E+04</rscale>
<asrwt>0</asrwt>
<pdfrwt beam="1">  1        2 0.20715458E+00 0.10727778E+04</pdfrwt>
<pdfrwt beam="2">  1       -2 0.32872921E-01 0.10727778E+04</pdfrwt>
<totfact> 0.13321934E+02</totfact>
</mgrwt>
</event>
<event>
 6    1  0.1817112E-005  0.7780006E+03  0.7818608E-02  0.9592418E-01
         -2   -1    0    0    0  501 -0.00000000000E+00  0.00000000000E+00  0.25987904835E+03  0.25987904835E+03  0.00000000000E+00 0.  1.
          2   -1    0    0  501    0  0.00000000000E+00 -0.00000000000E+00 -0.58227558300E+03  0.58227558300E+03  0.00000000000E+00 0. -1.
         23    2    1    2    0    0 -0.24471809790E+03  0.17296064159E+03  0.95908836167E+02  0.32758518586E+03  0.91165882650E+02 0.  0.
         11    1    3    3    0    0 -0.39896632400E+02  0.13045236028E+02  0.47270340859E+02  0.63217122560E+02  0.00000000000E+00 0.  1.
        -11    1    3    3    0    0 -0.20482146550E+03  0.15991540556E+03  0.48638495308E+02  0.26436806330E+03  0.00000000000E+00 0. -1.
         22    1    1    2    0    0  0.24471809790E+03 -0.17296064159E+03 -0.41830537081E+03  0.51456944549E+03  0.00000000000E+00 0. -1.
<mgrwt>
<rscale>  0 0.77800058E+03</rscale>
<asrwt>0</asrwt>
<pdfrwt beam="1">  1        2 0.89580859E-01 0.77800058E+03</pdfrwt>
<pdfrwt beam="2">  1       -2 0.39981392E-01 0.77800058E+03</pdfrwt>
<totfact> 0.30640700E+02</totfact>
</mgrwt>
</event>
<event>
 6    1  0.1817112E-005  0.3704623E+04  0.7818608E-02  0.8066938E-01
         -2   -1    0    0    0  501 -0.00000000000E+00  0.00000000000E+00  0.15527126339E+04  0.15527126339E+04  0.00000000000E+00 0.  1.
          2   -1    0    0  501    0  0.00000000000E+00 -0.00000000000E+00 -0.22097189937E+04  0.22097189937E+04  0.00000000000E+00 0. -1.
         23    2    1    2    0    0  0.77406583983E+03  0.76102244037E+03  0.11940986503E+04  0.16165232332E+04  0.94565837136E+02 0.  0.
         13    1    3    3    0    0  0.44261884319E+03  0.37184642869E+03  0.65407635706E+03  0.87292444561E+03  0.00000000000E+00 0. -1.
        -13    1    3    3    0    0  0.33144699664E+03  0.38917601168E+03  0.54002229326E+03  0.74359878756E+03  0.00000000000E+00 0.  1.
         22    1    1    2    0    0 -0.77406583983E+03 -0.76102244037E+03 -0.18511050101E+04  0.21459083945E+04  0.00000000000E+00 0. -1.
<mgrwt>
<rscale>  0 0.37046234E+04</rscale>
<asrwt>0</asrwt>
<pdfrwt beam="1">  1        2 0.33995677E+00 0.37046234E+04</pdfrwt>
<pdfrwt beam="2">  1       -2 0.23887887E+00 0.37046234E+04</pdfrwt>
<totfact> 0.31017577E-01</totfact>
</mgrwt>
</event>
<event>
 6    1  0.1817112E-005  0.2623168E+04  0.7818608E-02  0.8360374E-01
         -2   -1    0    0    0  501 -0.00000000000E+00  0.00000000000E+00  0.17882421662E+04  0.17882421662E+04  0.00000000000E+00 0.  1.
          2   -1    0    0  501    0  0.00000000000E+00 -0.00000000000E+00 -0.96197961231E+03  0.96197961231E+03  0.00000000000E+00 0. -1.
         23    2    1    2    0    0 -0.38980214390E+03 -0.55174295186E+03 -0.76310426909E+03  0.10232438127E+04  0.91289530908E+02 0.  0.
         11    1    3    3    0    0 -0.10971927385E+03 -0.11852599185E+03 -0.13543067675E+03  0.21077997534E+03  0.00000000000E+00 0.  1.
        -11    1    3    3    0    0 -0.28008287004E+03 -0.43321696001E+03 -0.62767359234E+03  0.81246383738E+03  0.00000000000E+00 0. -1.
         22    1    1    2    0    0  0.38980214390E+03  0.55174295186E+03  0.15893668230E+04  0.17269779658E+04  0.00000000000E+00 0.  1.
<mgrwt>
<rscale>  0 0.26231679E+04</rscale>
<asrwt>0</asrwt>
<pdfrwt beam="1">  1        2 0.14799686E+00 0.26231679E+04</pdfrwt>
<pdfrwt beam="2">  1       -2 0.27511418E+00 0.26231679E+04</pdfrwt>
<totfact> 0.10616920E+00</totfact>
</mgrwt>
</event>
<event>
 6    1  0.1817112E-005  0.8582882E+03  0.7818608E-02  0.9479280E-01
         -2   -1    0    0    0  501 -0.00000000000E+00  0.00000000000E+00  0.62671357860E+03  0.62671357860E+03  0.00000000000E+00 0.  1.
          2   -1    0    0  501    0  0.00000000000E+00 -0.00000000000E+00 -0.29385780582E+03  0.29385780582E+03  0.00000000000E+00 0. -1.
         23    2    1    2    0    0 -0.54964074683E+02 -0.50980269291E+02  0.61686468588E+03  0.62683493779E+03  0.82340519702E+02 0.  0.
         13    1    3    3    0    0 -0.58741843217E+00  0.24126027278E+01  0.33032488583E+03  0.33033421850E+03  0.00000000000E+00 0. -1.
        -13    1    3    3    0    0 -0.54376656250E+02 -0.53392872018E+02  0.28653980005E+03  0.29650071929E+03  0.00000000000E+00 0.  1.
         22    1    1    2    0    0  0.54964074683E+02  0.50980269291E+02 -0.28400891310E+03  0.29373644664E+03  0.00000000000E+00 0. -1.
<mgrwt>
<rscale>  0 0.85828824E+03</rscale>
<asrwt>0</asrwt>
<pdfrwt beam="1">  1        2 0.45208893E-01 0.85828824E+03</pdfrwt>
<pdfrwt beam="2">  1       -2 0.96417473E-01 0.85828824E+03</pdfrwt>
<totfact> 0.10166838E+02</totfact>
</mgrwt>
</event>
<event>
 6    1  0.1817112E-005  0.2601466E+04  0.7818608E-02  0.8367703E-01
          2   -1    0    0  501    0  0.00000000000E+00  0.00000000000E+00  0.20275169633E+04  0.20275169633E+04  0.00000000000E+00 0. -1.
         -2   -1    0    0    0  501 -0.00000000000E+00 -0.00000000000E+00 -0.83447212834E+03  0.83447212834E+03  0.00000000000E+00 0.  1.
         23    2    1    2    0    0 -0.56022405898E+03 -0.11555931951E+04  0.81199686012E+03  0.15224204342E+04  0.95804220745E+02 0.  0.
         13    1    3    3    0    0 -0.33943000023E+03 -0.65475417287E+03  0.51669123887E+03  0.90049185908E+03  0.00000000000E+00 0.  1.
        -13    1    3    3    0    0 -0.22079405874E+03 -0.50083902226E+03  0.29530562125E+03  0.62192857511E+03  0.00000000000E+00 0. -1.
         22    1    1    2    0    0  0.56022405898E+03  0.11555931951E+04  0.38104797483E+03  0.13395686574E+04  0.00000000000E+00 0.  1.
<mgrwt>
<rscale>  0 0.26014660E+04</rscale>
<asrwt>0</asrwt>
<pdfrwt beam="1">  1        2 0.31192569E+00 0.26014660E+04</pdfrwt>
<pdfrwt beam="2">  1       -2 0.12838033E+00 0.26014660E+04</pdfrwt>
<totfact> 0.25573124E+00</totfact>
</mgrwt>
</event>
<event>
 6    1  0.1817112E-005  0.2068756E+04  0.7818608E-02  0.8575133E-01
          2   -1    0    0  501    0  0.00000000000E+00  0.00000000000E+00  0.10315873212E+04  0.10315873212E+04  0.00000000000E+00 0.  1.
         -2   -1    0    0    0  501 -0.00000000000E+00 -0.00000000000E+00 -0.10371758380E+04  0.10371758380E+04  0.00000000000E+00 0. -1.
         23    2    1    2    0    0  0.27688675444E+03 -0.56086489437E+03  0.81776835940E+03  0.10347649724E+04  0.10371959324E+03 0.  0.
         13    1    3    3    0    0  0.89000916966E+02 -0.19645353564E+03  0.36492867978E+03  0.42389632720E+03  0.00000000000E+00 0.  1.
        -13    1    3    3    0    0  0.18788583747E+03 -0.36441135873E+03  0.45283967962E+03  0.61086864524E+03  0.00000000000E+00 0. -1.
         22    1    1    2    0    0 -0.27688675444E+03  0.56086489437E+03 -0.82335687623E+03  0.10339981867E+04  0.00000000000E+00 0. -1.
<mgrwt>
<rscale>  0 0.20687556E+04</rscale>
<asrwt>0</asrwt>
<pdfrwt beam="1">  1        2 0.15870574E+00 0.20687556E+04</pdfrwt>
<pdfrwt beam="2">  1       -2 0.15956551E+00 0.20687556E+04</pdfrwt>
<totfact> 0.56366413E+00</totfact>
</mgrwt>
</event>
<event>
 6    1  0.1817112E-005  0.2352235E+04  0.7818608E-02  0.8457606E-01
         -2   -1    0    0    0  501 -0.00000000000E+00  0.00000000000E+00  0.47811309403E+03  0.47811309403E+03  0.00000000000E+00 0.  1.
          2   -1    0    0  501    0  0.00000000000E+00 -0.00000000000E+00 -0.28931492820E+04  0.28931492820E+04  0.00000000000E+00 0. -1.
         23    2    1    2    0    0 -0.67209831658E+03 -0.76137585051E+03 -0.36425325759E+03  0.10827869096E+04  0.91311133199E+02 0.  0.
         13    1    3    3    0    0 -0.37344029574E+03 -0.36014719519E+03 -0.16555571419E+03  0.54458456753E+03  0.00000000000E+00 0.  1.
        -13    1    3    3    0    0 -0.29865802084E+03 -0.40122865532E+03 -0.19869754340E+03  0.53820234207E+03  0.00000000000E+00 0. -1.
         22    1    1    2    0    0  0.67209831658E+03  0.76137585051E+03 -0.20507829304E+04  0.22884754664E+04  0.00000000000E+00 0. -1.
<mgrwt>
<rscale>  0 0.23522352E+04</rscale>
<asrwt>0</asrwt>
<pdfrwt beam="1">  1        2 0.44509988E+00 0.23522352E+04</pdfrwt>
<pdfrwt beam="2">  1       -2 0.73555863E-01 0.23522352E+04</pdfrwt>
<totfact> 0.30542803E+00</totfact>
</mgrwt>
</event>
<event>
 6    1  0.1817112E-005  0.5880118E+04  0.7818608E-02  0.7705446E-01
          2   -1    0    0  501    0  0.00000000000E+00  0.00000000000E+00  0.30820567822E+04  0.30820567822E+04  0.00000000000E+00 0. -1.
         -2   -1    0    0    0  501 -0.00000000000E+00 -0.00000000000E+00 -0.28046030801E+04  0.28046030801E+04  0.00000000000E+00 0.  1.
         23    2    1    2    0    0  0.93314716422E+03 -0.23493019832E+04 -0.13628971181E+04  0.28732341951E+04  0.89458075834E+02 0.  0.
         11    1    3    3    0    0  0.43549687392E+03 -0.10193491104E+04 -0.63625655691E+03  0.12781050591E+04  0.00000000000E+00 0. -1.
        -11    1    3    3    0    0  0.49765029031E+03 -0.13299528728E+04 -0.72664056121E+03  0.15951291360E+04  0.00000000000E+00 0.  1.
         22    1    1    2    0    0 -0.93314716422E+03  0.23493019832E+04  0.16403508202E+04  0.30134256672E+04  0.00000000000E+00 0.  1.
<mgrwt>
<rscale>  0 0.58801177E+04</rscale>
<asrwt>0</asrwt>
<pdfrwt beam="1">  1        2 0.47416258E+00 0.58801177E+04</pdfrwt>
<pdfrwt beam="2">  1       -2 0.43147740E+00 0.58801177E+04</pdfrwt>
<totfact> 0.48436961E-03</totfact>
</mgrwt>
</event>
<event>
 6    1  0.1817112E-005  0.6112333E+03  0.7818608E-02  0.9882371E-01
         -1   -1    0    0    0  501 -0.00000000000E+00  0.00000000000E+00  0.28420875472E+03  0.28420875472E+03  0.00000000000E+00 0.  1.
          1   -1    0    0  501    0  0.00000000000E+00 -0.00000000000E+00 -0.32863713668E+03  0.32863713668E+03  0.00000000000E+00 0. -1.
         23    2    1    2    0    0 -0.15553706837E+03  0.37806120161E+02  0.23093801455E+03  0.29433728133E+03  0.87641236047E+02 0.  0.
         13    1    3    3    0    0 -0.73325613250E+02  0.55937555404E+02  0.82765357688E+02  0.12391836061E+03  0.00000000000E+00 0.  1.
        -13    1    3    3    0    0 -0.82211455123E+02 -0.18131435243E+02  0.14817265686E+03  0.17041892072E+03  0.00000000000E+00 0. -1.
         22    1    1    2    0    0  0.15553706837E+03 -0.37806120161E+02 -0.27536639651E+03  0.31850861007E+03  0.00000000000E+00 0. -1.
<mgrwt>
<rscale>  0 0.61123335E+03</rscale>
<asrwt>0</asrwt>
<pdfrwt beam="1">  1        1 0.50559559E-01 0.61123335E+03</pdfrwt>
<pdfrwt beam="2">  1       -1 0.43724424E-01 0.61123335E+03</pdfrwt>
<totfact> 0.40712754E+02</totfact>
</mgrwt>
</event>
<event>
 6    1  0.1817112E-005  0.1141652E+04  0.7818608E-02  0.9165519E-01
         -2   -1    0    0    0  501 -0.00000000000E+00  0.00000000000E+00  0.28180817766E+03  0.28180817766E+03  0.00000000000E+00 0.  1.
          2   -1    0    0  501    0  0.00000000000E+00 -0.00000000000E+00 -0.11562563578E+04  0.11562563578E+04  0.00000000000E+00 0. -1.
         23    2    1    2    0    0 -0.23435307950E+03  0.14860005091E+03 -0.10631767729E+04  0.11024727853E+04  0.89989171730E+02 0.  0.
         13    1    3    3    0    0 -0.20630152810E+03  0.13523821652E+03 -0.79211470104E+03  0.82963570036E+03  0.00000000000E+00 0.  1.
        -13    1    3    3    0    0 -0.28051551405E+02  0.13361834396E+02 -0.27106207182E+03  0.27283708497E+03  0.00000000000E+00 0. -1.
         22    1    1    2    0    0  0.23435307950E+03 -0.14860005091E+03  0.18872859277E+03  0.33559175009E+03  0.00000000000E+00 0.  1.
<mgrwt>
<rscale>  0 0.11416523E+04</rscale>
<asrwt>0</asrwt>
<pdfrwt beam="1">  1        2 0.17788559E+00 0.11416523E+04</pdfrwt>
<pdfrwt beam="2">  1       -2 0.43355104E-01 0.11416523E+04</pdfrwt>
<totfact> 0.10049019E+02</totfact>
</mgrwt>
</event>
<event>
 6    1  0.1817112E-005  0.1128700E+04  0.7818608E-02  0.9177662E-01
          1   -1    0    0  501    0  0.00000000000E+00  0.00000000000E+00  0.34283660842E+04  0.34283660842E+04  0.00000000000E+00 0. -1.
         -1   -1    0    0    0  501 -0.00000000000E+00 -0.00000000000E+00 -0.92898688534E+02  0.92898688534E+02  0.00000000000E+00 0.  1.
         23    2    1    2    0    0  0.52074290253E+03 -0.84231217148E+02  0.10855009631E+04  0.12102872704E+04  0.90635906719E+02 0.  0.
         13    1    3    3    0    0  0.18669680489E+03 -0.50255929435E+02  0.31195562896E+03  0.36701181158E+03  0.00000000000E+00 0.  1.
        -13    1    3    3    0    0  0.33404609765E+03 -0.33975287712E+02  0.77354533412E+03  0.84327545883E+03  0.00000000000E+00 0. -1.
         22    1    1    2    0    0 -0.52074290253E+03  0.84231217148E+02  0.22499664325E+04  0.23109775023E+04  0.00000000000E+00 0.  1.
<mgrwt>
<rscale>  0 0.11286996E+04</rscale>
<asrwt>0</asrwt>
<pdfrwt beam="1">  1        1 0.52744084E+00 0.11286996E+04</pdfrwt>
<pdfrwt beam="2">  1       -1 0.14292109E-01 0.11286996E+04</pdfrwt>
<totfact> 0.10321828E+01</totfact>
</mgrwt>
</event>
<event>
 6    1  0.1817112E-005  0.3202809E+04  0.7818608E-02  0.8188076E-01
         -2   -1    0    0    0  501 -0.00000000000E+00  0.00000000000E+00  0.98339459715E+03  0.98339459715E+03  0.00000000000E+00 0.  1.
          2   -1    0    0  501    0  0.00000000000E+00 -0.00000000000E+00 -0.26077992666E+04  0.26077992666E+04  0.00000000000E+00 0. -1.
         23    2    1    2    0    0  0.78131874163E+03 -0.68393062475E+03 -0.21779046310E+04  0.24145111185E+04  0.91516580802E+02 0.  0.
         13    1    3    3    0    0  0.35555872459E+03 -0.25138247828E+03 -0.91643276925E+03  0.10146251414E+04  0.00000000000E+00 0. -1.
        -13    1    3    3    0    0  0.42576001704E+03 -0.43254814647E+03 -0.12614718617E+04  0.13998859771E+04  0.00000000000E+00 0.  1.
         22    1    1    2    0    0 -0.78131874163E+03  0.68393062475E+03  0.55349996150E+03  0.11766827452E+04  0.00000000000E+00 0.  1.
<mgrwt>
<rscale>  0 0.32028086E+04</rscale>
<asrwt>0</asrwt>
<pdfrwt beam="1">  1        2 0.40119989E+00 0.32028086E+04</pdfrwt>
<pdfrwt beam="2">  1       -2 0.15129148E+00 0.32028086E+04</pdfrwt>
<totfact> 0.74223540E-01</totfact>
</mgrwt>
</event>
<event>
 6    1  0.1817112E-005  0.4486886E+04  0.7818608E-02  0.7912937E-01
          2   -1    0    0  501    0  0.00000000000E+00  0.00000000000E+00  0.43959930235E+04  0.43959930235E+04  0.00000000000E+00 0. -1.
         -2   -1    0    0    0  501 -0.00000000000E+00 -0.00000000000E+00 -0.11449144115E+04  0.11449144115E+04  0.00000000000E+00 0.  1.
         23    2    1    2    0    0 -0.13331401372E+04  0.11063966709E+04 -0.13226079403E+03  0.17398073633E+04  0.89780425522E+02 0.  0.
         11    1    3    3    0    0 -0.31825013674E+03  0.31135028813E+03 -0.48709610806E+02  0.44787808346E+03  0.00000000000E+00 0.  1.
        -11    1    3    3    0    0 -0.10148900005E+04  0.79504638278E+03 -0.83551183229E+02  0.12919292798E+04  0.00000000000E+00 0. -1.
         22    1    1    2    0    0  0.13331401372E+04 -0.11063966709E+04  0.33833394061E+04  0.38011000718E+04  0.00000000000E+00 0. -1.
<mgrwt>
<rscale>  0 0.44868857E+04</rscale>
<asrwt>0</asrwt>
<pdfrwt beam="1">  1        2 0.67630661E+00 0.44868857E+04</pdfrwt>
<pdfrwt beam="2">  1       -2 0.17614068E+00 0.44868857E+04</pdfrwt>
<totfact> 0.22481570E-02</totfact>
</mgrwt>
</event>
<event>
 6    1  0.1817112E-005  0.3096845E+04  0.7818608E-02  0.8216604E-01
          2   -1    0    0  501    0  0.00000000000E+00  0.00000000000E+00  0.17036214090E+04  0.17036214090E+04  0.00000000000E+00 0.  1.
         -2   -1    0    0    0  501 -0.00000000000E+00 -0.00000000000E+00 -0.14073621568E+04  0.14073621568E+04  0.00000000000E+00 0. -1.
         23    2    1    2    0    0 -0.94065484244E+03  0.63020028509E+03 -0.91104479002E+03  0.14558198330E+04  0.86167538818E+02 0.  0.
         13    1    3    3    0    0 -0.81211571546E+03  0.54767191493E+03 -0.74857488366E+03  0.12328182421E+04  0.00000000000E+00 0. -1.
        -13    1    3    3    0    0 -0.12853912697E+03  0.82528370163E+02 -0.16246990636E+03  0.22300159084E+03  0.00000000000E+00 0.  1.
         22    1    1    2    0    0  0.94065484244E+03 -0.63020028509E+03  0.12073040423E+04  0.16551637328E+04  0.00000000000E+00 0. -1.
<mgrwt>
<rscale>  0 0.30968450E+04</rscale>
<asrwt>0</asrwt>
<pdfrwt beam="1">  1        2 0.26209560E+00 0.30968450E+04</pdfrwt>
<pdfrwt beam="2">  1       -2 0.21651726E+00 0.30968450E+04</pdfrwt>
<totfact> 0.86226060E-01</totfact>
</mgrwt>
</event>
<event>
 6    1  0.1817112E-005  0.4816416E+04  0.7818608E-02  0.7857468E-01
         -2   -1    0    0    0  501 -0.00000000000E+00  0.00000000000E+00  0.24536688567E+04  0.24536688567E+04  0.00000000000E+00 0.  1.
          2   -1    0    0  501    0  0.00000000000E+00 -0.00000000000E+00 -0.23635894540E+04  0.23635894540E+04  0.00000000000E+00 0. -1.
         23    2    1    2    0    0  0.10574331860E+04  0.21533458832E+04 -0.15550415421E+03  0.24057495052E+04  0.91573491553E+02 0.  0.
         11    1    3    3    0    0  0.47066109589E+03  0.10141561495E+04 -0.11106403704E+03  0.11235523054E+04  0.00000000000E+00 0. -1.
        -11    1    3    3    0    0  0.58677209008E+03  0.11391897337E+04 -0.44440117170E+02  0.12821971998E+04  0.00000000000E+00 0.  1.
         22    1    1    2    0    0 -0.10574331860E+04 -0.21533458832E+04  0.24558355689E+03  0.24115088055E+04  0.00000000000E+00 0.  1.
<mgrwt>
<rscale>  0 0.48164160E+04</rscale>
<asrwt>0</asrwt>
<pdfrwt beam="1">  1        2 0.36362915E+00 0.48164160E+04</pdfrwt>
<pdfrwt beam="2">  1       -2 0.37748752E+00 0.48164160E+04</pdfrwt>
<totfact> 0.32028419E-02</totfact>
</mgrwt>
</event>
<event>
 6    1  0.1817112E-005  0.3354830E+04  0.7818608E-02  0.8149082E-01
          2   -1    0    0  501    0  0.00000000000E+00  0.00000000000E+00  0.14033685026E+04  0.14033685026E+04  0.00000000000E+00 0. -1.
         -2   -1    0    0    0  501 -0.00000000000E+00 -0.00000000000E+00 -0.20049762244E+04  0.20049762244E+04  0.00000000000E+00 0.  1.
         23    2    1    2    0    0 -0.55265798369E+02  0.11326320969E+04  0.95310594257E+03  0.14840151415E+04  0.89332115534E+02 0.  0.
         13    1    3    3    0    0 -0.46387651787E+02  0.27307279683E+03  0.25804506940E+03  0.37856019925E+03  0.00000000000E+00 0. -1.
        -13    1    3    3    0    0 -0.88781465819E+01  0.85955930010E+03  0.69506087316E+03  0.11054549422E+04  0.00000000000E+00 0.  1.
         22    1    1    2    0    0  0.55265798369E+02 -0.11326320969E+04 -0.15547136644E+04  0.19243295855E+04  0.00000000000E+00 0.  1.
<mgrwt>
<rscale>  0 0.33548296E+04</rscale>
<asrwt>0</asrwt>
<pdfrwt beam="1">  1        2 0.21590285E+00 0.33548296E+04</pdfrwt>
<pdfrwt beam="2">  1       -2 0.30845788E+00 0.33548296E+04</pdfrwt>
<totfact> 0.33780212E-01</totfact>
</mgrwt>
</event>
<event>
 6    1  0.1817112E-005  0.2924908E+04  0.7818608E-02  0.8265505E-01
          2   -1    0    0  501    0  0.00000000000E+00  0.00000000000E+00  0.16432506111E+04  0.16432506111E+04  0.00000000000E+00 0. -1.
         -2   -1    0    0    0  501 -0.00000000000E+00 -0.00000000000E+00 -0.13015496871E+04  0.13015496871E+04  0.00000000000E+00 0.  1.
         23    2    1    2    0    0  0.81097284746E+03  0.92773450635E+03  0.96141787092E+03  0.15655188303E+04  0.90313962948E+02 0.  0.
         13    1    3    3    0    0  0.29639172642E+03  0.39198075224E+03  0.34847936855E+03  0.60244073229E+03  0.00000000000E+00 0. -1.
        -13    1    3    3    0    0  0.51458112104E+03  0.53575375410E+03  0.61293850238E+03  0.96307809801E+03  0.00000000000E+00 0.  1.
         22    1    1    2    0    0 -0.81097284746E+03 -0.92773450635E+03 -0.61971694693E+03  0.13792814680E+04  0.00000000000E+00 0.  1.
<mgrwt>
<rscale>  0 0.29249084E+04</rscale>
<asrwt>0</asrwt>
<pdfrwt beam="1">  1        2 0.25280779E+00 0.29249084E+04</pdfrwt>
<pdfrwt beam="2">  1       -2 0.20023841E+00 0.29249084E+04</pdfrwt>
<totfact> 0.12040914E+00</totfact>
</mgrwt>
</event>
<event>
 6    1  0.1817112E-005  0.3218807E+04  0.7818608E-02  0.8183868E-01
         -2   -1    0    0    0  501 -0.00000000000E+00  0.00000000000E+00  0.13885606847E+04  0.13885606847E+04  0.00000000000E+00 0.  1.
          2   -1    0    0  501    0  0.00000000000E+00 -0.00000000000E+00 -0.18653700542E+04  0.18653700542E+04  0.00000000000E+00 0. -1.
         23    2    1    2    0    0 -0.55003138419E+03 -0.12715642432E+04 -0.10640766797E+04  0.17491739340E+04  0.89107368589E+02 0.  0.
         11    1    3    3    0    0 -0.31213629548E+03 -0.61057162321E+03 -0.53375947495E+03  0.86897983355E+03  0.00000000000E+00 0. -1.
        -11    1    3    3    0    0 -0.23789508871E+03 -0.66099261995E+03 -0.53031720472E+03  0.88019410046E+03  0.00000000000E+00 0.  1.
         22    1    1    2    0    0  0.55003138419E+03  0.12715642432E+04  0.58726731019E+03  0.15047568048E+04  0.00000000000E+00 0.  1.
<mgrwt>
<rscale>  0 0.32188069E+04</rscale>
<asrwt>0</asrwt>
<pdfrwt beam="1">  1        2 0.28698001E+00 0.32188069E+04</pdfrwt>
<pdfrwt beam="2">  1       -2 0.21362472E+00 0.32188069E+04</pdfrwt>
<totfact> 0.72429566E-01</totfact>
</mgrwt>
</event>
<event>
 6    1  0.1817112E-005  0.1646980E+04  0.7818608E-02  0.8792195E-01
          2   -1    0    0  501    0  0.00000000000E+00  0.00000000000E+00  0.12199733651E+04  0.12199733651E+04  0.00000000000E+00 0. -1.
         -2   -1    0    0    0  501 -0.00000000000E+00 -0.00000000000E+00 -0.55586083508E+03  0.55586083508E+03  0.00000000000E+00 0.  1.
         23    2    1    2    0    0 -0.46167990890E+03 -0.61696276418E+03  0.26531860665E+02  0.77568396117E+03  0.84795503005E+02 0.  0.
         13    1    3    3    0    0 -0.32128979049E+02 -0.32043288631E+02  0.20901518644E+02  0.49959154543E+02  0.00000000000E+00 0. -1.
        -13    1    3    3    0    0 -0.42955092985E+03 -0.58491947555E+03  0.56303420212E+01  0.72572480663E+03  0.00000000000E+00 0.  1.
         22    1    1    2    0    0  0.46167990890E+03  0.61696276418E+03  0.63758066935E+03  0.10001502390E+04  0.00000000000E+00 0. -1.
<mgrwt>
<rscale>  0 0.16469796E+04</rscale>
<asrwt>0</asrwt>
<pdfrwt beam="1">  1        2 0.18768821E+00 0.16469796E+04</pdfrwt>
<pdfrwt beam="2">  1       -2 0.85517052E-01 0.16469796E+04</pdfrwt>
<totfact> 0.20926874E+01</totfact>
</mgrwt>
</event>
<event>
 6    1  0.1817112E-005  0.2528114E+04  0.7818608E-02  0.8393038E-01
          1   -1    0    0  501    0  0.00000000000E+00  0.00000000000E+00  0.79305767793E+03  0.79305767793E+03  0.00000000000E+00 0. -1.
         -1   -1    0    0    0  501 -0.00000000000E+00 -0.00000000000E+00 -0.20147843318E+04  0.20147843318E+04  0.00000000000E+00 0.  1.
         23    2    1    2    0    0  0.59169824797E+03  0.36087368038E+03 -0.17835489897E+04  0.19156643554E+04  0.91576711484E+02 0.  0.
         13    1    3    3    0    0  0.17331842666E+03  0.62293627888E+02 -0.51486573600E+03  0.54681486740E+03  0.00000000000E+00 0. -1.
        -13    1    3    3    0    0  0.41837982131E+03  0.29858005249E+03 -0.12686832537E+04  0.13688494880E+04  0.00000000000E+00 0.  1.
         22    1    1    2    0    0 -0.59169824797E+03 -0.36087368038E+03  0.56182233583E+03  0.89217765432E+03  0.00000000000E+00 0. -1.
<mgrwt>
<rscale>  0 0.25281141E+04</rscale>
<asrwt>0</asrwt>
<pdfrwt beam="1">  1        1 0.12200888E+00 0.25281141E+04</pdfrwt>
<pdfrwt beam="2">  1       -1 0.30996682E+00 0.25281141E+04</pdfrwt>
<totfact> 0.56539949E-01</totfact>
</mgrwt>
</event>
<event>
 6    1  0.1817112E-005  0.4469438E+04  0.7818608E-02  0.7916009E-01
          1   -1    0    0  501    0  0.00000000000E+00  0.00000000000E+00  0.44199183020E+04  0.44199183020E+04  0.00000000000E+00 0. -1.
         -1   -1    0    0    0  501 -0.00000000000E+00 -0.00000000000E+00 -0.11298781805E+04  0.11298781805E+04  0.00000000000E+00 0.  1.
         23    2    1    2    0    0  0.17708697687E+04  0.39843265827E+03  0.32623428785E+04  0.37344465278E+04  0.92095011028E+02 0.  0.
         13    1    3    3    0    0  0.84564501149E+03  0.14354604633E+03  0.15520516604E+04  0.17732978626E+04  0.00000000000E+00 0.  1.
        -13    1    3    3    0    0  0.92522475722E+03  0.25488661195E+03  0.17102912181E+04  0.19611486652E+04  0.00000000000E+00 0. -1.
         22    1    1    2    0    0 -0.17708697687E+04 -0.39843265827E+03  0.27697243029E+02  0.18153499547E+04  0.00000000000E+00 0. -1.
<mgrwt>
<rscale>  0 0.44694381E+04</rscale>
<asrwt>0</asrwt>
<pdfrwt beam="1">  1        1 0.67998742E+00 0.44694381E+04</pdfrwt>
<pdfrwt beam="2">  1       -1 0.17382741E+00 0.44694381E+04</pdfrwt>
<totfact> 0.67054085E-03</totfact>
</mgrwt>
</event>
<event>
 6    1  0.1817112E-005  0.1210086E+04  0.7818608E-02  0.9104074E-01
          2   -1    0    0  501    0  0.00000000000E+00  0.00000000000E+00  0.38039648825E+03  0.38039648825E+03  0.00000000000E+00 0. -1.
         -2   -1    0    0    0  501 -0.00000000000E+00 -0.00000000000E+00 -0.96235697095E+03  0.96235697095E+03  0.00000000000E+00 0.  1.
         23    2    1    2    0    0  0.53379351986E+03 -0.12710687154E+03 -0.56544169253E+03  0.79378665777E+03  0.96339357317E+02 0.  0.
         11    1    3    3    0    0  0.25123725385E+03 -0.10644853507E+03 -0.30050274653E+03  0.40589820030E+03  0.00000000000E+00 0. -1.
        -11    1    3    3    0    0  0.28255626601E+03 -0.20658336475E+02 -0.26493894600E+03  0.38788845747E+03  0.00000000000E+00 0.  1.
         22    1    1    2    0    0 -0.53379351986E+03  0.12710687154E+03 -0.16518790180E+02  0.54896680143E+03  0.00000000000E+00 0.  1.
<mgrwt>
<rscale>  0 0.12100863E+04</rscale>
<asrwt>0</asrwt>
<pdfrwt beam="1">  1        2 0.58522537E-01 0.12100863E+04</pdfrwt>
<pdfrwt beam="2">  1       -2 0.14805492E+00 0.12100863E+04</pdfrwt>
<totfact> 0.25712007E+01</totfact>
</mgrwt>
</event>
<event>
 6    1  0.1817112E-005  0.2781490E+04  0.7818608E-02  0.8309038E-01
         -1   -1    0    0    0  501 -0.00000000000E+00  0.00000000000E+00  0.12431757084E+04  0.12431757084E+04  0.00000000000E+00 0.  1.
          1   -1    0    0  501    0  0.00000000000E+00 -0.00000000000E+00 -0.15558314410E+04  0.15558314410E+04  0.00000000000E+00 0. -1.
         23    2    1    2    0    0 -0.94375375137E+03  0.19415942402E+03 -0.11636003873E+04  0.15135205371E+04  0.91703487273E+02 0.  0.
         13    1    3    3    0    0 -0.81813846163E+03  0.13903136617E+03 -0.10196563396E+04  0.13146784071E+04  0.00000000000E+00 0. -1.
        -13    1    3    3    0    0 -0.12561528974E+03  0.55128057856E+02 -0.14394404774E+03  0.19884212999E+03  0.00000000000E+00 0.  1.
         22    1    1    2    0    0  0.94375375137E+03 -0.19415942402E+03  0.85094465473E+03  0.12854866124E+04  0.00000000000E+00 0.  1.
<mgrwt>
<rscale>  0 0.27814901E+04</rscale>
<asrwt>0</asrwt>
<pdfrwt beam="1">  1        1 0.23935868E+00 0.27814901E+04</pdfrwt>
<pdfrwt beam="2">  1       -1 0.19125780E+00 0.27814901E+04</pdfrwt>
<totfact> 0.89858200E-01</totfact>
</mgrwt>
</event>
<event>
 6    1  0.1817112E-005  0.2623704E+04  0.7818608E-02  0.8360194E-01
          2   -1    0    0  501    0  0.00000000000E+00  0.00000000000E+00  0.38097701129E+04  0.38097701129E+04  0.00000000000E+00 0.  1.
         -2   -1    0    0    0  501 -0.00000000000E+00 -0.00000000000E+00 -0.45172163202E+03  0.45172163202E+03  0.00000000000E+00 0. -1.
         23    2    1    2    0    0 -0.33621543376E+03  0.10730156447E+04  0.58866835795E+03  0.12725337899E+04  0.91697433078E+02 0.  0.
         11    1    3    3    0    0 -0.11221629668E+03  0.30684876711E+03  0.21534883970E+03  0.39131034471E+03  0.00000000000E+00 0. -1.
        -11    1    3    3    0    0 -0.22399913708E+03  0.76616687755E+03  0.37331951826E+03  0.88122344520E+03  0.00000000000E+00 0.  1.
         22    1    1    2    0    0  0.33621543376E+03 -0.10730156447E+04  0.27693801229E+04  0.29889579550E+04  0.00000000000E+00 0.  1.
<mgrwt>
<rscale>  0 0.26237039E+04</rscale>
<asrwt>0</asrwt>
<pdfrwt beam="1">  1        2 0.58611846E+00 0.26237039E+04</pdfrwt>
<pdfrwt beam="2">  1       -2 0.69495638E-01 0.26237039E+04</pdfrwt>
<totfact> 0.80608286E-01</totfact>
</mgrwt>
</event>
<event>
 6    1  0.1817112E-005  0.4743748E+03  0.7818608E-02  0.1020693E+00
          2   -1    0    0  501    0  0.00000000000E+00  0.00000000000E+00  0.59930597484E+03  0.59930597484E+03  0.00000000000E+00 0. -1.
         -2   -1    0    0    0  501 -0.00000000000E+00 -0.00000000000E+00 -0.93871673597E+02  0.93871673597E+02  0.00000000000E+00 0.  1.
         23    2    1    2    0    0  0.21604300430E+03 -0.59820750102E+02  0.32616435160E+03  0.40613964278E+03  0.91176330994E+02 0.  0.
         11    1    3    3    0    0  0.20493006968E+03 -0.32968471249E+02  0.25195120812E+03  0.32643937389E+03  0.00000000000E+00 0.  1.
        -11    1    3    3    0    0  0.11112934620E+02 -0.26852278853E+02  0.74213143477E+02  0.79700268884E+02  0.00000000000E+00 0. -1.
         22    1    1    2    0    0 -0.21604300430E+03  0.59820750102E+02  0.17926994965E+03  0.28703800566E+03  0.00000000000E+00 0.  1.
<mgrwt>
<rscale>  0 0.47437477E+03</rscale>
<asrwt>0</asrwt>
<pdfrwt beam="1">  1        2 0.92200917E-01 0.47437477E+03</pdfrwt>
<pdfrwt beam="2">  1       -2 0.14441796E-01 0.47437477E+03</pdfrwt>
<totfact> 0.18513406E+03</totfact>
</mgrwt>
</event>
<event>
 6    1  0.1817112E-005  0.2195661E+04  0.7818608E-02  0.8520236E-01
          2   -1    0    0  501    0  0.00000000000E+00  0.00000000000E+00  0.96774639582E+03  0.96774639582E+03  0.00000000000E+00 0. -1.
         -2   -1    0    0    0  501 -0.00000000000E+00 -0.00000000000E+00 -0.12454008156E+04  0.12454008156E+04  0.00000000000E+00 0.  1.
         23    2    1    2    0    0  0.25672722689E+03 -0.96513325457E+03  0.31575098751E+03  0.10514583350E+04  0.92059090324E+02 0.  0.
         11    1    3    3    0    0  0.25196748868E+03 -0.85537846511E+03  0.26368587626E+03  0.92988718416E+03  0.00000000000E+00 0. -1.
        -11    1    3    3    0    0  0.47597382102E+01 -0.10975478946E+03  0.52065111250E+02  0.12157115088E+03  0.00000000000E+00 0.  1.
         22    1    1    2    0    0 -0.25672722689E+03  0.96513325457E+03 -0.59340540730E+03  0.11616888764E+04  0.00000000000E+00 0.  1.
<mgrwt>
<rscale>  0 0.21956613E+04</rscale>
<asrwt>0</asrwt>
<pdfrwt beam="1">  1        2 0.14888406E+00 0.21956613E+04</pdfrwt>
<pdfrwt beam="2">  1       -2 0.19160013E+00 0.21956613E+04</pdfrwt>
<totfact> 0.36536987E+00</totfact>
</mgrwt>
</event>
<event>
 6    1  0.1817112E-005  0.4438862E+04  0.7818608E-02  0.7921429E-01
          2   -1    0    0  501    0  0.00000000000E+00  0.00000000000E+00  0.32956789411E+04  0.32956789411E+04  0.00000000000E+00 0. -1.
         -2   -1    0    0    0  501 -0.00000000000E+00 -0.00000000000E+00 -0.14946459364E+04  0.14946459364E+04  0.00000000000E+00 0.  1.
         23    2    1    2    0    0 -0.13635019168E+04  0.77416435297E+03  0.25946259835E+04  0.30329809332E+04  0.91768318348E+02 0.  0.
         13    1    3    3    0    0 -0.32846949895E+03  0.17419403577E+03  0.68984984015E+03  0.78366356033E+03  0.00000000000E+00 0.  1.
        -13    1    3    3    0    0 -0.10350324178E+04  0.59997031720E+03  0.19047761434E+04  0.22493173729E+04  0.00000000000E+00 0. -1.
         22    1    1    2    0    0  0.13635019168E+04 -0.77416435297E+03 -0.79359297889E+03  0.17573439443E+04  0.00000000000E+00 0.  1.
<mgrwt>
<rscale>  0 0.44388616E+04</rscale>
<asrwt>0</asrwt>
<pdfrwt beam="1">  1        2 0.50702753E+00 0.44388616E+04</pdfrwt>
<pdfrwt beam="2">  1       -2 0.22994553E+00 0.44388616E+04</pdfrwt>
<totfact> 0.72965771E-02</totfact>
</mgrwt>
</event>
<event>
 6    1  0.1817112E-005  0.1065827E+04  0.7818608E-02  0.9239155E-01
         -2   -1    0    0    0  501 -0.00000000000E+00  0.00000000000E+00  0.14773758070E+03  0.14773758070E+03  0.00000000000E+00 0.  1.
          2   -1    0    0  501    0  0.00000000000E+00 -0.00000000000E+00 -0.19223045124E+04  0.19223045124E+04  0.00000000000E+00 0. -1.
         23    2    1    2    0    0  0.51342297635E+03 -0.78591246755E+02 -0.70197872232E+03  0.87831007473E+03  0.94205753955E+02 0.  0.
         13    1    3    3    0    0  0.24309701513E+03 -0.68147481614E+01 -0.38705863829E+03  0.45711813466E+03  0.00000000000E+00 0.  1.
        -13    1    3    3    0    0  0.27032596122E+03 -0.71776498594E+02 -0.31492008403E+03  0.42119194007E+03  0.00000000000E+00 0. -1.
         22    1    1    2    0    0 -0.51342297635E+03  0.78591246755E+02 -0.10725882094E+04  0.11917320184E+04  0.00000000000E+00 0. -1.
<mgrwt>
<rscale>  0 0.10658267E+04</rscale>
<asrwt>0</asrwt>
<pdfrwt beam="1">  1        2 0.29573912E+00 0.10658267E+04</pdfrwt>
<pdfrwt beam="2">  1       -2 0.22728861E-01 0.10658267E+04</pdfrwt>
<totfact> 0.12528544E+02</totfact>
</mgrwt>
</event>
<event>
 6    1  0.1817112E-005  0.2033903E+04  0.7818608E-02  0.8590932E-01
          4   -1    0    0  501    0  0.00000000000E+00  0.00000000000E+00  0.13517734414E+04  0.13517734414E+04  0.00000000000E+00 0. -1.
         -4   -1    0    0    0  501 -0.00000000000E+00 -0.00000000000E+00 -0.76506185627E+03  0.76506185627E+03  0.00000000000E+00 0.  1.
         23    2    1    2    0    0 -0.64156324008E+03 -0.52258516260E+03 -0.31766237842E+03  0.89103314838E+03  0.91280017839E+02 0.  0.
         11    1    3    3    0    0 -0.68625720716E+02 -0.75672691817E+02 -0.67965452802E+02  0.12269942382E+03  0.00000000000E+00 0. -1.
        -11    1    3    3    0    0 -0.57293751937E+03 -0.44691247079E+03 -0.24969692562E+03  0.76833372457E+03  0.00000000000E+00 0.  1.
         22    1    1    2    0    0  0.64156324008E+03  0.52258516260E+03  0.90437396351E+03  0.12258021492E+04  0.00000000000E+00 0. -1.
<mgrwt>
<rscale>  0 0.20339029E+04</rscale>
<asrwt>0</asrwt>
<pdfrwt beam="1">  1        4 0.20796514E+00 0.20339029E+04</pdfrwt>
<pdfrwt beam="2">  1       -4 0.11770182E+00 0.20339029E+04</pdfrwt>
<totfact> 0.12008311E-01</totfact>
</mgrwt>
</event>
<event>
 6    1  0.1817112E-005  0.1516420E+04  0.7818608E-02  0.8873606E-01
         -1   -1    0    0    0  501 -0.00000000000E+00  0.00000000000E+00  0.51422579861E+03  0.51422579861E+03  0.00000000000E+00 0.  1.
          1   -1    0    0  501    0  0.00000000000E+00 -0.00000000000E+00 -0.11179576082E+04  0.11179576082E+04  0.00000000000E+00 0. -1.
         23    2    1    2    0    0 -0.18907441504E+03  0.16430728046E+03 -0.10700687971E+04  0.11028288916E+04  0.91860311041E+02 0.  0.
         11    1    3    3    0    0 -0.13866675149E+03  0.82668134991E+02 -0.52096146911E+03  0.54540199927E+03  0.00000000000E+00 0.  1.
        -11    1    3    3    0    0 -0.50407663547E+02  0.81639145468E+02 -0.54910732802E+03  0.55742689233E+03  0.00000000000E+00 0. -1.
         22    1    1    2    0    0  0.18907441504E+03 -0.16430728046E+03  0.46633698753E+03  0.52935451521E+03  0.00000000000E+00 0.  1.
<mgrwt>
<rscale>  0 0.15164203E+04</rscale>
<asrwt>0</asrwt>
<pdfrwt beam="1">  1        1 0.17199348E+00 0.15164203E+04</pdfrwt>
<pdfrwt beam="2">  1       -1 0.79111662E-01 0.15164203E+04</pdfrwt>
<totfact> 0.18969900E+01</totfact>
</mgrwt>
</event>
<event>
 6    1  0.1817112E-005  0.2063747E+04  0.7818608E-02  0.8577383E-01
          2   -1    0    0  501    0  0.00000000000E+00  0.00000000000E+00  0.12140858340E+04  0.12140858340E+04  0.00000000000E+00 0.  1.
         -2   -1    0    0    0  501 -0.00000000000E+00 -0.00000000000E+00 -0.87700778960E+03  0.87700778960E+03  0.00000000000E+00 0. -1.
         23    2    1    2    0    0  0.54074235003E+03  0.77133939487E+03 -0.25301283977E+03  0.97952985900E+03  0.89980533433E+02 0.  0.
         11    1    3    3    0    0  0.27668536478E+03  0.33057343623E+03 -0.88981376544E+02  0.44017186779E+03  0.00000000000E+00 0. -1.
        -11    1    3    3    0    0  0.26405698525E+03  0.44076595864E+03 -0.16403146322E+03  0.53935799121E+03  0.00000000000E+00 0.  1.
         22    1    1    2    0    0 -0.54074235003E+03 -0.77133939487E+03  0.59009088416E+03  0.11115637646E+04  0.00000000000E+00 0.  1.
<mgrwt>
<rscale>  0 0.20637468E+04</rscale>
<asrwt>0</asrwt>
<pdfrwt beam="1">  1        2 0.18678244E+00 0.20637468E+04</pdfrwt>
<pdfrwt beam="2">  1       -2 0.13492428E+00 0.20637468E+04</pdfrwt>
<totfact> 0.67846424E+00</totfact>
</mgrwt>
</event>
<event>
 6    1  0.1817112E-005  0.2458266E+04  0.7818608E-02  0.8418006E-01
          2   -1    0    0  501    0  0.00000000000E+00  0.00000000000E+00  0.76533261316E+03  0.76533261316E+03  0.00000000000E+00 0.  1.
         -2   -1    0    0    0  501 -0.00000000000E+00 -0.00000000000E+00 -0.19740014271E+04  0.19740014271E+04  0.00000000000E+00 0. -1.
         23    2    1    2    0    0  0.40951505607E+03  0.11499336499E+04 -0.74906921004E+03  0.14350021131E+04  0.89868809567E+02 0.  0.
         11    1    3    3    0    0  0.77131201072E+02  0.22833313010E+03 -0.19084716878E+03  0.30742134329E+03  0.00000000000E+00 0.  1.
        -11    1    3    3    0    0  0.33238385500E+03  0.92160051977E+03 -0.55822204126E+03  0.11275807698E+04  0.00000000000E+00 0. -1.
         22    1    1    2    0    0 -0.40951505607E+03 -0.11499336499E+04 -0.45959960389E+03  0.13043319271E+04  0.00000000000E+00 0.  1.
<mgrwt>
<rscale>  0 0.24582658E+04</rscale>
<asrwt>0</asrwt>
<pdfrwt beam="1">  1        2 0.11774348E+00 0.24582658E+04</pdfrwt>
<pdfrwt beam="2">  1       -2 0.30369253E+00 0.24582658E+04</pdfrwt>
<totfact> 0.98638056E-01</totfact>
</mgrwt>
</event>
<event>
 6    1  0.1817112E-005  0.2428200E+04  0.7818608E-02  0.8429021E-01
          2   -1    0    0  501    0  0.00000000000E+00  0.00000000000E+00  0.13258413329E+04  0.13258413329E+04  0.00000000000E+00 0. -1.
         -2   -1    0    0    0  501 -0.00000000000E+00 -0.00000000000E+00 -0.11117765692E+04  0.11117765692E+04  0.00000000000E+00 0.  1.
         23    2    1    2    0    0 -0.10195533031E+03 -0.10293449849E+04  0.74209058250E+03  0.12762578147E+04  0.90496350939E+02 0.  0.
         13    1    3    3    0    0 -0.38929103013E+02 -0.42367725554E+03  0.25111382122E+03  0.49404052782E+03  0.00000000000E+00 0.  1.
        -13    1    3    3    0    0 -0.63026227302E+02 -0.60566772939E+03  0.49097676128E+03  0.78221728687E+03  0.00000000000E+00 0. -1.
         22    1    1    2    0    0  0.10195533031E+03  0.10293449849E+04 -0.52802581880E+03  0.11613600874E+04  0.00000000000E+00 0.  1.
<mgrwt>
<rscale>  0 0.24282004E+04</rscale>
<asrwt>0</asrwt>
<pdfrwt beam="1">  1        2 0.20397559E+00 0.24282004E+04</pdfrwt>
<pdfrwt beam="2">  1       -2 0.17104255E+00 0.24282004E+04</pdfrwt>
<totfact> 0.30020088E+00</totfact>
</mgrwt>
</event>
<event>
 6    1  0.1817112E-005  0.1262135E+04  0.7818608E-02  0.9060144E-01
          2   -1    0    0  501    0  0.00000000000E+00  0.00000000000E+00  0.69166375696E+03  0.69166375696E+03  0.00000000000E+00 0. -1.
         -2   -1    0    0    0  501 -0.00000000000E+00 -0.00000000000E+00 -0.57577983004E+03  0.57577983004E+03  0.00000000000E+00 0.  1.
         23    2    1    2    0    0  0.30857774938E+03  0.68715916470E+02 -0.48610446721E+03  0.58749349231E+03  0.94387212492E+02 0.  0.
         11    1    3    3    0    0  0.14622209181E+03  0.62128863902E+02 -0.30694306675E+03  0.34562254280E+03  0.00000000000E+00 0. -1.
        -11    1    3    3    0    0  0.16235565757E+03  0.65870525683E+01 -0.17916140046E+03  0.24187094951E+03  0.00000000000E+00 0.  1.
         22    1    1    2    0    0 -0.30857774938E+03 -0.68715916470E+02  0.60198839413E+03  0.67995009468E+03  0.00000000000E+00 0. -1.
<mgrwt>
<rscale>  0 0.12621348E+04</rscale>
<asrwt>0</asrwt>
<pdfrwt beam="1">  1        2 0.10640981E+00 0.12621348E+04</pdfrwt>
<pdfrwt beam="2">  1       -2 0.88581512E-01 0.12621348E+04</pdfrwt>
<totfact> 0.44832323E+01</totfact>
</mgrwt>
</event>
<event>
 6    1  0.1817112E-005  0.5567010E+04  0.7818608E-02  0.7746535E-01
          2   -1    0    0  501    0  0.00000000000E+00  0.00000000000E+00  0.38919058797E+04  0.38919058797E+04  0.00000000000E+00 0. -1.
         -2   -1    0    0    0  501 -0.00000000000E+00 -0.00000000000E+00 -0.19907730626E+04  0.19907730626E+04  0.00000000000E+00 0.  1.
         23    2    1    2    0    0 -0.92605220947E+03 -0.24467931888E+04 -0.51347077689E+02  0.26182421850E+04  0.90476591878E+02 0.  0.
         11    1    3    3    0    0 -0.89737809451E+03 -0.23152989632E+04 -0.51563974060E+02  0.24836577013E+04  0.00000000000E+00 0. -1.
        -11    1    3    3    0    0 -0.28674114960E+02 -0.13149422554E+03  0.21689637134E+00  0.13458448374E+03  0.00000000000E+00 0.  1.
         22    1    1    2    0    0  0.92605220947E+03  0.24467931888E+04  0.19524798947E+04  0.32644367573E+04  0.00000000000E+00 0. -1.
<mgrwt>
<rscale>  0 0.55670105E+04</rscale>
<asrwt>0</asrwt>
<pdfrwt beam="1">  1        2 0.59875475E+00 0.55670105E+04</pdfrwt>
<pdfrwt beam="2">  1       -2 0.30627278E+00 0.55670105E+04</pdfrwt>
<totfact> 0.84100531E-03</totfact>
</mgrwt>
</event>
<event>
 6    1  0.1817112E-005  0.4262496E+04  0.7818608E-02  0.7953590E-01
          2   -1    0    0  501    0  0.00000000000E+00  0.00000000000E+00  0.28088554524E+04  0.28088554524E+04  0.00000000000E+00 0. -1.
         -2   -1    0    0    0  501 -0.00000000000E+00 -0.00000000000E+00 -0.16171061643E+04  0.16171061643E+04  0.00000000000E+00 0.  1.
         23    2    1    2    0    0  0.15501080054E+04  0.12253467840E+04  0.14230220607E+04  0.24365404283E+04  0.86185290738E+02 0.  0.
         13    1    3    3    0    0  0.86550535551E+03  0.63822499562E+03  0.74519221212E+03  0.13083356215E+04  0.00000000000E+00 0.  1.
        -13    1    3    3    0    0  0.68460264986E+03  0.58712178837E+03  0.67782984855E+03  0.11282048068E+04  0.00000000000E+00 0. -1.
         22    1    1    2    0    0 -0.15501080054E+04 -0.12253467840E+04 -0.23127277256E+03  0.19894211884E+04  0.00000000000E+00 0. -1.
<mgrwt>
<rscale>  0 0.42624957E+04</rscale>
<asrwt>0</asrwt>
<pdfrwt beam="1">  1        2 0.43213161E+00 0.42624957E+04</pdfrwt>
<pdfrwt beam="2">  1       -2 0.24878556E+00 0.42624957E+04</pdfrwt>
<totfact> 0.11530311E-01</totfact>
</mgrwt>
</event>
<event>
 6    1  0.1817112E-005  0.1809202E+04  0.7818608E-02  0.8701421E-01
          2   -1    0    0  501    0  0.00000000000E+00  0.00000000000E+00  0.74734890168E+03  0.74734890168E+03  0.00000000000E+00 0. -1.
         -2   -1    0    0    0  501 -0.00000000000E+00 -0.00000000000E+00 -0.10949414131E+04  0.10949414131E+04  0.00000000000E+00 0.  1.
         23    2    1    2    0    0 -0.30447861288E+03  0.34307714536E+03 -0.96510871529E+03  0.10730469102E+04  0.97906515432E+02 0.  0.
         13    1    3    3    0    0 -0.55402742195E+02  0.15551923709E+02 -0.11543062920E+03  0.12897889878E+03  0.00000000000E+00 0.  1.
        -13    1    3    3    0    0 -0.24907587068E+03  0.32752522165E+03 -0.84967808609E+03  0.94406801140E+03  0.00000000000E+00 0. -1.
         22    1    1    2    0    0  0.30447861288E+03 -0.34307714536E+03  0.61751620391E+03  0.76924340456E+03  0.00000000000E+00 0. -1.
<mgrwt>
<rscale>  0 0.18092023E+04</rscale>
<asrwt>0</asrwt>
<pdfrwt beam="1">  1        2 0.11497675E+00 0.18092023E+04</pdfrwt>
<pdfrwt beam="2">  1       -2 0.16845253E+00 0.18092023E+04</pdfrwt>
<totfact> 0.77652728E+00</totfact>
</mgrwt>
</event>
<event>
 6    1  0.1817112E-005  0.3256822E+04  0.7818608E-02  0.8173970E-01
          2   -1    0    0  501    0  0.00000000000E+00  0.00000000000E+00  0.12640454292E+04  0.12640454292E+04  0.00000000000E+00 0. -1.
         -2   -1    0    0    0  501 -0.00000000000E+00 -0.00000000000E+00 -0.20978062446E+04  0.20978062446E+04  0.00000000000E+00 0.  1.
         23    2    1    2    0    0 -0.98400688903E+03 -0.12092332185E+04  0.64009219122E+02  0.15628226108E+04  0.88333450034E+02 0.  0.
         13    1    3    3    0    0 -0.46501956688E+03 -0.59849896453E+03  0.71864248061E+02  0.76132035194E+03  0.00000000000E+00 0. -1.
        -13    1    3    3    0    0 -0.51898732215E+03 -0.61073425399E+03 -0.78550289391E+01  0.80150225890E+03  0.00000000000E+00 0.  1.
         22    1    1    2    0    0  0.98400688903E+03  0.12092332185E+04 -0.89777003453E+03  0.17990290629E+04  0.00000000000E+00 0.  1.
<mgrwt>
<rscale>  0 0.32568220E+04</rscale>
<asrwt>0</asrwt>
<pdfrwt beam="1">  1        2 0.19446853E+00 0.32568220E+04</pdfrwt>
<pdfrwt beam="2">  1       -2 0.32273942E+00 0.32568220E+04</pdfrwt>
<totfact> 0.33485885E-01</totfact>
</mgrwt>
</event>
<event>
 6    1  0.1817112E-005  0.1632218E+04  0.7818608E-02  0.8800996E-01
          2   -1    0    0  501    0  0.00000000000E+00  0.00000000000E+00  0.16284258789E+04  0.16284258789E+04  0.00000000000E+00 0. -1.
         -2   -1    0    0    0  501 -0.00000000000E+00 -0.00000000000E+00 -0.40900454959E+03  0.40900454959E+03  0.00000000000E+00 0.  1.
         23    2    1    2    0    0 -0.61589361375E+03 -0.48353323152E+03  0.88743120276E+03  0.11869324723E+04  0.90250898264E+02 0.  0.
         11    1    3    3    0    0 -0.27173662492E+03 -0.17971316980E+03  0.31516120046E+03  0.45328158907E+03  0.00000000000E+00 0. -1.
        -11    1    3    3    0    0 -0.34415698883E+03 -0.30382006172E+03  0.57227000230E+03  0.73365088319E+03  0.00000000000E+00 0.  1.
         22    1    1    2    0    0  0.61589361375E+03  0.48353323152E+03  0.33199012657E+03  0.85049795625E+03  0.00000000000E+00 0.  1.
<mgrwt>
<rscale>  0 0.16322176E+04</rscale>
<asrwt>0</asrwt>
<pdfrwt beam="1">  1        2 0.25052706E+00 0.16322176E+04</pdfrwt>
<pdfrwt beam="2">  1       -2 0.62923778E-01 0.16322176E+04</pdfrwt>
<totfact> 0.24068001E+01</totfact>
</mgrwt>
</event>
<event>
 6    1  0.1817112E-005  0.3051368E+04  0.7818608E-02  0.8229213E-01
         -2   -1    0    0    0  501 -0.00000000000E+00  0.00000000000E+00  0.13584666525E+04  0.13584666525E+04  0.00000000000E+00 0.  1.
          2   -1    0    0  501    0  0.00000000000E+00 -0.00000000000E+00 -0.17134849131E+04  0.17134849131E+04  0.00000000000E+00 0. -1.
         23    2    1    2    0    0 -0.12485833597E+04 -0.43474622580E+03  0.58609359614E+03  0.14490972240E+04  0.91718995914E+02 0.  0.
         13    1    3    3    0    0 -0.31028572230E+03 -0.82218332311E+02  0.10888069142E+03  0.33895735513E+03  0.00000000000E+00 0. -1.
        -13    1    3    3    0    0 -0.93829763744E+03 -0.35252789348E+03  0.47721290472E+03  0.11101398689E+04  0.00000000000E+00 0.  1.
         22    1    1    2    0    0  0.12485833597E+04  0.43474622580E+03 -0.94111185671E+03  0.16228543416E+04  0.00000000000E+00 0. -1.
<mgrwt>
<rscale>  0 0.30513683E+04</rscale>
<asrwt>0</asrwt>
<pdfrwt beam="1">  1        2 0.26361306E+00 0.30513683E+04</pdfrwt>
<pdfrwt beam="2">  1       -2 0.20899487E+00 0.30513683E+04</pdfrwt>
<totfact> 0.95507596E-01</totfact>
</mgrwt>
</event>
<event>
 6    1  0.1817112E-005  0.2860674E+04  0.7818608E-02  0.8284675E-01
          2   -1    0    0  501    0  0.00000000000E+00  0.00000000000E+00  0.17962110656E+04  0.17962110656E+04  0.00000000000E+00 0. -1.
         -2   -1    0    0    0  501 -0.00000000000E+00 -0.00000000000E+00 -0.11389883205E+04  0.11389883205E+04  0.00000000000E+00 0.  1.
         23    2    1    2    0    0 -0.11602658269E+04  0.83399237134E+03  0.33299065395E+03  0.14699736310E+04  0.90441338582E+02 0.  0.
         11    1    3    3    0    0 -0.44229845742E+03  0.27005739711E+03  0.10063831341E+03  0.52790812960E+03  0.00000000000E+00 0.  1.
        -11    1    3    3    0    0 -0.71796736946E+03  0.56393497422E+03  0.23235234054E+03  0.94206550140E+03  0.00000000000E+00 0. -1.
         22    1    1    2    0    0  0.11602658269E+04 -0.83399237134E+03  0.32423209119E+03  0.14652257551E+04  0.00000000000E+00 0.  1.
<mgrwt>
<rscale>  0 0.28606736E+04</rscale>
<asrwt>0</asrwt>
<pdfrwt beam="1">  1        2 0.27634016E+00 0.28606736E+04</pdfrwt>
<pdfrwt beam="2">  1       -2 0.17522897E+00 0.28606736E+04</pdfrwt>
<totfact> 0.14698163E+00</totfact>
</mgrwt>
</event>
<event>
 6    1  0.1817112E-005  0.2243506E+04  0.7818608E-02  0.8500535E-01
         -2   -1    0    0    0  501 -0.00000000000E+00  0.00000000000E+00  0.39254978067E+03  0.39254978067E+03  0.00000000000E+00 0.  1.
          2   -1    0    0  501    0  0.00000000000E+00 -0.00000000000E+00 -0.32055303520E+04  0.32055303520E+04  0.00000000000E+00 0. -1.
         23    2    1    2    0    0 -0.10536412180E+04  0.32098617063E+03 -0.10840451627E+04  0.15481021852E+04  0.90964405623E+02 0.  0.
         11    1    3    3    0    0 -0.73463959169E+03  0.23775678581E+03 -0.81366628720E+03  0.11217292212E+04  0.00000000000E+00 0. -1.
        -11    1    3    3    0    0 -0.31900162627E+03  0.83229384816E+02 -0.27037887547E+03  0.42637296391E+03  0.00000000000E+00 0.  1.
         22    1    1    2    0    0  0.10536412180E+04 -0.32098617063E+03 -0.17289354087E+04  0.20499779475E+04  0.00000000000E+00 0. -1.
<mgrwt>
<rscale>  0 0.22435064E+04</rscale>
<asrwt>0</asrwt>
<pdfrwt beam="1">  1        2 0.49315852E+00 0.22435064E+04</pdfrwt>
<pdfrwt beam="2">  1       -2 0.60392274E-01 0.22435064E+04</pdfrwt>
<totfact> 0.29972439E+00</totfact>
</mgrwt>
</event>
<event>
 6    1  0.1817112E-005  0.1322371E+04  0.7818608E-02  0.9012011E-01
          2   -1    0    0  501    0  0.00000000000E+00  0.00000000000E+00  0.16714542720E+04  0.16714542720E+04  0.00000000000E+00 0. -1.
         -2   -1    0    0    0  501 -0.00000000000E+00 -0.00000000000E+00 -0.26154839454E+03  0.26154839454E+03  0.00000000000E+00 0.  1.
         23    2    1    2    0    0  0.25206678975E+03 -0.16498226201E+03  0.15635246950E+04  0.15948376856E+04  0.90227257646E+02 0.  0.
         11    1    3    3    0    0  0.21118033418E+03 -0.15635914776E+03  0.11722997958E+04  0.12013875844E+04  0.00000000000E+00 0. -1.
        -11    1    3    3    0    0  0.40886455570E+02 -0.86231142454E+01  0.39122489922E+03  0.39345010118E+03  0.00000000000E+00 0.  1.
         22    1    1    2    0    0 -0.25206678975E+03  0.16498226201E+03 -0.15361881756E+03  0.33816498101E+03  0.00000000000E+00 0.  1.
<mgrwt>
<rscale>  0 0.13223709E+04</rscale>
<asrwt>0</asrwt>
<pdfrwt beam="1">  1        2 0.25714680E+00 0.13223709E+04</pdfrwt>
<pdfrwt beam="2">  1       -2 0.40238216E-01 0.13223709E+04</pdfrwt>
<totfact> 0.58186812E+01</totfact>
</mgrwt>
</event>
<event>
 6    1  0.1817112E-005  0.2191984E+04  0.7818608E-02  0.8521772E-01
          2   -1    0    0  501    0  0.00000000000E+00  0.00000000000E+00  0.67513350972E+03  0.67513350972E+03  0.00000000000E+00 0. -1.
         -2   -1    0    0    0  501 -0.00000000000E+00 -0.00000000000E+00 -0.17792020933E+04  0.17792020933E+04  0.00000000000E+00 0.  1.
         23    2    1    2    0    0 -0.82151608211E+03  0.72239344367E+03 -0.54213864400E+03  0.12244956875E+04  0.93458112928E+02 0.  0.
         11    1    3    3    0    0 -0.30533424039E+03  0.22782861874E+03 -0.15267892283E+03  0.41042140703E+03  0.00000000000E+00 0.  1.
        -11    1    3    3    0    0 -0.51618184172E+03  0.49456482493E+03 -0.38945972118E+03  0.81407428052E+03  0.00000000000E+00 0. -1.
         22    1    1    2    0    0  0.82151608211E+03 -0.72239344367E+03 -0.56192993954E+03  0.12298399154E+04  0.00000000000E+00 0. -1.
<mgrwt>
<rscale>  0 0.21919844E+04</rscale>
<asrwt>0</asrwt>
<pdfrwt beam="1">  1        2 0.10386670E+00 0.21919844E+04</pdfrwt>
<pdfrwt beam="2">  1       -2 0.27372339E+00 0.21919844E+04</pdfrwt>
<totfact> 0.18043339E+00</totfact>
</mgrwt>
</event>
<event>
 6    1  0.1817112E-005  0.1460743E+04  0.7818608E-02  0.8910986E-01
         -2   -1    0    0    0  501 -0.00000000000E+00  0.00000000000E+00  0.31106228005E+03  0.31106228005E+03  0.00000000000E+00 0. -1.
          2   -1    0    0  501    0  0.00000000000E+00 -0.00000000000E+00 -0.17149054829E+04  0.17149054829E+04  0.00000000000E+00 0.  1.
         23    2    1    2    0    0 -0.11671915283E+03 -0.57417554935E+03 -0.13028109372E+04  0.14314020048E+04  0.91073811713E+02 0.  0.
         11    1    3    3    0    0 -0.70103665218E+02 -0.22574695552E+03 -0.43463243875E+03  0.49475404861E+03  0.00000000000E+00 0.  1.
        -11    1    3    3    0    0 -0.46615487610E+02 -0.34842859383E+03 -0.86817849840E+03  0.93664795615E+03  0.00000000000E+00 0. -1.
         22    1    1    2    0    0  0.11671915283E+03  0.57417554935E+03 -0.10103226570E+03  0.59456575819E+03  0.00000000000E+00 0. -1.
<mgrwt>
<rscale>  0 0.14607428E+04</rscale>
<asrwt>0</asrwt>
<pdfrwt beam="1">  1        2 0.26383161E+00 0.14607428E+04</pdfrwt>
<pdfrwt beam="2">  1       -2 0.47855735E-01 0.14607428E+04</pdfrwt>
<totfact> 0.38568222E+01</totfact>
</mgrwt>
</event>
<event>
 6    1  0.1817112E-005  0.2323102E+04  0.7818608E-02  0.8468868E-01
          2   -1    0    0  501    0  0.00000000000E+00  0.00000000000E+00  0.81445123574E+03  0.81445123574E+03  0.00000000000E+00 0. -1.
         -2   -1    0    0    0  501 -0.00000000000E+00 -0.00000000000E+00 -0.16565766220E+04  0.16565766220E+04  0.00000000000E+00 0.  1.
         23    2    1    2    0    0 -0.84604227536E+03  0.79058844263E+03 -0.35882934560E+03  0.12162798033E+04  0.98794955593E+02 0.  0.
         13    1    3    3    0    0 -0.41277633840E+03  0.45286595736E+03 -0.18387018858E+03  0.63975005051E+03  0.00000000000E+00 0. -1.
        -13    1    3    3    0    0 -0.43326593696E+03  0.33772248527E+03 -0.17495915702E+03  0.57652975276E+03  0.00000000000E+00 0.  1.
         22    1    1    2    0    0  0.84604227536E+03 -0.79058844263E+03 -0.48329604070E+03  0.12547480545E+04  0.00000000000E+00 0.  1.
<mgrwt>
<rscale>  0 0.23231021E+04</rscale>
<asrwt>0</asrwt>
<pdfrwt beam="1">  1        2 0.12530019E+00 0.23231021E+04</pdfrwt>
<pdfrwt beam="2">  1       -2 0.25485794E+00 0.23231021E+04</pdfrwt>
<totfact> 0.18254618E+00</totfact>
</mgrwt>
</event>
<event>
 6    1  0.1817112E-005  0.3658444E+04  0.7818608E-02  0.8077234E-01
          2   -1    0    0  501    0  0.00000000000E+00  0.00000000000E+00  0.26073018564E+04  0.26073018564E+04  0.00000000000E+00 0. -1.
         -2   -1    0    0    0  501 -0.00000000000E+00 -0.00000000000E+00 -0.12833390825E+04  0.12833390825E+04  0.00000000000E+00 0.  1.
         23    2    1    2    0    0  0.58976472089E+03 -0.81893843812E+03 -0.95832491959E+03  0.13951811201E+04  0.98290970815E+02 0.  0.
         11    1    3    3    0    0  0.32833426882E+03 -0.53532177510E+03 -0.60888208585E+03  0.87470577307E+03  0.00000000000E+00 0. -1.
        -11    1    3    3    0    0  0.26143045207E+03 -0.28361666302E+03 -0.34944283374E+03  0.52047534703E+03  0.00000000000E+00 0.  1.
         22    1    1    2    0    0 -0.58976472089E+03  0.81893843812E+03  0.22822876935E+04  0.24954598188E+04  0.00000000000E+00 0. -1.
<mgrwt>
<rscale>  0 0.36584436E+04</rscale>
<asrwt>0</asrwt>
<pdfrwt beam="1">  1        2 0.40112336E+00 0.36584436E+04</pdfrwt>
<pdfrwt beam="2">  1       -2 0.19743678E+00 0.36584436E+04</pdfrwt>
<totfact> 0.33792577E-01</totfact>
</mgrwt>
</event>
<event>
 6    1  0.1817112E-005  0.9828362E+03  0.7818608E-02  0.9327573E-01
          1   -1    0    0  501    0  0.00000000000E+00  0.00000000000E+00  0.65509471582E+03  0.65509471582E+03  0.00000000000E+00 0. -1.
         -1   -1    0    0    0  501 -0.00000000000E+00 -0.00000000000E+00 -0.36863642054E+03  0.36863642054E+03  0.00000000000E+00 0.  1.
         23    2    1    2    0    0 -0.39036856294E+03 -0.29040275900E+03  0.17227267346E+03  0.52397146053E+03  0.90259847466E+02 0.  0.
         11    1    3    3    0    0 -0.60762257037E+02 -0.31830949585E+02 -0.56502806761E+01  0.68827225016E+02  0.00000000000E+00 0. -1.
        -11    1    3    3    0    0 -0.32960630590E+03 -0.25857180941E+03  0.17792295413E+03  0.45514423551E+03  0.00000000000E+00 0.  1.
         22    1    1    2    0    0  0.39036856294E+03  0.29040275900E+03  0.11418562182E+03  0.49975967584E+03  0.00000000000E+00 0. -1.
<mgrwt>
<rscale>  0 0.98283625E+03</rscale>
<asrwt>0</asrwt>
<pdfrwt beam="1">  1        1 0.10078380E+00 0.98283625E+03</pdfrwt>
<pdfrwt beam="2">  1       -1 0.56713296E-01 0.98283625E+03</pdfrwt>
<totfact> 0.95085286E+01</totfact>
</mgrwt>
</event>
<event>
 6    1  0.1817112E-005  0.1742705E+04  0.7818608E-02  0.8737376E-01
          1   -1    0    0  501    0  0.00000000000E+00  0.00000000000E+00  0.13760007983E+04  0.13760007983E+04  0.00000000000E+00 0. -1.
         -1   -1    0    0    0  501 -0.00000000000E+00 -0.00000000000E+00 -0.55178391728E+03  0.55178391728E+03  0.00000000000E+00 0.  1.
         23    2    1    2    0    0 -0.60043125045E+03  0.62120928491E+03  0.30978645676E+03  0.92227125292E+03  0.90542547993E+02 0.  0.
         11    1    3    3    0    0 -0.22453810612E+03  0.28212364265E+03  0.15887148657E+03  0.39401936511E+03  0.00000000000E+00 0. -1.
        -11    1    3    3    0    0 -0.37589314433E+03  0.33908564226E+03  0.15091497019E+03  0.52825188781E+03  0.00000000000E+00 0.  1.
         22    1    1    2    0    0  0.60043125045E+03 -0.62120928491E+03  0.51443042424E+03  0.10055134626E+04  0.00000000000E+00 0.  1.
<mgrwt>
<rscale>  0 0.17427049E+04</rscale>
<asrwt>0</asrwt>
<pdfrwt beam="1">  1        1 0.21169243E+00 0.17427049E+04</pdfrwt>
<pdfrwt beam="2">  1       -1 0.84889834E-01 0.17427049E+04</pdfrwt>
<totfact> 0.10398980E+01</totfact>
</mgrwt>
</event>
<event>
 6    1  0.1817112E-005  0.1250886E+04  0.7818608E-02  0.9069446E-01
         -2   -1    0    0    0  501 -0.00000000000E+00  0.00000000000E+00  0.20569066926E+03  0.20569066926E+03  0.00000000000E+00 0.  1.
          2   -1    0    0  501    0  0.00000000000E+00 -0.00000000000E+00 -0.19017828040E+04  0.19017828040E+04  0.00000000000E+00 0. -1.
         23    2    1    2    0    0  0.22991908839E+03 -0.57701178055E+03 -0.91238327223E+03  0.11074709916E+04  0.90793060026E+02 0.  0.
         11    1    3    3    0    0  0.14079912629E+03 -0.38304570600E+03 -0.66988101498E+03  0.78440358303E+03  0.00000000000E+00 0. -1.
        -11    1    3    3    0    0  0.89119962107E+02 -0.19396607455E+03 -0.24250225725E+03  0.32306740859E+03  0.00000000000E+00 0.  1.
         22    1    1    2    0    0 -0.22991908839E+03  0.57701178055E+03 -0.78370886254E+03  0.10000024817E+04  0.00000000000E+00 0.  1.
<mgrwt>
<rscale>  0 0.12508861E+04</rscale>
<asrwt>0</asrwt>
<pdfrwt beam="1">  1        2 0.29258198E+00 0.12508861E+04</pdfrwt>
<pdfrwt beam="2">  1       -2 0.31644718E-01 0.12508861E+04</pdfrwt>
<totfact> 0.69161667E+01</totfact>
</mgrwt>
</event>
<event>
 6    1  0.1817112E-005  0.3506230E+04  0.7818608E-02  0.8112315E-01
         -2   -1    0    0    0  501 -0.00000000000E+00  0.00000000000E+00  0.14761135974E+04  0.14761135974E+04  0.00000000000E+00 0.  1.
          2   -1    0    0  501    0  0.00000000000E+00 -0.00000000000E+00 -0.20820977223E+04  0.20820977223E+04  0.00000000000E+00 0. -1.
         23    2    1    2    0    0 -0.13643293584E+04  0.75905007063E+03 -0.11096744710E+04  0.19177066496E+04  0.93111514522E+02 0.  0.
         11    1    3    3    0    0 -0.79969338635E+03  0.47590008722E+03 -0.70589240946E+03  0.11680216175E+04  0.00000000000E+00 0. -1.
        -11    1    3    3    0    0 -0.56463597210E+03  0.28314998341E+03 -0.40378206154E+03  0.74968503208E+03  0.00000000000E+00 0.  1.
         22    1    1    2    0    0  0.13643293584E+04 -0.75905007063E+03  0.50369034613E+03  0.16405046702E+04  0.00000000000E+00 0. -1.
<mgrwt>
<rscale>  0 0.35062303E+04</rscale>
<asrwt>0</asrwt>
<pdfrwt beam="1">  1        2 0.32032273E+00 0.35062303E+04</pdfrwt>
<pdfrwt beam="2">  1       -2 0.22709440E+00 0.35062303E+04</pdfrwt>
<totfact> 0.44032918E-01</totfact>
</mgrwt>
</event>
<event>
 6    1  0.1817112E-005  0.3158920E+04  0.7818608E-02  0.8199751E-01
          2   -1    0    0  501    0  0.00000000000E+00  0.00000000000E+00  0.20468857997E+04  0.20468857997E+04  0.00000000000E+00 0.  1.
         -2   -1    0    0    0  501 -0.00000000000E+00 -0.00000000000E+00 -0.12187755988E+04  0.12187755988E+04  0.00000000000E+00 0. -1.
         23    2    1    2    0    0 -0.57993528632E+03  0.47547654099E+03  0.18499053392E+04  0.19981961398E+04  0.90747847817E+02 0.  0.
         11    1    3    3    0    0 -0.46523676378E+03  0.39916077042E+03  0.14173955140E+04  0.15442747846E+04  0.00000000000E+00 0. -1.
        -11    1    3    3    0    0 -0.11469852255E+03  0.76315770573E+02  0.43250982511E+03  0.45392135522E+03  0.00000000000E+00 0.  1.
         22    1    1    2    0    0  0.57993528632E+03 -0.47547654099E+03 -0.10217951383E+04  0.12674652587E+04  0.00000000000E+00 0. -1.
<mgrwt>
<rscale>  0 0.31589204E+04</rscale>
<asrwt>0</asrwt>
<pdfrwt beam="1">  1        2 0.31490551E+00 0.31589204E+04</pdfrwt>
<pdfrwt beam="2">  1       -2 0.18750394E+00 0.31589204E+04</pdfrwt>
<totfact> 0.85650445E-01</totfact>
</mgrwt>
</event>
<event>
 6    1  0.1817112E-005  0.2035249E+04  0.7818608E-02  0.8590316E-01
          4   -1    0    0  501    0  0.00000000000E+00  0.00000000000E+00  0.12692005049E+04  0.12692005049E+04  0.00000000000E+00 0. -1.
         -4   -1    0    0    0  501 -0.00000000000E+00 -0.00000000000E+00 -0.81591509656E+03  0.81591509656E+03  0.00000000000E+00 0.  1.
         23    2    1    2    0    0 -0.89444013187E+03 -0.38064130597E+03  0.52863043112E+03  0.11101346654E+04  0.89654276312E+02 0.  0.
         13    1    3    3    0    0 -0.17416144821E+03 -0.72398006859E+02  0.63551155024E+02  0.19902871840E+03  0.00000000000E+00 0.  1.
        -13    1    3    3    0    0 -0.72027868365E+03 -0.30824329911E+03  0.46507927610E+03  0.91110594698E+03  0.00000000000E+00 0. -1.
         22    1    1    2    0    0  0.89444013187E+03  0.38064130597E+03 -0.75345022770E+02  0.97498093610E+03  0.00000000000E+00 0.  1.
<mgrwt>
<rscale>  0 0.20352492E+04</rscale>
<asrwt>0</asrwt>
<pdfrwt beam="1">  1        4 0.19526162E+00 0.20352492E+04</pdfrwt>
<pdfrwt beam="2">  1       -4 0.12552540E+00 0.20352492E+04</pdfrwt>
<totfact> 0.12393108E-01</totfact>
</mgrwt>
</event>
<event>
 6    1  0.1817112E-005  0.2193327E+04  0.7818608E-02  0.8521211E-01
         -2   -1    0    0    0  501 -0.00000000000E+00  0.00000000000E+00  0.54517262437E+03  0.54517262437E+03  0.00000000000E+00 0.  1.
          2   -1    0    0  501    0  0.00000000000E+00 -0.00000000000E+00 -0.22060361226E+04  0.22060361226E+04  0.00000000000E+00 0. -1.
         23    2    1    2    0    0  0.10647092161E+04 -0.17201011802E+01 -0.11513045206E+04  0.15708448093E+04  0.91883851523E+02 0.  0.
         13    1    3    3    0    0  0.89335621863E+03 -0.32260502535E+02 -0.94253667311E+03  0.12990386651E+04  0.00000000000E+00 0.  1.
        -13    1    3    3    0    0  0.17135299749E+03  0.30540401354E+02 -0.20876784751E+03  0.27180614418E+03  0.00000000000E+00 0. -1.
         22    1    1    2    0    0 -0.10647092161E+04  0.17201011802E+01 -0.50955897762E+03  0.11803639376E+04  0.00000000000E+00 0.  1.
<mgrwt>
<rscale>  0 0.21933267E+04</rscale>
<asrwt>0</asrwt>
<pdfrwt beam="1">  1        2 0.33939016E+00 0.21933267E+04</pdfrwt>
<pdfrwt beam="2">  1       -2 0.83872714E-01 0.21933267E+04</pdfrwt>
<totfact> 0.58194071E+00</totfact>
</mgrwt>
</event>
<event>
 6    1  0.1817112E-005  0.3270899E+04  0.7818608E-02  0.8170340E-01
          1   -1    0    0  501    0  0.00000000000E+00  0.00000000000E+00  0.21565621633E+04  0.21565621633E+04  0.00000000000E+00 0. -1.
         -1   -1    0    0    0  501 -0.00000000000E+00 -0.00000000000E+00 -0.12402586800E+04  0.12402586800E+04  0.00000000000E+00 0.  1.
         23    2    1    2    0    0  0.10206255313E+04 -0.90261117096E+03 -0.47848724432E+03  0.14469940369E+04  0.91969010651E+02 0.  0.
         13    1    3    3    0    0  0.96669121397E+03 -0.87830373031E+03 -0.46411937997E+03  0.13861154875E+04  0.00000000000E+00 0. -1.
        -13    1    3    3    0    0  0.53934317317E+02 -0.24307440645E+02 -0.14367864340E+02  0.60878549431E+02  0.00000000000E+00 0.  1.
         22    1    1    2    0    0 -0.10206255313E+04  0.90261117096E+03  0.13947907276E+04  0.19498268064E+04  0.00000000000E+00 0. -1.
<mgrwt>
<rscale>  0 0.32708989E+04</rscale>
<asrwt>0</asrwt>
<pdfrwt beam="1">  1        1 0.33177879E+00 0.32708989E+04</pdfrwt>
<pdfrwt beam="2">  1       -1 0.19080903E+00 0.32708989E+04</pdfrwt>
<totfact> 0.33827329E-01</totfact>
</mgrwt>
</event>
<event>
 6    1  0.1817112E-005  0.2312142E+04  0.7818608E-02  0.8473149E-01
          2   -1    0    0  501    0  0.00000000000E+00  0.00000000000E+00  0.11001428447E+04  0.11001428447E+04  0.00000000000E+00 0. -1.
         -2   -1    0    0    0  501 -0.00000000000E+00 -0.00000000000E+00 -0.12148425634E+04  0.12148425634E+04  0.00000000000E+00 0.  1.
         23    2    1    2    0    0  0.78624390827E+03  0.72168847240E+03 -0.49751279323E+03  0.11811602079E+04  0.92772424659E+02 0.  0.
         11    1    3    3    0    0  0.62031676093E+03  0.61658626199E+03 -0.39672704194E+03  0.96039775519E+03  0.00000000000E+00 0. -1.
        -11    1    3    3    0    0  0.16592714734E+03  0.10510221041E+03 -0.10078575129E+03  0.22076245270E+03  0.00000000000E+00 0.  1.
         22    1    1    2    0    0 -0.78624390827E+03 -0.72168847240E+03  0.38281307460E+03  0.11338252002E+04  0.00000000000E+00 0. -1.
<mgrwt>
<rscale>  0 0.23121422E+04</rscale>
<asrwt>0</asrwt>
<pdfrwt beam="1">  1        2 0.16925275E+00 0.23121422E+04</pdfrwt>
<pdfrwt beam="2">  1       -2 0.18689886E+00 0.23121422E+04</pdfrwt>
<totfact> 0.32084145E+00</totfact>
</mgrwt>
</event>
<event>
 6    1  0.1817112E-005  0.2845059E+04  0.7818608E-02  0.8289414E-01
         -2   -1    0    0    0  501 -0.00000000000E+00  0.00000000000E+00  0.72062363279E+03  0.72062363279E+03  0.00000000000E+00 0.  1.
          2   -1    0    0  501    0  0.00000000000E+00 -0.00000000000E+00 -0.28081092262E+04  0.28081092262E+04  0.00000000000E+00 0. -1.
         23    2    1    2    0    0  0.10706230562E+04 -0.92678663945E+03 -0.12008290106E+04  0.18580063406E+04  0.70922811977E+02 0.  0.
         13    1    3    3    0    0  0.52816117299E+03 -0.47849590848E+03 -0.64560830196E+03  0.96162499897E+03  0.00000000000E+00 0. -1.
        -13    1    3    3    0    0  0.54246188324E+03 -0.44829073096E+03 -0.55522070865E+03  0.89638134159E+03  0.00000000000E+00 0.  1.
         22    1    1    2    0    0 -0.10706230562E+04  0.92678663945E+03 -0.88665658282E+03  0.16707265184E+04  0.00000000000E+00 0.  1.
<mgrwt>
<rscale>  0 0.28450588E+04</rscale>
<asrwt>0</asrwt>
<pdfrwt beam="1">  1        2 0.43201680E+00 0.28450588E+04</pdfrwt>
<pdfrwt beam="2">  1       -2 0.11086517E+00 0.28450588E+04</pdfrwt>
<totfact> 0.12773089E+00</totfact>
</mgrwt>
</event>
<event>
 6    1  0.1817112E-005  0.3736683E+04  0.7818608E-02  0.8059881E-01
          2   -1    0    0  501    0  0.00000000000E+00  0.00000000000E+00  0.21166267343E+04  0.21166267343E+04  0.00000000000E+00 0. -1.
         -2   -1    0    0    0  501 -0.00000000000E+00 -0.00000000000E+00 -0.16491803620E+04  0.16491803620E+04  0.00000000000E+00 0.  1.
         23    2    1    2    0    0  0.11502598054E+04  0.14518581281E+04 -0.30151843614E+01  0.18547017302E+04  0.94444546921E+02 0.  0.
         13    1    3    3    0    0  0.54320861469E+03  0.67421057313E+03  0.45175204700E+02  0.86699267304E+03  0.00000000000E+00 0.  1.
        -13    1    3    3    0    0  0.60705119071E+03  0.77764755500E+03 -0.48190389062E+02  0.98770905713E+03  0.00000000000E+00 0. -1.
         22    1    1    2    0    0 -0.11502598054E+04 -0.14518581281E+04  0.47046155672E+03  0.19111053661E+04  0.00000000000E+00 0.  1.
<mgrwt>
<rscale>  0 0.37366826E+04</rscale>
<asrwt>0</asrwt>
<pdfrwt beam="1">  1        2 0.32563488E+00 0.37366826E+04</pdfrwt>
<pdfrwt beam="2">  1       -2 0.25372006E+00 0.37366826E+04</pdfrwt>
<totfact> 0.28261982E-01</totfact>
</mgrwt>
</event>
<event>
 6    1  0.1817112E-005  0.1351715E+04  0.7818608E-02  0.8989531E-01
         -2   -1    0    0    0  501 -0.00000000000E+00  0.00000000000E+00  0.20594491373E+03  0.20594491373E+03  0.00000000000E+00 0.  1.
          2   -1    0    0  501    0  0.00000000000E+00 -0.00000000000E+00 -0.22179886195E+04  0.22179886195E+04  0.00000000000E+00 0. -1.
         23    2    1    2    0    0  0.36612208963E+02  0.63358673893E+03 -0.61935594129E+03  0.89345915615E+03  0.10906361489E+03 0.  0.
         13    1    3    3    0    0 -0.14821672898E+02  0.44216484487E+03 -0.38457611550E+03  0.58619810700E+03  0.00000000000E+00 0. -1.
        -13    1    3    3    0    0  0.51433881861E+02  0.19142189406E+03 -0.23477982579E+03  0.30726104915E+03  0.00000000000E+00 0.  1.
         22    1    1    2    0    0 -0.36612208963E+02 -0.63358673893E+03 -0.13926877644E+04  0.15304743770E+04  0.00000000000E+00 0. -1.
<mgrwt>
<rscale>  0 0.13517152E+04</rscale>
<asrwt>0</asrwt>
<pdfrwt beam="1">  1        2 0.34122904E+00 0.13517152E+04</pdfrwt>
<pdfrwt beam="2">  1       -2 0.31683831E-01 0.13517152E+04</pdfrwt>
<totfact> 0.45690291E+01</totfact>
</mgrwt>
</event>
<event>
 6    1  0.1817112E-005  0.1523870E+04  0.7818608E-02  0.8868733E-01
         -4   -1    0    0    0  501 -0.00000000000E+00  0.00000000000E+00  0.25993383507E+03  0.25993383507E+03  0.00000000000E+00 0.  1.
          4   -1    0    0  501    0  0.00000000000E+00 -0.00000000000E+00 -0.22334339473E+04  0.22334339473E+04  0.00000000000E+00 0. -1.
         23    2    1    2    0    0 -0.13949049195E+03 -0.64648707540E+03 -0.38053110874E+03  0.76856246522E+03  0.92093442887E+02 0.  0.
         11    1    3    3    0    0 -0.99752604510E+02 -0.36411038892E+03 -0.26314601787E+03  0.46018777053E+03  0.00000000000E+00 0. -1.
        -11    1    3    3    0    0 -0.39737887441E+02 -0.28237668648E+03 -0.11738509087E+03  0.30837469469E+03  0.00000000000E+00 0.  1.
         22    1    1    2    0    0  0.13949049195E+03  0.64648707540E+03 -0.15929690035E+04  0.17248053172E+04  0.00000000000E+00 0. -1.
<mgrwt>
<rscale>  0 0.15238701E+04</rscale>
<asrwt>0</asrwt>
<pdfrwt beam="1">  1        4 0.34360521E+00 0.15238701E+04</pdfrwt>
<pdfrwt beam="2">  1       -4 0.39989822E-01 0.15238701E+04</pdfrwt>
<totfact> 0.19405003E-01</totfact>
</mgrwt>
</event>
<event>
 6    1  0.1817112E-005  0.4785920E+04  0.7818608E-02  0.7862407E-01
         -2   -1    0    0    0  501 -0.00000000000E+00  0.00000000000E+00  0.21534318707E+04  0.21534318707E+04  0.00000000000E+00 0.  1.
          2   -1    0    0  501    0  0.00000000000E+00 -0.00000000000E+00 -0.26591309563E+04  0.26591309563E+04  0.00000000000E+00 0. -1.
         23    2    1    2    0    0  0.90991848515E+03  0.22090540292E+04 -0.37250391924E+03  0.24197376546E+04  0.92194324909E+02 0.  0.
         13    1    3    3    0    0  0.53431345397E+03  0.13540400051E+04 -0.18696929466E+03  0.14676078221E+04  0.00000000000E+00 0. -1.
        -13    1    3    3    0    0  0.37560503118E+03  0.85501402414E+03 -0.18553462458E+03  0.95212983245E+03  0.00000000000E+00 0.  1.
         22    1    1    2    0    0 -0.90991848515E+03 -0.22090540292E+04 -0.13319516632E+03  0.23928251724E+04  0.00000000000E+00 0. -1.
<mgrwt>
<rscale>  0 0.47859199E+04</rscale>
<asrwt>0</asrwt>
<pdfrwt beam="1">  1        2 0.40909707E+00 0.47859199E+04</pdfrwt>
<pdfrwt beam="2">  1       -2 0.33129721E+00 0.47859199E+04</pdfrwt>
<totfact> 0.42370714E-02</totfact>
</mgrwt>
</event>
<event>
 6    1  0.1817112E-005  0.3022655E+04  0.7818608E-02  0.8237291E-01
         -2   -1    0    0    0  501 -0.00000000000E+00  0.00000000000E+00  0.71266176725E+03  0.71266176725E+03  0.00000000000E+00 0.  1.
          2   -1    0    0  501    0  0.00000000000E+00 -0.00000000000E+00 -0.32050409715E+04  0.32050409715E+04  0.00000000000E+00 0. -1.
         23    2    1    2    0    0 -0.13993540841E+03 -0.81323853122E+03 -0.28862703850E+04  0.30033236656E+04  0.91964546730E+02 0.  0.
         13    1    3    3    0    0 -0.13905134732E+03 -0.65244328821E+03 -0.24110993709E+04  0.25016829731E+04  0.00000000000E+00 0.  1.
        -13    1    3    3    0    0 -0.88406108976E+00 -0.16079524301E+03 -0.47517101412E+03  0.50164069252E+03  0.00000000000E+00 0. -1.
         22    1    1    2    0    0  0.13993540841E+03  0.81323853122E+03  0.39389118073E+03  0.91437907317E+03  0.00000000000E+00 0.  1.
<mgrwt>
<rscale>  0 0.30226546E+04</rscale>
<asrwt>0</asrwt>
<pdfrwt beam="1">  1        2 0.49308323E+00 0.30226546E+04</pdfrwt>
<pdfrwt beam="2">  1       -2 0.10964027E+00 0.30226546E+04</pdfrwt>
<totfact> 0.72767570E-01</totfact>
</mgrwt>
</event>
<event>
 6    1  0.1817112E-005  0.1260789E+04  0.7818608E-02  0.9061251E-01
         -2   -1    0    0    0  501 -0.00000000000E+00  0.00000000000E+00  0.52596818758E+03  0.52596818758E+03  0.00000000000E+00 0.  1.
          2   -1    0    0  501    0  0.00000000000E+00 -0.00000000000E+00 -0.75555416500E+03  0.75555416500E+03  0.00000000000E+00 0. -1.
         23    2    1    2    0    0 -0.29676498049E+03  0.31377547986E+03 -0.57687137455E+03  0.72732775458E+03  0.98491494075E+02 0.  0.
         13    1    3    3    0    0 -0.10848590675E+03  0.94321702391E+02 -0.26872508799E+03  0.30476047713E+03  0.00000000000E+00 0. -1.
        -13    1    3    3    0    0 -0.18827907374E+03  0.21945377747E+03 -0.30814628656E+03  0.42256727745E+03  0.00000000000E+00 0.  1.
         22    1    1    2    0    0  0.29676498049E+03 -0.31377547986E+03  0.34728539712E+03  0.55419459800E+03  0.00000000000E+00 0.  1.
<mgrwt>
<rscale>  0 0.12607894E+04</rscale>
<asrwt>0</asrwt>
<pdfrwt beam="1">  1        2 0.11623910E+00 0.12607894E+04</pdfrwt>
<pdfrwt beam="2">  1       -2 0.80918183E-01 0.12607894E+04</pdfrwt>
<totfact> 0.49198114E+01</totfact>
</mgrwt>
</event>
<event>
 6    1  0.1817112E-005  0.3639293E+04  0.7818608E-02  0.8081550E-01
          1   -1    0    0  501    0  0.00000000000E+00  0.00000000000E+00  0.27722825012E+04  0.27722825012E+04  0.00000000000E+00 0. -1.
         -1   -1    0    0    0  501 -0.00000000000E+00 -0.00000000000E+00 -0.11943635250E+04  0.11943635250E+04  0.00000000000E+00 0.  1.
         23    2    1    2    0    0 -0.96716013678E+03  0.14100486347E+04  0.11484951904E+03  0.17162664762E+04  0.93511084130E+02 0.  0.
         13    1    3    3    0    0 -0.48952967368E+03  0.77063376246E+03  0.95099718931E+02  0.91791048246E+03  0.00000000000E+00 0.  1.
        -13    1    3    3    0    0 -0.47763046309E+03  0.63941487223E+03  0.19749800111E+02  0.79835599372E+03  0.00000000000E+00 0. -1.
         22    1    1    2    0    0  0.96716013678E+03 -0.14100486347E+04  0.14630694572E+04  0.22503795500E+04  0.00000000000E+00 0. -1.
<mgrwt>
<rscale>  0 0.36392928E+04</rscale>
<asrwt>0</asrwt>
<pdfrwt beam="1">  1        1 0.42650500E+00 0.36392928E+04</pdfrwt>
<pdfrwt beam="2">  1       -1 0.18374824E+00 0.36392928E+04</pdfrwt>
<totfact> 0.13754639E-01</totfact>
</mgrwt>
</event>
<event>
 6    1  0.1817112E-005  0.1757924E+04  0.7818608E-02  0.8729001E-01
         -2   -1    0    0    0  501 -0.00000000000E+00  0.00000000000E+00  0.47239367070E+03  0.47239367070E+03  0.00000000000E+00 0. -1.
          2   -1    0    0  501    0  0.00000000000E+00 -0.00000000000E+00 -0.16354447838E+04  0.16354447838E+04  0.00000000000E+00 0.  1.
         23    2    1    2    0    0 -0.22662520747E+03 -0.68195683119E+03 -0.11844253703E+04  0.13888941151E+04  0.98687896021E+02 0.  0.
         11    1    3    3    0    0 -0.21554452019E+03 -0.51856001459E+03 -0.91202273706E+03  0.10710506066E+04  0.00000000000E+00 0. -1.
        -11    1    3    3    0    0 -0.11080687277E+02 -0.16339681660E+03 -0.27240263329E+03  0.31784350855E+03  0.00000000000E+00 0.  1.
         22    1    1    2    0    0  0.22662520747E+03  0.68195683119E+03  0.21374257249E+02  0.71894433939E+03  0.00000000000E+00 0. -1.
<mgrwt>
<rscale>  0 0.17579235E+04</rscale>
<asrwt>0</asrwt>
<pdfrwt beam="1">  1        2 0.25160689E+00 0.17579235E+04</pdfrwt>
<pdfrwt beam="2">  1       -2 0.72675950E-01 0.17579235E+04</pdfrwt>
<totfact> 0.17275628E+01</totfact>
</mgrwt>
</event>
<event>
 6    1  0.1817112E-005  0.7413240E+03  0.7818608E-02  0.9649061E-01
         -2   -1    0    0    0  501 -0.00000000000E+00  0.00000000000E+00  0.93703451851E+02  0.93703451851E+02  0.00000000000E+00 0.  1.
          2   -1    0    0  501    0  0.00000000000E+00 -0.00000000000E+00 -0.14662246454E+04  0.14662246454E+04  0.00000000000E+00 0. -1.
         23    2    1    2    0    0  0.13724676995E+03  0.28079930243E+03 -0.10934203710E+04  0.11409028078E+04  0.91685248738E+02 0.  0.
         13    1    3    3    0    0  0.31076558828E+02  0.15469749946E+03 -0.45668777521E+03  0.48317780668E+03  0.00000000000E+00 0.  1.
        -13    1    3    3    0    0  0.10617021112E+03  0.12610180297E+03 -0.63673259583E+03  0.65772500107E+03  0.00000000000E+00 0. -1.
         22    1    1    2    0    0 -0.13724676995E+03 -0.28079930243E+03 -0.27910082250E+03  0.41902528949E+03  0.00000000000E+00 0.  1.
<mgrwt>
<rscale>  0 0.74132398E+03</rscale>
<asrwt>0</asrwt>
<pdfrwt beam="1">  1        2 0.22557302E+00 0.74132398E+03</pdfrwt>
<pdfrwt beam="2">  1       -2 0.14415916E-01 0.74132398E+03</pdfrwt>
<totfact> 0.50310841E+02</totfact>
</mgrwt>
</event>
<event>
 6    1  0.1817112E-005  0.1165522E+04  0.7818608E-02  0.9143582E-01
          2   -1    0    0  501    0  0.00000000000E+00  0.00000000000E+00  0.81931094793E+03  0.81931094793E+03  0.00000000000E+00 0. -1.
         -2   -1    0    0    0  501 -0.00000000000E+00 -0.00000000000E+00 -0.41450757137E+03  0.41450757137E+03  0.00000000000E+00 0.  1.
         23    2    1    2    0    0  0.30118829644E+03 -0.46082749462E+03  0.39008463181E+03  0.68309807193E+03  0.10667983025E+03 0.  0.
         11    1    3    3    0    0  0.93214010118E+02 -0.99820026440E+02  0.14737406249E+03  0.20092785684E+03  0.00000000000E+00 0. -1.
        -11    1    3    3    0    0  0.20797428632E+03 -0.36100746818E+03  0.24271056932E+03  0.48217021509E+03  0.00000000000E+00 0.  1.
         22    1    1    2    0    0 -0.30118829644E+03  0.46082749462E+03  0.14718744750E+02  0.55072044738E+03  0.00000000000E+00 0.  1.
<mgrwt>
<rscale>  0 0.11655224E+04</rscale>
<asrwt>0</asrwt>
<pdfrwt beam="1">  1        2 0.12604784E+00 0.11655224E+04</pdfrwt>
<pdfrwt beam="2">  1       -2 0.63770396E-01 0.11655224E+04</pdfrwt>
<totfact> 0.75072854E+01</totfact>
</mgrwt>
</event>
<event>
 6    1  0.1817112E-005  0.7420301E+03  0.7818608E-02  0.9647937E-01
          2   -1    0    0  501    0  0.00000000000E+00  0.00000000000E+00  0.40616222981E+03  0.40616222981E+03  0.00000000000E+00 0. -1.
         -2   -1    0    0    0  501 -0.00000000000E+00 -0.00000000000E+00 -0.33890935397E+03  0.33890935397E+03  0.00000000000E+00 0.  1.
         23    2    1    2    0    0  0.75091807911E+02  0.23147695304E+03  0.30784906588E+03  0.40286274978E+03  0.91142681508E+02 0.  0.
         13    1    3    3    0    0  0.42437142592E+02  0.23410042611E+02  0.70358363979E+02  0.85435592983E+02  0.00000000000E+00 0. -1.
        -13    1    3    3    0    0  0.32654665319E+02  0.20806691043E+03  0.23749070190E+03  0.31742715680E+03  0.00000000000E+00 0.  1.
         22    1    1    2    0    0 -0.75091807911E+02 -0.23147695304E+03 -0.24059619005E+03  0.34220883400E+03  0.00000000000E+00 0.  1.
<mgrwt>
<rscale>  0 0.74203013E+03</rscale>
<asrwt>0</asrwt>
<pdfrwt beam="1">  1        2 0.62486497E-01 0.74203013E+03</pdfrwt>
<pdfrwt beam="2">  1       -2 0.52139901E-01 0.74203013E+03</pdfrwt>
<totfact> 0.27376255E+02</totfact>
</mgrwt>
</event>
<event>
 6    1  0.1817112E-005  0.3613884E+04  0.7818608E-02  0.8087319E-01
          2   -1    0    0  501    0  0.00000000000E+00  0.00000000000E+00  0.24548470011E+04  0.24548470011E+04  0.00000000000E+00 0. -1.
         -2   -1    0    0    0  501 -0.00000000000E+00 -0.00000000000E+00 -0.13300377322E+04  0.13300377322E+04  0.00000000000E+00 0.  1.
         23    2    1    2    0    0 -0.92953083776E+02 -0.18028198652E+04  0.51517997153E+03  0.18795113783E+04  0.91394069774E+02 0.  0.
         11    1    3    3    0    0 -0.54283299644E+02 -0.37164724692E+03  0.11955973903E+03  0.39416098737E+03  0.00000000000E+00 0. -1.
        -11    1    3    3    0    0 -0.38669784131E+02 -0.14311726182E+04  0.39562023249E+03  0.14853503909E+04  0.00000000000E+00 0.  1.
         22    1    1    2    0    0  0.92953083776E+02  0.18028198652E+04  0.60962929740E+03  0.19053733551E+04  0.00000000000E+00 0.  1.
<mgrwt>
<rscale>  0 0.36138839E+04</rscale>
<asrwt>0</asrwt>
<pdfrwt beam="1">  1        2 0.37766877E+00 0.36138839E+04</pdfrwt>
<pdfrwt beam="2">  1       -2 0.20462119E+00 0.36138839E+04</pdfrwt>
<totfact> 0.37336818E-01</totfact>
</mgrwt>
</event>
<event>
 6    1  0.1817112E-005  0.3691963E+04  0.7818608E-02  0.8069745E-01
          2   -1    0    0  501    0  0.00000000000E+00  0.00000000000E+00  0.20617074214E+04  0.20617074214E+04  0.00000000000E+00 0. -1.
         -2   -1    0    0    0  501 -0.00000000000E+00 -0.00000000000E+00 -0.16528280969E+04  0.16528280969E+04  0.00000000000E+00 0.  1.
         23    2    1    2    0    0 -0.69911613084E+02  0.82559480129E+03  0.18628760736E+04  0.20410359050E+04  0.95004684114E+02 0.  0.
         11    1    3    3    0    0 -0.49016734008E+01  0.12500384865E+03  0.37199087787E+03  0.39246299417E+03  0.00000000000E+00 0.  1.
        -11    1    3    3    0    0 -0.65009939683E+02  0.70059095264E+03  0.14908851958E+04  0.16485729108E+04  0.00000000000E+00 0. -1.
         22    1    1    2    0    0  0.69911613084E+02 -0.82559480129E+03 -0.14539967491E+04  0.16734996134E+04  0.00000000000E+00 0.  1.
<mgrwt>
<rscale>  0 0.36919631E+04</rscale>
<asrwt>0</asrwt>
<pdfrwt beam="1">  1        2 0.31718575E+00 0.36919631E+04</pdfrwt>
<pdfrwt beam="2">  1       -2 0.25428125E+00 0.36919631E+04</pdfrwt>
<totfact> 0.30202242E-01</totfact>
</mgrwt>
</event>
<event>
 6    1  0.1817112E-005  0.2812121E+04  0.7818608E-02  0.8299515E-01
         -2   -1    0    0    0  501 -0.00000000000E+00  0.00000000000E+00  0.73696822642E+03  0.73696822642E+03  0.00000000000E+00 0. -1.
          2   -1    0    0  501    0  0.00000000000E+00 -0.00000000000E+00 -0.26826210902E+04  0.26826210902E+04  0.00000000000E+00 0.  1.
         23    2    1    2    0    0 -0.52739853855E+03 -0.12781960669E+04 -0.67420254764E+03  0.15411537148E+04  0.93119779955E+02 0.  0.
         11    1    3    3    0    0 -0.31600268675E+03 -0.85335116248E+03 -0.41069503450E+03  0.99836682432E+03  0.00000000000E+00 0.  1.
        -11    1    3    3    0    0 -0.21139585180E+03 -0.42484490442E+03 -0.26350751314E+03  0.54278689045E+03  0.00000000000E+00 0. -1.
         22    1    1    2    0    0  0.52739853855E+03  0.12781960669E+04 -0.12714503161E+04  0.18784356018E+04  0.00000000000E+00 0.  1.
<mgrwt>
<rscale>  0 0.28121213E+04</rscale>
<asrwt>0</asrwt>
<pdfrwt beam="1">  1        2 0.41271094E+00 0.28121213E+04</pdfrwt>
<pdfrwt beam="2">  1       -2 0.11337973E+00 0.28121213E+04</pdfrwt>
<totfact> 0.14426169E+00</totfact>
</mgrwt>
</event>
<event>
 6    1  0.1817112E-005  0.3912517E+04  0.7818608E-02  0.8022431E-01
         -2   -1    0    0    0  501 -0.00000000000E+00  0.00000000000E+00  0.14384689567E+04  0.14384689567E+04  0.00000000000E+00 0.  1.
          2   -1    0    0  501    0  0.00000000000E+00 -0.00000000000E+00 -0.26604305281E+04  0.26604305281E+04  0.00000000000E+00 0. -1.
         23    2    1    2    0    0 -0.43247456523E+03  0.18965390344E+04 -0.81713790404E+03  0.21119981887E+04  0.94485111091E+02 0.  0.
         13    1    3    3    0    0 -0.16070205701E+03  0.79376688440E+03 -0.38598619550E+03  0.89714901829E+03  0.00000000000E+00 0. -1.
        -13    1    3    3    0    0 -0.27177250823E+03  0.11027721500E+04 -0.43115170854E+03  0.12148491704E+04  0.00000000000E+00 0.  1.
         22    1    1    2    0    0  0.43247456523E+03 -0.18965390344E+04 -0.40482366737E+03  0.19869012961E+04  0.00000000000E+00 0.  1.
<mgrwt>
<rscale>  0 0.39125167E+04</rscale>
<asrwt>0</asrwt>
<pdfrwt beam="1">  1        2 0.40929700E+00 0.39125167E+04</pdfrwt>
<pdfrwt beam="2">  1       -2 0.22130292E+00 0.39125167E+04</pdfrwt>
<totfact> 0.21594583E-01</totfact>
</mgrwt>
</event>
<event>
 6    1  0.1817112E-005  0.2072562E+04  0.7818608E-02  0.8573427E-01
          1   -1    0    0  501    0  0.00000000000E+00  0.00000000000E+00  0.84523624725E+03  0.84523624725E+03  0.00000000000E+00 0. -1.
         -1   -1    0    0    0  501 -0.00000000000E+00 -0.00000000000E+00 -0.12705065516E+04  0.12705065516E+04  0.00000000000E+00 0.  1.
         23    2    1    2    0    0 -0.77093253687E+02 -0.86223341373E+03 -0.79094730233E+03  0.11760037412E+04  0.89427819167E+02 0.  0.
         11    1    3    3    0    0 -0.31758582076E+02 -0.69015617212E+03 -0.60081889114E+03  0.91559133318E+03  0.00000000000E+00 0. -1.
        -11    1    3    3    0    0 -0.45334671610E+02 -0.17207724161E+03 -0.19012841119E+03  0.26041240806E+03  0.00000000000E+00 0.  1.
         22    1    1    2    0    0  0.77093253687E+02  0.86223341373E+03  0.36567699799E+03  0.93973905760E+03  0.00000000000E+00 0. -1.
<mgrwt>
<rscale>  0 0.20725619E+04</rscale>
<asrwt>0</asrwt>
<pdfrwt beam="1">  1        1 0.13003635E+00 0.20725619E+04</pdfrwt>
<pdfrwt beam="2">  1       -1 0.19546255E+00 0.20725619E+04</pdfrwt>
<totfact> 0.30151608E+00</totfact>
</mgrwt>
</event>
<event>
 6    1  0.1817112E-005  0.2024225E+04  0.7818608E-02  0.8595378E-01
         -2   -1    0    0    0  501 -0.00000000000E+00  0.00000000000E+00  0.40018308566E+03  0.40018308566E+03  0.00000000000E+00 0.  1.
          2   -1    0    0  501    0  0.00000000000E+00 -0.00000000000E+00 -0.25597582096E+04  0.25597582096E+04  0.00000000000E+00 0. -1.
         23    2    1    2    0    0  0.27094334066E+03  0.80178752071E+03 -0.27500082579E+03  0.89405315515E+03  0.86209441632E+02 0.  0.
         11    1    3    3    0    0  0.90746030530E+02  0.16430867588E+03 -0.74135494949E+02  0.20181242439E+03  0.00000000000E+00 0. -1.
        -11    1    3    3    0    0  0.18019731013E+03  0.63747884484E+03 -0.20086533084E+03  0.69224073076E+03  0.00000000000E+00 0.  1.
         22    1    1    2    0    0 -0.27094334066E+03 -0.80178752071E+03 -0.18845742982E+04  0.20658881401E+04  0.00000000000E+00 0. -1.
<mgrwt>
<rscale>  0 0.20242252E+04</rscale>
<asrwt>0</asrwt>
<pdfrwt beam="1">  1        2 0.39380895E+00 0.20242252E+04</pdfrwt>
<pdfrwt beam="2">  1       -2 0.61566629E-01 0.20242252E+04</pdfrwt>
<totfact> 0.73099875E+00</totfact>
</mgrwt>
</event>
<event>
 6    1  0.1817112E-005  0.2753078E+04  0.7818608E-02  0.8317986E-01
          2   -1    0    0  501    0  0.00000000000E+00  0.00000000000E+00  0.18089986172E+04  0.18089986172E+04  0.00000000000E+00 0. -1.
         -2   -1    0    0    0  501 -0.00000000000E+00 -0.00000000000E+00 -0.10474634275E+04  0.10474634275E+04  0.00000000000E+00 0.  1.
         23    2    1    2    0    0  0.13715256368E+04 -0.94176986363E+02  0.34770630011E+03  0.14207718876E+04  0.87984136619E+02 0.  0.
         13    1    3    3    0    0  0.75190325757E+03 -0.34373690404E+02  0.23178707063E+03  0.78756923851E+03  0.00000000000E+00 0.  1.
        -13    1    3    3    0    0  0.61962237927E+03 -0.59803295959E+02  0.11591922949E+03  0.63320264913E+03  0.00000000000E+00 0. -1.
         22    1    1    2    0    0 -0.13715256368E+04  0.94176986363E+02  0.41382888961E+03  0.14356901571E+04  0.00000000000E+00 0. -1.
<mgrwt>
<rscale>  0 0.27530782E+04</rscale>
<asrwt>0</asrwt>
<pdfrwt beam="1">  1        2 0.27830748E+00 0.27530782E+04</pdfrwt>
<pdfrwt beam="2">  1       -2 0.16114822E+00 0.27530782E+04</pdfrwt>
<totfact> 0.18408478E+00</totfact>
</mgrwt>
</event>
<event>
 6    1  0.1817112E-005  0.1453250E+04  0.7818608E-02  0.8916151E-01
         -2   -1    0    0    0  501 -0.00000000000E+00  0.00000000000E+00  0.32880740610E+03  0.32880740610E+03  0.00000000000E+00 0.  1.
          2   -1    0    0  501    0  0.00000000000E+00 -0.00000000000E+00 -0.16057532937E+04  0.16057532937E+04  0.00000000000E+00 0. -1.
         23    2    1    2    0    0 -0.59866609298E+03 -0.27186737404E+03 -0.23877348418E+03  0.70569337613E+03  0.93152586720E+02 0.  0.
         13    1    3    3    0    0 -0.53334792874E+03 -0.21333226228E+03 -0.22493017979E+03  0.61689890014E+03  0.00000000000E+00 0. -1.
        -13    1    3    3    0    0 -0.65318164246E+02 -0.58535111765E+02 -0.13843304390E+02  0.88794475990E+02  0.00000000000E+00 0.  1.
         22    1    1    2    0    0  0.59866609298E+03  0.27186737404E+03 -0.10381724034E+04  0.12288673236E+04  0.00000000000E+00 0. -1.
<mgrwt>
<rscale>  0 0.14532496E+04</rscale>
<asrwt>0</asrwt>
<pdfrwt beam="1">  1        2 0.24703897E+00 0.14532496E+04</pdfrwt>
<pdfrwt beam="2">  1       -2 0.50585755E-01 0.14532496E+04</pdfrwt>
<totfact> 0.39650831E+01</totfact>
</mgrwt>
</event>
<event>
 6    1  0.1817112E-005  0.1750479E+04  0.7818608E-02  0.8733087E-01
          1   -1    0    0  501    0  0.00000000000E+00  0.00000000000E+00  0.11017097872E+04  0.11017097872E+04  0.00000000000E+00 0. -1.
         -1   -1    0    0    0  501 -0.00000000000E+00 -0.00000000000E+00 -0.69532316877E+03  0.69532316877E+03  0.00000000000E+00 0.  1.
         23    2    1    2    0    0 -0.24567382827E+03 -0.66154912807E+02  0.10609534283E+04  0.10947582157E+04  0.90228993821E+02 0.  0.
         11    1    3    3    0    0 -0.17781144679E+02 -0.14400252736E+02  0.24301283077E+03  0.24408763242E+03  0.00000000000E+00 0. -1.
        -11    1    3    3    0    0 -0.22789268359E+03 -0.51754660071E+02  0.81794059754E+03  0.85067058323E+03  0.00000000000E+00 0.  1.
         22    1    1    2    0    0  0.24567382827E+03  0.66154912807E+02 -0.65456680984E+03  0.70227474035E+03  0.00000000000E+00 0.  1.
<mgrwt>
<rscale>  0 0.17504792E+04</rscale>
<asrwt>0</asrwt>
<pdfrwt beam="1">  1        1 0.16949381E+00 0.17504792E+04</pdfrwt>
<pdfrwt beam="2">  1       -1 0.10697280E+00 0.17504792E+04</pdfrwt>
<totfact> 0.97649473E+00</totfact>
</mgrwt>
</event>
<event>
 6    1  0.1817112E-005  0.3500740E+04  0.7818608E-02  0.8113615E-01
         -2   -1    0    0    0  501 -0.00000000000E+00  0.00000000000E+00  0.17308591590E+04  0.17308591590E+04  0.00000000000E+00 0.  1.
          2   -1    0    0  501    0  0.00000000000E+00 -0.00000000000E+00 -0.17701011440E+04  0.17701011440E+04  0.00000000000E+00 0. -1.
         23    2    1    2    0    0  0.13703313945E+04  0.56300818724E+02 -0.11052839234E+04  0.17638870957E+04  0.93097917083E+02 0.  0.
         13    1    3    3    0    0  0.88787471767E+03 -0.27234249164E+01 -0.68698025157E+03  0.11226178323E+04  0.00000000000E+00 0.  1.
        -13    1    3    3    0    0  0.48245667687E+03  0.59024243641E+02 -0.41830367179E+03  0.64126926343E+03  0.00000000000E+00 0. -1.
         22    1    1    2    0    0 -0.13703313945E+04 -0.56300818724E+02  0.10660419383E+04  0.17370732072E+04  0.00000000000E+00 0.  1.
<mgrwt>
<rscale>  0 0.35007404E+04</rscale>
<asrwt>0</asrwt>
<pdfrwt beam="1">  1        2 0.27232325E+00 0.35007404E+04</pdfrwt>
<pdfrwt beam="2">  1       -2 0.26628602E+00 0.35007404E+04</pdfrwt>
<totfact> 0.37618560E-01</totfact>
</mgrwt>
</event>
<event>
 6    1  0.1817112E-005  0.8999132E+03  0.7818608E-02  0.9425690E-01
         -2   -1    0    0    0  501 -0.00000000000E+00  0.00000000000E+00  0.19924819820E+03  0.19924819820E+03  0.00000000000E+00 0.  1.
          2   -1    0    0  501    0  0.00000000000E+00 -0.00000000000E+00 -0.10161243818E+04  0.10161243818E+04  0.00000000000E+00 0. -1.
         23    2    1    2    0    0 -0.11938754034E+02  0.24264335547E+03  0.91455198350E+02  0.27511504547E+03  0.91136727695E+02 0.  0.
         13    1    3    3    0    0 -0.69589067272E+01  0.22459257840E+03  0.10874254416E+03  0.24963011350E+03  0.00000000000E+00 0.  1.
        -13    1    3    3    0    0 -0.49798473064E+01  0.18050777073E+02 -0.17287345814E+02  0.25484931968E+02  0.00000000000E+00 0. -1.
         22    1    1    2    0    0  0.11938754034E+02 -0.24264335547E+03 -0.90833138195E+03  0.94025753453E+03  0.00000000000E+00 0. -1.
<mgrwt>
<rscale>  0 0.89991322E+03</rscale>
<asrwt>0</asrwt>
<pdfrwt beam="1">  1        2 0.15632682E+00 0.89991322E+03</pdfrwt>
<pdfrwt beam="2">  1       -2 0.30653570E-01 0.89991322E+03</pdfrwt>
<totfact> 0.24252898E+02</totfact>
</mgrwt>
</event>
<event>
 6    1  0.1817112E-005  0.3109950E+04  0.7818608E-02  0.8213012E-01
          2   -1    0    0  501    0  0.00000000000E+00  0.00000000000E+00  0.30359959234E+04  0.30359959234E+04  0.00000000000E+00 0. -1.
         -2   -1    0    0    0  501 -0.00000000000E+00 -0.00000000000E+00 -0.79642645885E+03  0.79642645885E+03  0.00000000000E+00 0.  1.
         23    2    1    2    0    0 -0.12009416629E+04  0.10085649291E+03  0.23290225238E+04  0.26239378935E+04  0.90946372873E+02 0.  0.
         13    1    3    3    0    0 -0.55195074833E+03  0.51895405779E+01  0.10225771086E+04  0.11620415238E+04  0.00000000000E+00 0. -1.
        -13    1    3    3    0    0 -0.64899091455E+03  0.95666952337E+02  0.13064454152E+04  0.14618963697E+04  0.00000000000E+00 0.  1.
         22    1    1    2    0    0  0.12009416629E+04 -0.10085649291E+03 -0.89453059234E+02  0.12084844888E+04  0.00000000000E+00 0.  1.
<mgrwt>
<rscale>  0 0.31099501E+04</rscale>
<asrwt>0</asrwt>
<pdfrwt beam="1">  1        2 0.46707629E+00 0.31099501E+04</pdfrwt>
<pdfrwt beam="2">  1       -2 0.12252715E+00 0.31099501E+04</pdfrwt>
<totfact> 0.70624241E-01</totfact>
</mgrwt>
</event>
<event>
 6    1  0.1817112E-005  0.3277711E+04  0.7818608E-02  0.8168590E-01
          2   -1    0    0  501    0  0.00000000000E+00  0.00000000000E+00  0.17854045605E+04  0.17854045605E+04  0.00000000000E+00 0. -1.
         -2   -1    0    0    0  501 -0.00000000000E+00 -0.00000000000E+00 -0.15043352105E+04  0.15043352105E+04  0.00000000000E+00 0.  1.
         23    2    1    2    0    0 -0.25450340027E+03  0.11372683649E+04  0.12953394062E+04  0.17447818229E+04  0.90598663602E+02 0.  0.
         11    1    3    3    0    0 -0.29853535454E+02  0.15678140511E+03  0.22613894997E+03  0.27678595930E+03  0.00000000000E+00 0.  1.
        -11    1    3    3    0    0 -0.22464986482E+03  0.98048695978E+03  0.10692004562E+04  0.14679958636E+04  0.00000000000E+00 0. -1.
         22    1    1    2    0    0  0.25450340027E+03 -0.11372683649E+04 -0.10142700562E+04  0.15449579481E+04  0.00000000000E+00 0.  1.
<mgrwt>
<rscale>  0 0.32777108E+04</rscale>
<asrwt>0</asrwt>
<pdfrwt beam="1">  1        2 0.27467762E+00 0.32777108E+04</pdfrwt>
<pdfrwt beam="2">  1       -2 0.23143619E+00 0.32777108E+04</pdfrwt>
<totfact> 0.61608412E-01</totfact>
</mgrwt>
</event>
<event>
 6    1  0.1817112E-005  0.1895000E+04  0.7818608E-02  0.8657349E-01
          2   -1    0    0  501    0  0.00000000000E+00  0.00000000000E+00  0.28174582121E+04  0.28174582121E+04  0.00000000000E+00 0. -1.
         -2   -1    0    0    0  501 -0.00000000000E+00 -0.00000000000E+00 -0.31864045775E+03  0.31864045775E+03  0.00000000000E+00 0.  1.
         23    2    1    2    0    0 -0.55409632462E+03 -0.35745497431E+03  0.23732780704E+04  0.24648632358E+04  0.91132740916E+02 0.  0.
         13    1    3    3    0    0 -0.37935621105E+03 -0.28760606632E+03  0.17712804426E+04  0.18341381602E+04  0.00000000000E+00 0.  1.
        -13    1    3    3    0    0 -0.17474011357E+03 -0.69848907991E+02  0.60199762776E+03  0.63072507566E+03  0.00000000000E+00 0. -1.
         22    1    1    2    0    0  0.55409632462E+03  0.35745497431E+03  0.12553968398E+03  0.67123543401E+03  0.00000000000E+00 0.  1.
<mgrwt>
<rscale>  0 0.18949999E+04</rscale>
<asrwt>0</asrwt>
<pdfrwt beam="1">  1        2 0.43345509E+00 0.18949999E+04</pdfrwt>
<pdfrwt beam="2">  1       -2 0.49021611E-01 0.18949999E+04</pdfrwt>
<totfact> 0.83480985E+00</totfact>
</mgrwt>
</event>
<event>
 6    1  0.1817112E-005  0.2372248E+04  0.7818608E-02  0.8449967E-01
         -2   -1    0    0    0  501 -0.00000000000E+00  0.00000000000E+00  0.10890611947E+04  0.10890611947E+04  0.00000000000E+00 0.  1.
          2   -1    0    0  501    0  0.00000000000E+00 -0.00000000000E+00 -0.12918373220E+04  0.12918373220E+04  0.00000000000E+00 0. -1.
         23    2    1    2    0    0  0.18944454380E+03 -0.15727350386E+03 -0.12642332783E+04  0.12912584506E+04  0.91860840894E+02 0.  0.
         11    1    3    3    0    0  0.47286903094E+02 -0.63283486702E+02 -0.61408563682E+03  0.61914620264E+03  0.00000000000E+00 0.  1.
        -11    1    3    3    0    0  0.14215764071E+03 -0.93990017156E+02 -0.65014764153E+03  0.67211224801E+03  0.00000000000E+00 0. -1.
         22    1    1    2    0    0 -0.18944454380E+03  0.15727350386E+03  0.10614571510E+04  0.10896400661E+04  0.00000000000E+00 0.  1.
<mgrwt>
<rscale>  0 0.23722478E+04</rscale>
<asrwt>0</asrwt>
<pdfrwt beam="1">  1        2 0.19874420E+00 0.23722478E+04</pdfrwt>
<pdfrwt beam="2">  1       -2 0.16754788E+00 0.23722478E+04</pdfrwt>
<totfact> 0.33432381E+00</totfact>
</mgrwt>
</event>
<event>
 6    1  0.1817112E-005  0.9452870E+03  0.7818608E-02  0.9370676E-01
         -2   -1    0    0    0  501 -0.00000000000E+00  0.00000000000E+00  0.11933555132E+04  0.11933555132E+04  0.00000000000E+00 0.  1.
          2   -1    0    0  501    0  0.00000000000E+00 -0.00000000000E+00 -0.18719642830E+03  0.18719642830E+03  0.00000000000E+00 0. -1.
         23    2    1    2    0    0 -0.18473697025E+03  0.13623561972E+03 -0.91199194880E+02  0.25944396879E+03  0.79410248325E+02 0.  0.
         11    1    3    3    0    0 -0.96177084811E+02  0.48698805590E+02 -0.48498293712E+01  0.10791258571E+03  0.00000000000E+00 0.  1.
        -11    1    3    3    0    0 -0.88559885438E+02  0.87536814130E+02 -0.86349365508E+02  0.15153138309E+03  0.00000000000E+00 0. -1.
         22    1    1    2    0    0  0.18473697025E+03 -0.13623561972E+03  0.10973582798E+04  0.11211079727E+04  0.00000000000E+00 0.  1.
<mgrwt>
<rscale>  0 0.94528702E+03</rscale>
<asrwt>0</asrwt>
<pdfrwt beam="1">  1        2 0.28799451E-01 0.94528702E+03</pdfrwt>
<pdfrwt beam="2">  1       -2 0.18359315E+00 0.94528702E+03</pdfrwt>
<totfact> 0.32006972E+01</totfact>
</mgrwt>
</event>
<event>
 6    1  0.1817112E-005  0.1928097E+04  0.7818608E-02  0.8640996E-01
          2   -1    0    0  501    0  0.00000000000E+00  0.00000000000E+00  0.11970411541E+04  0.11970411541E+04  0.00000000000E+00 0. -1.
         -2   -1    0    0    0  501 -0.00000000000E+00 -0.00000000000E+00 -0.77640546787E+03  0.77640546787E+03  0.00000000000E+00 0.  1.
         23    2    1    2    0    0  0.77433838366E+03  0.51708150145E+03 -0.36138065817E+02  0.93632778976E+03  0.91818072997E+02 0.  0.
         13    1    3    3    0    0  0.54167501668E+03  0.31121884314E+03 -0.34361693383E+02  0.62565942652E+03  0.00000000000E+00 0. -1.
        -13    1    3    3    0    0  0.23266336698E+03  0.20586265831E+03 -0.17763724337E+01  0.31066836324E+03  0.00000000000E+00 0.  1.
         22    1    1    2    0    0 -0.77433838366E+03 -0.51708150145E+03  0.45677375202E+03  0.10371188322E+04  0.00000000000E+00 0. -1.
<mgrwt>
<rscale>  0 0.19280968E+04</rscale>
<asrwt>0</asrwt>
<pdfrwt beam="1">  1        2 0.18416018E+00 0.19280968E+04</pdfrwt>
<pdfrwt beam="2">  1       -2 0.11944700E+00 0.19280968E+04</pdfrwt>
<totfact> 0.95473762E+00</totfact>
</mgrwt>
</event>
<event>
 6    1  0.1817112E-005  0.2991695E+04  0.7818608E-02  0.8246106E-01
          2   -1    0    0  501    0  0.00000000000E+00  0.00000000000E+00  0.27740692093E+04  0.27740692093E+04  0.00000000000E+00 0. -1.
         -2   -1    0    0    0  501 -0.00000000000E+00 -0.00000000000E+00 -0.80659844718E+03  0.80659844718E+03  0.00000000000E+00 0.  1.
         23    2    1    2    0    0  0.14351200157E+04  0.21437556571E+03  0.55737359304E+03  0.15573287405E+04  0.95295022306E+02 0.  0.
         11    1    3    3    0    0  0.10209110847E+04  0.16330576233E+03  0.35183355687E+03  0.10921149512E+04  0.00000000000E+00 0.  1.
        -11    1    3    3    0    0  0.41420893098E+03  0.51069803383E+02  0.20554003617E+03  0.46521378934E+03  0.00000000000E+00 0. -1.
         22    1    1    2    0    0 -0.14351200157E+04 -0.21437556571E+03  0.14100971691E+04  0.20233389160E+04  0.00000000000E+00 0. -1.
<mgrwt>
<rscale>  0 0.29916951E+04</rscale>
<asrwt>0</asrwt>
<pdfrwt beam="1">  1        2 0.42677987E+00 0.29916951E+04</pdfrwt>
<pdfrwt beam="2">  1       -2 0.12409207E+00 0.29916951E+04</pdfrwt>
<totfact> 0.10024151E+00</totfact>
</mgrwt>
</event>
<event>
 6    1  0.1817112E-005  0.6155630E+03  0.7818608E-02  0.9873634E-01
          2   -1    0    0  501    0  0.00000000000E+00  0.00000000000E+00  0.54912735066E+03  0.54912735066E+03  0.00000000000E+00 0. -1.
         -2   -1    0    0    0  501 -0.00000000000E+00 -0.00000000000E+00 -0.17250907905E+03  0.17250907905E+03  0.00000000000E+00 0.  1.
         23    2    1    2    0    0 -0.15804644650E+03 -0.25268970024E+03  0.24280577753E+03  0.39493083222E+03  0.90470728812E+02 0.  0.
         11    1    3    3    0    0 -0.94847705131E+01 -0.86301297674E+02  0.50637753041E+02  0.10050898908E+03  0.00000000000E+00 0. -1.
        -11    1    3    3    0    0 -0.14856167599E+03 -0.16638840257E+03  0.19216802449E+03  0.29442184314E+03  0.00000000000E+00 0.  1.
         22    1    1    2    0    0  0.15804644650E+03  0.25268970024E+03  0.13381249407E+03  0.32670559749E+03  0.00000000000E+00 0.  1.
<mgrwt>
<rscale>  0 0.61556301E+03</rscale>
<asrwt>0</asrwt>
<pdfrwt beam="1">  1        2 0.84481130E-01 0.61556301E+03</pdfrwt>
<pdfrwt beam="2">  1       -2 0.26539859E-01 0.61556301E+03</pdfrwt>
<totfact> 0.71286825E+02</totfact>
</mgrwt>
</event>
<event>
 6    1  0.1817112E-005  0.4405961E+04  0.7818608E-02  0.7927310E-01
          2   -1    0    0  501    0  0.00000000000E+00  0.00000000000E+00  0.32580549736E+04  0.32580549736E+04  0.00000000000E+00 0. -1.
         -2   -1    0    0    0  501 -0.00000000000E+00 -0.00000000000E+00 -0.14895768322E+04  0.14895768322E+04  0.00000000000E+00 0.  1.
         23    2    1    2    0    0  0.31599499470E+03 -0.21757573498E+04  0.75170780090E+03  0.23253199333E+04  0.90968632825E+02 0.  0.
         11    1    3    3    0    0  0.19740022246E+03 -0.13348543415E+04  0.41454864866E+03  0.14116138080E+04  0.00000000000E+00 0. -1.
        -11    1    3    3    0    0  0.11859477224E+03 -0.84090300832E+03  0.33715915224E+03  0.91370612526E+03  0.00000000000E+00 0.  1.
         22    1    1    2    0    0 -0.31599499470E+03  0.21757573498E+04  0.10167703405E+04  0.24223118725E+04  0.00000000000E+00 0. -1.
<mgrwt>
<rscale>  0 0.44059611E+04</rscale>
<asrwt>0</asrwt>
<pdfrwt beam="1">  1        2 0.50123923E+00 0.44059611E+04</pdfrwt>
<pdfrwt beam="2">  1       -2 0.22916567E+00 0.44059611E+04</pdfrwt>
<totfact> 0.78378431E-02</totfact>
</mgrwt>
</event>
<event>
 6    1  0.1817112E-005  0.2235436E+04  0.7818608E-02  0.8503822E-01
          1   -1    0    0  501    0  0.00000000000E+00  0.00000000000E+00  0.99270099608E+03  0.99270099608E+03  0.00000000000E+00 0. -1.
         -1   -1    0    0    0  501 -0.00000000000E+00 -0.00000000000E+00 -0.12584796614E+04  0.12584796614E+04  0.00000000000E+00 0.  1.
         23    2    1    2    0    0 -0.69317276134E+03 -0.48550691035E+03 -0.86549293725E+03  0.12139426689E+04  0.91505966383E+02 0.  0.
         11    1    3    3    0    0 -0.54496485529E+03 -0.40823596708E+03 -0.65126343185E+03  0.94222468445E+03  0.00000000000E+00 0. -1.
        -11    1    3    3    0    0 -0.14820790605E+03 -0.77270943265E+02 -0.21422950540E+03  0.27171798445E+03  0.00000000000E+00 0.  1.
         22    1    1    2    0    0  0.69317276134E+03  0.48550691035E+03  0.59971427191E+03  0.10372379886E+04  0.00000000000E+00 0. -1.
<mgrwt>
<rscale>  0 0.22354364E+04</rscale>
<asrwt>0</asrwt>
<pdfrwt beam="1">  1        1 0.15272323E+00 0.22354364E+04</pdfrwt>
<pdfrwt beam="2">  1       -1 0.19361226E+00 0.22354364E+04</pdfrwt>
<totfact> 0.23229125E+00</totfact>
</mgrwt>
</event>
<event>
 6    1  0.1817112E-005  0.1933779E+04  0.7818608E-02  0.8638223E-01
         -2   -1    0    0    0  501 -0.00000000000E+00  0.00000000000E+00  0.50076215600E+03  0.50076215600E+03  0.00000000000E+00 0.  1.
          2   -1    0    0  501    0  0.00000000000E+00 -0.00000000000E+00 -0.18669054949E+04  0.18669054949E+04  0.00000000000E+00 0. -1.
         23    2    1    2    0    0  0.30570414299E+03  0.39770566334E+03  0.32437861682E+03  0.60429324355E+03  0.91236064442E+02 0.  0.
         13    1    3    3    0    0  0.10775424306E+03  0.12429477026E+03  0.58442959138E+02  0.17457303997E+03  0.00000000000E+00 0.  1.
        -13    1    3    3    0    0  0.19794989993E+03  0.27341089308E+03  0.26593565768E+03  0.42972020358E+03  0.00000000000E+00 0. -1.
         22    1    1    2    0    0 -0.30570414299E+03 -0.39770566334E+03 -0.16905219557E+04  0.17633744073E+04  0.00000000000E+00 0. -1.
<mgrwt>
<rscale>  0 0.19337793E+04</rscale>
<asrwt>0</asrwt>
<pdfrwt beam="1">  1        2 0.28721623E+00 0.19337793E+04</pdfrwt>
<pdfrwt beam="2">  1       -2 0.77040332E-01 0.19337793E+04</pdfrwt>
<totfact> 0.11128524E+01</totfact>
</mgrwt>
</event>
<event>
 6    1  0.1817112E-005  0.2122365E+04  0.7818608E-02  0.8551455E-01
          2   -1    0    0  501    0  0.00000000000E+00  0.00000000000E+00  0.14034052551E+04  0.14034052551E+04  0.00000000000E+00 0. -1.
         -2   -1    0    0    0  501 -0.00000000000E+00 -0.00000000000E+00 -0.80241127937E+03  0.80241127937E+03  0.00000000000E+00 0.  1.
         23    2    1    2    0    0 -0.51694278874E+03  0.19405238811E+03  0.12404957976E+04  0.13609208272E+04  0.91594202982E+02 0.  0.
         11    1    3    3    0    0 -0.20526532820E+03  0.33785353949E+02  0.41941717947E+03  0.46817312560E+03  0.00000000000E+00 0.  1.
        -11    1    3    3    0    0 -0.31167746054E+03  0.16026703416E+03  0.82107861809E+03  0.89274770161E+03  0.00000000000E+00 0. -1.
         22    1    1    2    0    0  0.51694278874E+03 -0.19405238811E+03 -0.63950182178E+03  0.84489570730E+03  0.00000000000E+00 0.  1.
<mgrwt>
<rscale>  0 0.21223649E+04</rscale>
<asrwt>0</asrwt>
<pdfrwt beam="1">  1        2 0.21590850E+00 0.21223649E+04</pdfrwt>
<pdfrwt beam="2">  1       -2 0.12344789E+00 0.21223649E+04</pdfrwt>
<totfact> 0.65572944E+00</totfact>
</mgrwt>
</event>
<event>
 6    1  0.1817112E-005  0.1844993E+04  0.7818608E-02  0.8682732E-01
          2   -1    0    0  501    0  0.00000000000E+00  0.00000000000E+00  0.12554815049E+04  0.12554815049E+04  0.00000000000E+00 0. -1.
         -2   -1    0    0    0  501 -0.00000000000E+00 -0.00000000000E+00 -0.67782751977E+03  0.67782751977E+03  0.00000000000E+00 0.  1.
         23    2    1    2    0    0 -0.26819879858E+03 -0.38344256363E+03 -0.54080983451E+03  0.72090640548E+03  0.90950388651E+02 0.  0.
         13    1    3    3    0    0 -0.20711833898E+03 -0.22691053973E+03 -0.32238371372E+03  0.44532870809E+03  0.00000000000E+00 0. -1.
        -13    1    3    3    0    0 -0.61080459596E+02 -0.15653202390E+03 -0.21842612080E+03  0.27557769739E+03  0.00000000000E+00 0.  1.
         22    1    1    2    0    0  0.26819879858E+03  0.38344256363E+03  0.11184638196E+04  0.12124026191E+04  0.00000000000E+00 0. -1.
<mgrwt>
<rscale>  0 0.18449931E+04</rscale>
<asrwt>0</asrwt>
<pdfrwt beam="1">  1        2 0.19315100E+00 0.18449931E+04</pdfrwt>
<pdfrwt beam="2">  1       -2 0.10428116E+00 0.18449931E+04</pdfrwt>
<totfact> 0.12343934E+01</totfact>
</mgrwt>
</event>
<event>
 6    1  0.1817112E-005  0.2297318E+04  0.7818608E-02  0.8478979E-01
          1   -1    0    0  501    0  0.00000000000E+00  0.00000000000E+00  0.26874470170E+04  0.26874470170E+04  0.00000000000E+00 0. -1.
         -1   -1    0    0    0  501 -0.00000000000E+00 -0.00000000000E+00 -0.49095581399E+03  0.49095581399E+03  0.00000000000E+00 0.  1.
         23    2    1    2    0    0 -0.39248416448E+03 -0.82408678142E+03  0.20606438161E+04  0.22555716681E+04  0.90486299915E+02 0.  0.
         11    1    3    3    0    0 -0.22864660307E+03 -0.56234326645E+03  0.13057150843E+04  0.14399309358E+04  0.00000000000E+00 0. -1.
        -11    1    3    3    0    0 -0.16383756142E+03 -0.26174351496E+03  0.75492873173E+03  0.81564073227E+03  0.00000000000E+00 0.  1.
         22    1    1    2    0    0  0.39248416448E+03  0.82408678142E+03  0.13584738692E+03  0.92283116289E+03  0.00000000000E+00 0.  1.
<mgrwt>
<rscale>  0 0.22973182E+04</rscale>
<asrwt>0</asrwt>
<pdfrwt beam="1">  1        1 0.41345338E+00 0.22973182E+04</pdfrwt>
<pdfrwt beam="2">  1       -1 0.75531665E-01 0.22973182E+04</pdfrwt>
<totfact> 0.15953347E+00</totfact>
</mgrwt>
</event>
<event>
 6    1  0.1817112E-005  0.2992623E+04  0.7818608E-02  0.8245841E-01
          2   -1    0    0  501    0  0.00000000000E+00  0.00000000000E+00  0.91070766812E+03  0.91070766812E+03  0.00000000000E+00 0. -1.
         -2   -1    0    0    0  501 -0.00000000000E+00 -0.00000000000E+00 -0.24584707637E+04  0.24584707637E+04  0.00000000000E+00 0.  1.
         23    2    1    2    0    0 -0.12399436830E+04  0.44038674493E+03  0.24001008528E+02  0.13193386281E+04  0.93153341729E+02 0.  0.
         11    1    3    3    0    0 -0.92838721273E+03  0.29249982679E+03 -0.33633842034E+01  0.97338084930E+03  0.00000000000E+00 0.  1.
        -11    1    3    3    0    0 -0.31155647024E+03  0.14788691814E+03  0.27364392731E+02  0.34595777877E+03  0.00000000000E+00 0. -1.
         22    1    1    2    0    0  0.12399436830E+04 -0.44038674493E+03 -0.15717641041E+04  0.20498398037E+04  0.00000000000E+00 0.  1.
<mgrwt>
<rscale>  0 0.29926230E+04</rscale>
<asrwt>0</asrwt>
<pdfrwt beam="1">  1        2 0.14010887E+00 0.29926230E+04</pdfrwt>
<pdfrwt beam="2">  1       -2 0.37822627E+00 0.29926230E+04</pdfrwt>
<totfact> 0.25378601E-01</totfact>
</mgrwt>
</event>
<event>
 6    1  0.1817112E-005  0.3776116E+04  0.7818608E-02  0.8051300E-01
          2   -1    0    0  501    0  0.00000000000E+00  0.00000000000E+00  0.29653995376E+04  0.29653995376E+04  0.00000000000E+00 0.  1.
         -2   -1    0    0    0  501 -0.00000000000E+00 -0.00000000000E+00 -0.12021190862E+04  0.12021190862E+04  0.00000000000E+00 0. -1.
         23    2    1    2    0    0 -0.13247148543E+04 -0.51308889864E+03 -0.48884103975E+03  0.15047792685E+04  0.85237443357E+02 0.  0.
         11    1    3    3    0    0 -0.23112505569E+03 -0.62004179949E+02 -0.62458728774E+02  0.24731437989E+03  0.00000000000E+00 0.  1.
        -11    1    3    3    0    0 -0.10935897986E+04 -0.45108471869E+03 -0.42638231097E+03  0.12574648886E+04  0.00000000000E+00 0. -1.
         22    1    1    2    0    0  0.13247148543E+04  0.51308889864E+03  0.22521214912E+04  0.26627393553E+04  0.00000000000E+00 0.  1.
<mgrwt>
<rscale>  0 0.37761162E+04</rscale>
<asrwt>0</asrwt>
<pdfrwt beam="1">  1        2 0.45621531E+00 0.37761162E+04</pdfrwt>
<pdfrwt beam="2">  1       -2 0.18494140E+00 0.37761162E+04</pdfrwt>
<totfact> 0.24642565E-01</totfact>
</mgrwt>
</event>
<event>
 6    1  0.1817112E-005  0.2448014E+04  0.7818608E-02  0.8421743E-01
         -1   -1    0    0    0  501 -0.00000000000E+00  0.00000000000E+00  0.63675169537E+03  0.63675169537E+03  0.00000000000E+00 0.  1.
          1   -1    0    0  501    0  0.00000000000E+00 -0.00000000000E+00 -0.23528691116E+04  0.23528691116E+04  0.00000000000E+00 0. -1.
         23    2    1    2    0    0  0.11178578091E+04 -0.30008829042E+03 -0.13385385384E+04  0.17721542274E+04  0.95844266005E+02 0.  0.
         13    1    3    3    0    0  0.56952916427E+03 -0.12751469091E+03 -0.61148348836E+03  0.84530202998E+03  0.00000000000E+00 0.  1.
        -13    1    3    3    0    0  0.54832864488E+03 -0.17257359951E+03 -0.72705505001E+03  0.92685219738E+03  0.00000000000E+00 0. -1.
         22    1    1    2    0    0 -0.11178578091E+04  0.30008829042E+03 -0.37757887788E+03  0.12174665796E+04  0.00000000000E+00 0.  1.
<mgrwt>
<rscale>  0 0.24480142E+04</rscale>
<asrwt>0</asrwt>
<pdfrwt beam="1">  1        1 0.36197987E+00 0.24480142E+04</pdfrwt>
<pdfrwt beam="2">  1       -1 0.97961799E-01 0.24480142E+04</pdfrwt>
<totfact> 0.15257358E+00</totfact>
</mgrwt>
</event>
<event>
 6    1  0.1817112E-005  0.1574803E+04  0.7818608E-02  0.8836178E-01
         -2   -1    0    0    0  501 -0.00000000000E+00  0.00000000000E+00  0.56214741357E+03  0.56214741357E+03  0.00000000000E+00 0.  1.
          2   -1    0    0  501    0  0.00000000000E+00 -0.00000000000E+00 -0.11029162397E+04  0.11029162397E+04  0.00000000000E+00 0. -1.
         23    2    1    2    0    0 -0.18050822237E+03 -0.45306044868E+02 -0.10775411830E+04  0.10969435786E+04  0.86915807725E+02 0.  0.
         11    1    3    3    0    0 -0.11878450879E+03  0.10993420769E+02 -0.54624124039E+03  0.55911546887E+03  0.00000000000E+00 0. -1.
        -11    1    3    3    0    0 -0.61723713580E+02 -0.56299465637E+02 -0.53129994261E+03  0.53782810977E+03  0.00000000000E+00 0.  1.
         22    1    1    2    0    0  0.18050822237E+03  0.45306044868E+02  0.53677235689E+03  0.56812007460E+03  0.00000000000E+00 0.  1.
<mgrwt>
<rscale>  0 0.15748035E+04</rscale>
<asrwt>0</asrwt>
<pdfrwt beam="1">  1        2 0.16967942E+00 0.15748035E+04</pdfrwt>
<pdfrwt beam="2">  1       -2 0.86484218E-01 0.15748035E+04</pdfrwt>
<totfact> 0.24147232E+01</totfact>
</mgrwt>
</event>
<event>
 6    1  0.1817112E-005  0.3560418E+04  0.7818608E-02  0.8099619E-01
          2   -1    0    0  501    0  0.00000000000E+00  0.00000000000E+00  0.21910663408E+04  0.21910663408E+04  0.00000000000E+00 0. -1.
         -2   -1    0    0    0  501 -0.00000000000E+00 -0.00000000000E+00 -0.14463935200E+04  0.14463935200E+04  0.00000000000E+00 0.  1.
         23    2    1    2    0    0  0.47841239718E+03 -0.15076045925E+04 -0.45953556870E+03  0.16495293102E+04  0.89576655776E+02 0.  0.
         13    1    3    3    0    0  0.33377557662E+03 -0.10122774528E+04 -0.26747679524E+03  0.10989338529E+04  0.00000000000E+00 0. -1.
        -13    1    3    3    0    0  0.14463682056E+03 -0.49532713968E+03 -0.19205877347E+03  0.55059545732E+03  0.00000000000E+00 0.  1.
         22    1    1    2    0    0 -0.47841239718E+03  0.15076045925E+04  0.12042083895E+04  0.19879305506E+04  0.00000000000E+00 0. -1.
<mgrwt>
<rscale>  0 0.35604180E+04</rscale>
<asrwt>0</asrwt>
<pdfrwt beam="1">  1        2 0.33708713E+00 0.35604180E+04</pdfrwt>
<pdfrwt beam="2">  1       -2 0.22252208E+00 0.35604180E+04</pdfrwt>
<totfact> 0.40695721E-01</totfact>
</mgrwt>
</event>
<event>
 6    1  0.1817112E-005  0.1119575E+04  0.7818608E-02  0.9186320E-01
         -1   -1    0    0    0  501 -0.00000000000E+00  0.00000000000E+00  0.28376226915E+03  0.28376226915E+03  0.00000000000E+00 0.  1.
          1   -1    0    0  501    0  0.00000000000E+00 -0.00000000000E+00 -0.11043117459E+04  0.11043117459E+04  0.00000000000E+00 0. -1.
         23    2    1    2    0    0  0.57728439644E+01  0.45655557673E+03 -0.19027820533E+02  0.46562440355E+03  0.89262012431E+02 0.  0.
         13    1    3    3    0    0  0.42960763050E+02  0.16025744668E+03 -0.19012863993E+02  0.16700169274E+03  0.00000000000E+00 0. -1.
        -13    1    3    3    0    0 -0.37187919085E+02  0.29629813004E+03 -0.14956539758E-01  0.29862271082E+03  0.00000000000E+00 0.  1.
         22    1    1    2    0    0 -0.57728439644E+01 -0.45655557673E+03 -0.80152165621E+03  0.92244961149E+03  0.00000000000E+00 0. -1.
<mgrwt>
<rscale>  0 0.11195749E+04</rscale>
<asrwt>0</asrwt>
<pdfrwt beam="1">  1        1 0.16989412E+00 0.11195749E+04</pdfrwt>
<pdfrwt beam="2">  1       -1 0.43655733E-01 0.11195749E+04</pdfrwt>
<totfact> 0.64867009E+01</totfact>
</mgrwt>
</event>
<event>
 6    1  0.1817112E-005  0.3441659E+04  0.7818608E-02  0.8127757E-01
          1   -1    0    0  501    0  0.00000000000E+00  0.00000000000E+00  0.40718184082E+04  0.40718184082E+04  0.00000000000E+00 0. -1.
         -1   -1    0    0    0  501 -0.00000000000E+00 -0.00000000000E+00 -0.72725598585E+03  0.72725598585E+03  0.00000000000E+00 0.  1.
         23    2    1    2    0    0 -0.14759770732E+04 -0.67631910283E+03  0.88286364106E+03  0.18501971943E+04  0.88688216267E+02 0.  0.
         13    1    3    3    0    0 -0.10911588342E+04 -0.50111890974E+03  0.60801502834E+03  0.13458937691E+04  0.00000000000E+00 0. -1.
        -13    1    3    3    0    0 -0.38481823900E+03 -0.17520019309E+03  0.27484861271E+03  0.50430342517E+03  0.00000000000E+00 0.  1.
         22    1    1    2    0    0  0.14759770732E+04  0.67631910283E+03  0.24616987813E+04  0.29488771998E+04  0.00000000000E+00 0. -1.
<mgrwt>
<rscale>  0 0.34416591E+04</rscale>
<asrwt>0</asrwt>
<pdfrwt beam="1">  1        1 0.62643358E+00 0.34416591E+04</pdfrwt>
<pdfrwt beam="2">  1       -1 0.11188554E+00 0.34416591E+04</pdfrwt>
<totfact> 0.49650844E-02</totfact>
</mgrwt>
</event>
<event>
 6    1  0.1817112E-005  0.2032245E+04  0.7818608E-02  0.8591692E-01
         -2   -1    0    0    0  501 -0.00000000000E+00  0.00000000000E+00  0.90901904125E+03  0.90901904125E+03  0.00000000000E+00 0.  1.
          2   -1    0    0  501    0  0.00000000000E+00 -0.00000000000E+00 -0.11358455636E+04  0.11358455636E+04  0.00000000000E+00 0. -1.
         23    2    1    2    0    0  0.32618974284E+02 -0.44939687066E+03 -0.10277904384E+04  0.11258625703E+04  0.90508547648E+02 0.  0.
         11    1    3    3    0    0  0.25241272479E+02 -0.26738299686E+03 -0.71660339471E+03  0.76527852064E+03  0.00000000000E+00 0. -1.
        -11    1    3    3    0    0  0.73777018055E+01 -0.18201387380E+03 -0.31118704367E+03  0.36058404968E+03  0.00000000000E+00 0.  1.
         22    1    1    2    0    0 -0.32618974284E+02  0.44939687066E+03  0.80096391598E+03  0.91900203457E+03  0.00000000000E+00 0.  1.
<mgrwt>
<rscale>  0 0.20322453E+04</rscale>
<asrwt>0</asrwt>
<pdfrwt beam="1">  1        2 0.17474547E+00 0.20322453E+04</pdfrwt>
<pdfrwt beam="2">  1       -2 0.13984908E+00 0.20322453E+04</pdfrwt>
<totfact> 0.69121671E+00</totfact>
</mgrwt>
</event>
<event>
 6    1  0.1817112E-005  0.1872272E+04  0.7818608E-02  0.8668783E-01
         -2   -1    0    0    0  501 -0.00000000000E+00  0.00000000000E+00  0.42363665377E+03  0.42363665377E+03  0.00000000000E+00 0.  1.
          2   -1    0    0  501    0  0.00000000000E+00 -0.00000000000E+00 -0.20686384188E+04  0.20686384188E+04  0.00000000000E+00 0. -1.
         23    2    1    2    0    0  0.15805163362E+03 -0.85731841373E+03 -0.38008656727E+03  0.95605059713E+03  0.97937552769E+02 0.  0.
         13    1    3    3    0    0  0.71325558723E+02 -0.51535485228E+03 -0.18032903497E+03  0.55063283588E+03  0.00000000000E+00 0. -1.
        -13    1    3    3    0    0  0.86726074900E+02 -0.34196356145E+03 -0.19975753230E+03  0.40541776125E+03  0.00000000000E+00 0.  1.
         22    1    1    2    0    0 -0.15805163362E+03  0.85731841373E+03 -0.12649151978E+04  0.15362244755E+04  0.00000000000E+00 0. -1.
<mgrwt>
<rscale>  0 0.18722725E+04</rscale>
<asrwt>0</asrwt>
<pdfrwt beam="1">  1        2 0.31825206E+00 0.18722725E+04</pdfrwt>
<pdfrwt beam="2">  1       -2 0.65174872E-01 0.18722725E+04</pdfrwt>
<totfact> 0.12464261E+01</totfact>
</mgrwt>
</event>
<event>
 6    1  0.1817112E-005  0.1748650E+04  0.7818608E-02  0.8734094E-01
         -2   -1    0    0    0  501 -0.00000000000E+00  0.00000000000E+00  0.42876258619E+03  0.42876258619E+03  0.00000000000E+00 0.  1.
          2   -1    0    0  501    0  0.00000000000E+00 -0.00000000000E+00 -0.17829071670E+04  0.17829071670E+04  0.00000000000E+00 0. -1.
         23    2    1    2    0    0  0.74795902410E+03 -0.39742424835E+03 -0.41612121205E+03  0.94783567577E+03  0.88582561673E+02 0.  0.
         13    1    3    3    0    0  0.26353706533E+03 -0.18867320509E+03 -0.15633972529E+03  0.35984923624E+03  0.00000000000E+00 0.  1.
        -13    1    3    3    0    0  0.48442195878E+03 -0.20875104326E+03 -0.25978148676E+03  0.58798643953E+03  0.00000000000E+00 0. -1.
         22    1    1    2    0    0 -0.74795902410E+03  0.39742424835E+03 -0.93802336876E+03  0.12638340774E+04  0.00000000000E+00 0. -1.
<mgrwt>
<rscale>  0 0.17486496E+04</rscale>
<asrwt>0</asrwt>
<pdfrwt beam="1">  1        2 0.27429340E+00 0.17486496E+04</pdfrwt>
<pdfrwt beam="2">  1       -2 0.65963477E-01 0.17486496E+04</pdfrwt>
<totfact> 0.17679773E+01</totfact>
</mgrwt>
</event>
<event>
 6    1  0.1817112E-005  0.1072090E+04  0.7818608E-02  0.9232830E-01
          2   -1    0    0  501    0  0.00000000000E+00  0.00000000000E+00  0.39930675806E+03  0.39930675806E+03  0.00000000000E+00 0. -1.
         -2   -1    0    0    0  501 -0.00000000000E+00 -0.00000000000E+00 -0.71960815785E+03  0.71960815785E+03  0.00000000000E+00 0.  1.
         23    2    1    2    0    0 -0.26263708172E+03 -0.37821742108E+02 -0.64273326377E+03  0.70133734493E+03  0.91429219432E+02 0.  0.
         13    1    3    3    0    0 -0.52190540823E+02 -0.90212990623E+01 -0.24267098798E+03  0.24838366451E+03  0.00000000000E+00 0. -1.
        -13    1    3    3    0    0 -0.21044654090E+03 -0.28800443046E+02 -0.40006227579E+03  0.45295368042E+03  0.00000000000E+00 0.  1.
         22    1    1    2    0    0  0.26263708172E+03  0.37821742108E+02  0.32243186398E+03  0.41757757097E+03  0.00000000000E+00 0. -1.
<mgrwt>
<rscale>  0 0.10720903E+04</rscale>
<asrwt>0</asrwt>
<pdfrwt beam="1">  1        2 0.61431810E-01 0.10720903E+04</pdfrwt>
<pdfrwt beam="2">  1       -2 0.11070895E+00 0.10720903E+04</pdfrwt>
<totfact> 0.51249898E+01</totfact>
</mgrwt>
</event>
<event>
 6    1  0.1817112E-005  0.2283449E+04  0.7818608E-02  0.8484476E-01
          1   -1    0    0  501    0  0.00000000000E+00  0.00000000000E+00  0.16050637794E+04  0.16050637794E+04  0.00000000000E+00 0. -1.
         -1   -1    0    0    0  501 -0.00000000000E+00 -0.00000000000E+00 -0.81213913083E+03  0.81213913083E+03  0.00000000000E+00 0.  1.
         23    2    1    2    0    0  0.71873663286E+03  0.83063959718E+03  0.71967744756E+03  0.13163352342E+04  0.90875367024E+02 0.  0.
         11    1    3    3    0    0  0.21027682567E+03  0.26077721493E+03  0.17228267499E+03  0.37669937529E+03  0.00000000000E+00 0.  1.
        -11    1    3    3    0    0  0.50845980719E+03  0.56986238225E+03  0.54739477257E+03  0.93963585887E+03  0.00000000000E+00 0. -1.
         22    1    1    2    0    0 -0.71873663286E+03 -0.83063959718E+03  0.73247201040E+02  0.11008676761E+04  0.00000000000E+00 0.  1.
<mgrwt>
<rscale>  0 0.22834492E+04</rscale>
<asrwt>0</asrwt>
<pdfrwt beam="1">  1        1 0.24693289E+00 0.22834492E+04</pdfrwt>
<pdfrwt beam="2">  1       -1 0.12494448E+00 0.22834492E+04</pdfrwt>
<totfact> 0.28071427E+00</totfact>
</mgrwt>
</event>
<event>
 6    1  0.1817112E-005  0.6516965E+03  0.7818608E-02  0.9803601E-01
          2   -1    0    0  501    0  0.00000000000E+00  0.00000000000E+00  0.33749667524E+04  0.33749667524E+04  0.00000000000E+00 0. -1.
         -2   -1    0    0    0  501 -0.00000000000E+00 -0.00000000000E+00 -0.31460184589E+02  0.31460184589E+02  0.00000000000E+00 0.  1.
         23    2    1    2    0    0 -0.12722049612E+03 -0.57069088220E+02  0.32069083246E+04  0.32112321228E+04  0.91152664548E+02 0.  0.
         11    1    3    3    0    0 -0.97581401715E+02 -0.79459078548E+02  0.27197355876E+04  0.27226453205E+04  0.00000000000E+00 0.  1.
        -11    1    3    3    0    0 -0.29639094407E+02  0.22389990328E+02  0.48717273704E+03  0.48858680222E+03  0.00000000000E+00 0. -1.
         22    1    1    2    0    0  0.12722049612E+03  0.57069088220E+02  0.13659824323E+03  0.19519481427E+03  0.00000000000E+00 0.  1.
<mgrwt>
<rscale>  0 0.65169648E+03</rscale>
<asrwt>0</asrwt>
<pdfrwt beam="1">  1        2 0.51922537E+00 0.65169648E+03</pdfrwt>
<pdfrwt beam="2">  1       -2 0.48400311E-02 0.65169648E+03</pdfrwt>
<totfact> 0.23350082E+02</totfact>
</mgrwt>
</event>
<event>
 6    1  0.1817112E-005  0.4729514E+04  0.7818608E-02  0.7871643E-01
          2   -1    0    0  501    0  0.00000000000E+00  0.00000000000E+00  0.21523014617E+04  0.21523014617E+04  0.00000000000E+00 0. -1.
         -2   -1    0    0    0  501 -0.00000000000E+00 -0.00000000000E+00 -0.25981846744E+04  0.25981846744E+04  0.00000000000E+00 0.  1.
         23    2    1    2    0    0  0.16844753922E+04 -0.16285802873E+04 -0.53855678127E+03  0.24056365696E+04  0.85514906764E+02 0.  0.
         13    1    3    3    0    0  0.95841338258E+03 -0.98418121053E+03 -0.32357511490E+03  0.14113361478E+04  0.00000000000E+00 0.  1.
        -13    1    3    3    0    0  0.72606200965E+03 -0.64439907673E+03 -0.21498166638E+03  0.99430042182E+03  0.00000000000E+00 0. -1.
         22    1    1    2    0    0 -0.16844753922E+04  0.16285802873E+04  0.92673568506E+02  0.23448495665E+04  0.00000000000E+00 0. -1.
<mgrwt>
<rscale>  0 0.47295144E+04</rscale>
<asrwt>0</asrwt>
<pdfrwt beam="1">  1        2 0.33112330E+00 0.47295144E+04</pdfrwt>
<pdfrwt beam="2">  1       -2 0.39972072E+00 0.47295144E+04</pdfrwt>
<totfact> 0.30464177E-02</totfact>
</mgrwt>
</event>
<event>
 6    1  0.1817112E-005  0.5101416E+04  0.7818608E-02  0.7813051E-01
         -2   -1    0    0    0  501 -0.00000000000E+00  0.00000000000E+00  0.18138294481E+04  0.18138294481E+04  0.00000000000E+00 0.  1.
          2   -1    0    0  501    0  0.00000000000E+00 -0.00000000000E+00 -0.35869470718E+04  0.35869470718E+04  0.00000000000E+00 0. -1.
         23    2    1    2    0    0  0.18896511696E+04  0.15843249841E+04 -0.19990195737E+03  0.24757338312E+04  0.91815098521E+02 0.  0.
         13    1    3    3    0    0  0.27682515957E+03  0.27346062093E+03 -0.20824902004E+02  0.38967493725E+03  0.00000000000E+00 0.  1.
        -13    1    3    3    0    0  0.16128260100E+04  0.13108643632E+04 -0.17907705537E+03  0.20860588939E+04  0.00000000000E+00 0. -1.
         22    1    1    2    0    0 -0.18896511696E+04 -0.15843249841E+04 -0.15732156663E+04  0.29250426887E+04  0.00000000000E+00 0. -1.
<mgrwt>
<rscale>  0 0.51014156E+04</rscale>
<asrwt>0</asrwt>
<pdfrwt beam="1">  1        2 0.55183800E+00 0.51014156E+04</pdfrwt>
<pdfrwt beam="2">  1       -2 0.27905069E+00 0.51014156E+04</pdfrwt>
<totfact> 0.21691732E-02</totfact>
</mgrwt>
</event>
<event>
 6    1  0.1817112E-005  0.3329532E+04  0.7818608E-02  0.8155421E-01
         -2   -1    0    0    0  501 -0.00000000000E+00  0.00000000000E+00  0.13281874217E+04  0.13281874217E+04  0.00000000000E+00 0.  1.
          2   -1    0    0  501    0  0.00000000000E+00 -0.00000000000E+00 -0.20866380879E+04  0.20866380879E+04  0.00000000000E+00 0. -1.
         23    2    1    2    0    0 -0.46977452868E+03 -0.77260553575E+03  0.10526094296E+04  0.13905858764E+04  0.90194493688E+02 0.  0.
         11    1    3    3    0    0 -0.23606940319E+03 -0.34025996611E+03  0.53887213710E+03  0.67962400473E+03  0.00000000000E+00 0. -1.
        -11    1    3    3    0    0 -0.23370512549E+03 -0.43234556964E+03  0.51373729253E+03  0.71096187169E+03  0.00000000000E+00 0.  1.
         22    1    1    2    0    0  0.46977452868E+03  0.77260553575E+03 -0.18110600958E+04  0.20242396331E+04  0.00000000000E+00 0. -1.
<mgrwt>
<rscale>  0 0.33295324E+04</rscale>
<asrwt>0</asrwt>
<pdfrwt beam="1">  1        2 0.32102125E+00 0.33295324E+04</pdfrwt>
<pdfrwt beam="2">  1       -2 0.20433653E+00 0.33295324E+04</pdfrwt>
<totfact> 0.62059063E-01</totfact>
</mgrwt>
</event>
<event>
 6    1  0.1817112E-005  0.3186311E+04  0.7818608E-02  0.8192442E-01
         -1   -1    0    0    0  501 -0.00000000000E+00  0.00000000000E+00  0.11224760132E+04  0.11224760132E+04  0.00000000000E+00 0.  1.
          1   -1    0    0  501    0  0.00000000000E+00 -0.00000000000E+00 -0.22612012164E+04  0.22612012164E+04  0.00000000000E+00 0. -1.
         23    2    1    2    0    0  0.11022347199E+04  0.99867484622E+03  0.32309464173E+02  0.14906386620E+04  0.93203502671E+02 0.  0.
         13    1    3    3    0    0  0.14973470006E+03  0.18112969534E+03  0.12370561959E+01  0.23501058964E+03  0.00000000000E+00 0.  1.
        -13    1    3    3    0    0  0.95250001987E+03  0.81754515088E+03  0.31072407978E+02  0.12556280724E+04  0.00000000000E+00 0. -1.
         22    1    1    2    0    0 -0.11022347199E+04 -0.99867484622E+03 -0.11710346673E+04  0.18930385676E+04  0.00000000000E+00 0.  1.
<mgrwt>
<rscale>  0 0.31863108E+04</rscale>
<asrwt>0</asrwt>
<pdfrwt beam="1">  1        1 0.34787711E+00 0.31863108E+04</pdfrwt>
<pdfrwt beam="2">  1       -1 0.17268862E+00 0.31863108E+04</pdfrwt>
<totfact> 0.38966148E-01</totfact>
</mgrwt>
</event>
<event>
 6    1  0.1817112E-005  0.3916125E+04  0.7818608E-02  0.8021684E-01
          2   -1    0    0  501    0  0.00000000000E+00  0.00000000000E+00  0.23660498106E+04  0.23660498106E+04  0.00000000000E+00 0. -1.
         -2   -1    0    0    0  501 -0.00000000000E+00 -0.00000000000E+00 -0.16204263450E+04  0.16204263450E+04  0.00000000000E+00 0.  1.
         23    2    1    2    0    0  0.16074136044E+04  0.95453894625E+03  0.96221989375E+03  0.21044992407E+04  0.90148958088E+02 0.  0.
         11    1    3    3    0    0  0.10622485427E+04  0.61100381480E+03  0.58611486590E+03  0.13583917933E+04  0.00000000000E+00 0. -1.
        -11    1    3    3    0    0  0.54516506175E+03  0.34353513144E+03  0.37610502784E+03  0.74610744739E+03  0.00000000000E+00 0.  1.
         22    1    1    2    0    0 -0.16074136044E+04 -0.95453894625E+03 -0.21659642814E+03  0.18819769149E+04  0.00000000000E+00 0.  1.
<mgrwt>
<rscale>  0 0.39161254E+04</rscale>
<asrwt>0</asrwt>
<pdfrwt beam="1">  1        2 0.36400766E+00 0.39161254E+04</pdfrwt>
<pdfrwt beam="2">  1       -2 0.24929636E+00 0.39161254E+04</pdfrwt>
<totfact> 0.21432925E-01</totfact>
</mgrwt>
</event>
<event>
 6    1  0.1817112E-005  0.4142101E+03  0.7818608E-02  0.1038967E+00
         -4   -1    0    0    0  501 -0.00000000000E+00  0.00000000000E+00  0.37814122530E+03  0.37814122530E+03  0.00000000000E+00 0.  1.
          4   -1    0    0  501    0  0.00000000000E+00 -0.00000000000E+00 -0.11342987033E+03  0.11342987033E+03  0.00000000000E+00 0. -1.
         23    2    1    2    0    0  0.17100347864E+02 -0.12215910239E+03 -0.43893763318E+02  0.15922731694E+03  0.90616818570E+02 0.  0.
         13    1    3    3    0    0 -0.19899026307E+02 -0.32011550950E+01 -0.26721547839E+02  0.33470281756E+02  0.00000000000E+00 0.  1.
        -13    1    3    3    0    0  0.36999374171E+02 -0.11895794730E+03 -0.17172215479E+02  0.12575703519E+03  0.00000000000E+00 0. -1.
         22    1    1    2    0    0 -0.17100347864E+02  0.12215910239E+03  0.30860511829E+03  0.33234377868E+03  0.00000000000E+00 0.  1.
<mgrwt>
<rscale>  0 0.41421014E+03</rscale>
<asrwt>0</asrwt>
<pdfrwt beam="1">  1        4 0.17450749E-01 0.41421014E+03</pdfrwt>
<pdfrwt beam="2">  1       -4 0.58175573E-01 0.41421014E+03</pdfrwt>
<totfact> 0.15873108E+02</totfact>
</mgrwt>
</event>
<event>
 6    1  0.1817112E-005  0.2672694E+04  0.7818608E-02  0.8343920E-01
         -2   -1    0    0    0  501 -0.00000000000E+00  0.00000000000E+00  0.73296613121E+03  0.73296613121E+03  0.00000000000E+00 0. -1.
          2   -1    0    0  501    0  0.00000000000E+00 -0.00000000000E+00 -0.24364332952E+04  0.24364332952E+04  0.00000000000E+00 0.  1.
         23    2    1    2    0    0  0.73453199409E+03  0.75088546925E+03  0.12384757024E+03  0.10616884936E+04  0.92076047732E+02 0.  0.
         11    1    3    3    0    0  0.21185283574E+03  0.20350262941E+03  0.75440789369E+02  0.30329236206E+03  0.00000000000E+00 0.  1.
        -11    1    3    3    0    0  0.52267915836E+03  0.54738283984E+03  0.48406780870E+02  0.75839613156E+03  0.00000000000E+00 0. -1.
         22    1    1    2    0    0 -0.73453199409E+03 -0.75088546925E+03 -0.18273147343E+04  0.21077109328E+04  0.00000000000E+00 0.  1.
<mgrwt>
<rscale>  0 0.26726938E+04</rscale>
<asrwt>0</asrwt>
<pdfrwt beam="1">  1        2 0.37483589E+00 0.26726938E+04</pdfrwt>
<pdfrwt beam="2">  1       -2 0.11276402E+00 0.26726938E+04</pdfrwt>
<totfact> 0.20600448E+00</totfact>
</mgrwt>
</event>
<event>
 6    1  0.1817112E-005  0.3432751E+04  0.7818608E-02  0.8129915E-01
         -2   -1    0    0    0  501 -0.00000000000E+00  0.00000000000E+00  0.84187595642E+03  0.84187595642E+03  0.00000000000E+00 0.  1.
          2   -1    0    0  501    0  0.00000000000E+00 -0.00000000000E+00 -0.34992630648E+04  0.34992630648E+04  0.00000000000E+00 0. -1.
         23    2    1    2    0    0  0.71982554196E+03  0.18940313052E+03 -0.32838008038E+04  0.33682996334E+04  0.89846226259E+02 0.  0.
         13    1    3    3    0    0  0.55468140062E+03  0.10892059701E+03 -0.25412396481E+04  0.26033505530E+04  0.00000000000E+00 0. -1.
        -13    1    3    3    0    0  0.16514414134E+03  0.80482533511E+02 -0.74256115566E+03  0.76494908034E+03  0.00000000000E+00 0.  1.
         22    1    1    2    0    0 -0.71982554196E+03 -0.18940313052E+03  0.62641369543E+03  0.97283938784E+03  0.00000000000E+00 0.  1.
<mgrwt>
<rscale>  0 0.34327513E+04</rscale>
<asrwt>0</asrwt>
<pdfrwt beam="1">  1        2 0.53834816E+00 0.34327513E+04</pdfrwt>
<pdfrwt beam="2">  1       -2 0.12951938E+00 0.34327513E+04</pdfrwt>
<totfact> 0.29436534E-01</totfact>
</mgrwt>
</event>
<event>
 6    1  0.1817112E-005  0.1868936E+04  0.7818608E-02  0.8670475E-01
          2   -1    0    0  501    0  0.00000000000E+00  0.00000000000E+00  0.45488782874E+03  0.45488782874E+03  0.00000000000E+00 0. -1.
         -2   -1    0    0    0  501 -0.00000000000E+00 -0.00000000000E+00 -0.19196618878E+04  0.19196618878E+04  0.00000000000E+00 0.  1.
         23    2    1    2    0    0 -0.59903534186E+03 -0.31504441543E+02 -0.16406588475E+04  0.17494326639E+04  0.94431567946E+02 0.  0.
         13    1    3    3    0    0 -0.48518477315E+03  0.11273716977E+02 -0.12889088707E+04  0.13772499547E+04  0.00000000000E+00 0. -1.
        -13    1    3    3    0    0 -0.11385056871E+03 -0.42778158520E+02 -0.35174997684E+03  0.37218270923E+03  0.00000000000E+00 0.  1.
         22    1    1    2    0    0  0.59903534186E+03  0.31504441543E+02  0.17588478847E+03  0.62511705260E+03  0.00000000000E+00 0. -1.
<mgrwt>
<rscale>  0 0.18689364E+04</rscale>
<asrwt>0</asrwt>
<pdfrwt beam="1">  1        2 0.69982745E-01 0.18689364E+04</pdfrwt>
<pdfrwt beam="2">  1       -2 0.29533259E+00 0.18689364E+04</pdfrwt>
<totfact> 0.21919670E+00</totfact>
</mgrwt>
</event>
<event>
 6    1  0.1817112E-005  0.3508390E+04  0.7818608E-02  0.8111804E-01
         -2   -1    0    0    0  501 -0.00000000000E+00  0.00000000000E+00  0.94578093976E+03  0.94578093976E+03  0.00000000000E+00 0.  1.
          2   -1    0    0  501    0  0.00000000000E+00 -0.00000000000E+00 -0.32536083811E+04  0.32536083811E+04  0.00000000000E+00 0. -1.
         23    2    1    2    0    0  0.79421025121E+03  0.29392687855E+03 -0.29919229134E+04  0.31107435806E+04  0.89218671697E+02 0.  0.
         13    1    3    3    0    0  0.38998952386E+03  0.99996055456E+02 -0.14740717912E+04  0.15280637047E+04  0.00000000000E+00 0. -1.
        -13    1    3    3    0    0  0.40422072735E+03  0.19393082309E+03 -0.15178511222E+04  0.15826798759E+04  0.00000000000E+00 0.  1.
         22    1    1    2    0    0 -0.79421025121E+03 -0.29392687855E+03  0.68409547203E+03  0.10886457403E+04  0.00000000000E+00 0.  1.
<mgrwt>
<rscale>  0 0.35083904E+04</rscale>
<asrwt>0</asrwt>
<pdfrwt beam="1">  1        2 0.50055512E+00 0.35083904E+04</pdfrwt>
<pdfrwt beam="2">  1       -2 0.14550476E+00 0.35083904E+04</pdfrwt>
<totfact> 0.31845533E-01</totfact>
</mgrwt>
</event>
<event>
 6    1  0.1817112E-005  0.2841464E+04  0.7818608E-02  0.8290510E-01
         -1   -1    0    0    0  501 -0.00000000000E+00  0.00000000000E+00  0.82235417334E+03  0.82235417334E+03  0.00000000000E+00 0.  1.
          1   -1    0    0  501    0  0.00000000000E+00 -0.00000000000E+00 -0.24545138049E+04  0.24545138049E+04  0.00000000000E+00 0. -1.
         23    2    1    2    0    0 -0.49539767140E+03  0.60536976910E+03  0.54874727646E+03  0.95992034146E+03  0.91826348894E+02 0.  0.
         13    1    3    3    0    0 -0.19459771602E+03  0.30043095431E+03  0.27762163018E+03  0.45299094796E+03  0.00000000000E+00 0.  1.
        -13    1    3    3    0    0 -0.30079995538E+03  0.30493881479E+03  0.27112564628E+03  0.50692939350E+03  0.00000000000E+00 0. -1.
         22    1    1    2    0    0  0.49539767140E+03 -0.60536976910E+03 -0.21809069080E+04  0.23169476368E+04  0.00000000000E+00 0. -1.
<mgrwt>
<rscale>  0 0.28414642E+04</rscale>
<asrwt>0</asrwt>
<pdfrwt beam="1">  1        1 0.37761750E+00 0.28414642E+04</pdfrwt>
<pdfrwt beam="2">  1       -1 0.12651603E+00 0.28414642E+04</pdfrwt>
<totfact> 0.68214182E-01</totfact>
</mgrwt>
</event>
<event>
 6    1  0.1817112E-005  0.3926583E+04  0.7818608E-02  0.8019523E-01
         -2   -1    0    0    0  501 -0.00000000000E+00  0.00000000000E+00  0.14935966190E+04  0.14935966190E+04  0.00000000000E+00 0.  1.
          2   -1    0    0  501    0  0.00000000000E+00 -0.00000000000E+00 -0.25806920490E+04  0.25806920490E+04  0.00000000000E+00 0. -1.
         23    2    1    2    0    0 -0.13832419007E+04 -0.13428962118E+04 -0.16773595228E+03  0.19384164244E+04  0.11222518876E+03 0.  0.
         13    1    3    3    0    0 -0.92279922551E+03 -0.92673115779E+03 -0.16138656629E+03  0.13177384692E+04  0.00000000000E+00 0. -1.
        -13    1    3    3    0    0 -0.46044267521E+03 -0.41616505406E+03 -0.63493859953E+01  0.62067795521E+03  0.00000000000E+00 0.  1.
         22    1    1    2    0    0  0.13832419007E+04  0.13428962118E+04 -0.91935947772E+03  0.21358722436E+04  0.00000000000E+00 0.  1.
<mgrwt>
<rscale>  0 0.39265827E+04</rscale>
<asrwt>0</asrwt>
<pdfrwt beam="1">  1        2 0.39702955E+00 0.39265827E+04</pdfrwt>
<pdfrwt beam="2">  1       -2 0.22978410E+00 0.39265827E+04</pdfrwt>
<totfact> 0.21258635E-01</totfact>
</mgrwt>
</event>
<event>
 6    1  0.1817112E-005  0.1718819E+04  0.7818608E-02  0.8750703E-01
         -1   -1    0    0    0  501 -0.00000000000E+00  0.00000000000E+00  0.29851877575E+03  0.29851877575E+03  0.00000000000E+00 0.  1.
          1   -1    0    0  501    0  0.00000000000E+00 -0.00000000000E+00 -0.24741647596E+04  0.24741647596E+04  0.00000000000E+00 0. -1.
         23    2    1    2    0    0 -0.55802619604E+03  0.61682555428E+03 -0.75747474120E+03  0.11285799275E+04  0.89764521406E+02 0.  0.
         13    1    3    3    0    0 -0.38987137797E+03  0.45069751376E+03 -0.59232463222E+03  0.84022402382E+03  0.00000000000E+00 0. -1.
        -13    1    3    3    0    0 -0.16815481806E+03  0.16612804053E+03 -0.16515010898E+03  0.28835590368E+03  0.00000000000E+00 0.  1.
         22    1    1    2    0    0  0.55802619604E+03 -0.61682555428E+03 -0.14181712426E+04  0.16441036078E+04  0.00000000000E+00 0. -1.
<mgrwt>
<rscale>  0 0.17188189E+04</rscale>
<asrwt>0</asrwt>
<pdfrwt beam="1">  1        1 0.38064071E+00 0.17188189E+04</pdfrwt>
<pdfrwt beam="2">  1       -1 0.45925968E-01 0.17188189E+04</pdfrwt>
<totfact> 0.63319186E+00</totfact>
</mgrwt>
</event>
<event>
 6    1  0.1817112E-005  0.3110117E+04  0.7818608E-02  0.8212967E-01
         -2   -1    0    0    0  501 -0.00000000000E+00  0.00000000000E+00  0.48810996359E+03  0.48810996359E+03  0.00000000000E+00 0.  1.
          2   -1    0    0  501    0  0.00000000000E+00 -0.00000000000E+00 -0.49542258746E+04  0.49542258746E+04  0.00000000000E+00 0. -1.
         23    2    1    2    0    0 -0.20054179669E+03 -0.50611340524E+03 -0.47814284998E+04  0.48132175506E+04  0.92934924302E+02 0.  0.
         13    1    3    3    0    0 -0.47123570112E+02 -0.23118391332E+03 -0.18748939911E+04  0.18896809546E+04  0.00000000000E+00 0.  1.
        -13    1    3    3    0    0 -0.15341822657E+03 -0.27492949193E+03 -0.29065345087E+04  0.29235365960E+04  0.00000000000E+00 0. -1.
         22    1    1    2    0    0  0.20054179669E+03  0.50611340524E+03  0.31531258872E+03  0.62911828760E+03  0.00000000000E+00 0.  1.
<mgrwt>
<rscale>  0 0.31101170E+04</rscale>
<asrwt>0</asrwt>
<pdfrwt beam="1">  1        2 0.76218860E+00 0.31101170E+04</pdfrwt>
<pdfrwt beam="2">  1       -2 0.75093840E-01 0.31101170E+04</pdfrwt>
<totfact> 0.52772073E-02</totfact>
</mgrwt>
</event>
<event>
 6    1  0.1817112E-005  0.2474312E+04  0.7818608E-02  0.8412195E-01
          2   -1    0    0  501    0  0.00000000000E+00  0.00000000000E+00  0.17181483424E+04  0.17181483424E+04  0.00000000000E+00 0. -1.
         -2   -1    0    0    0  501 -0.00000000000E+00 -0.00000000000E+00 -0.89081665315E+03  0.89081665315E+03  0.00000000000E+00 0.  1.
         23    2    1    2    0    0 -0.22548883522E+03  0.11286832512E+04 -0.59755957526E+02  0.11557975622E+04  0.86753292964E+02 0.  0.
         13    1    3    3    0    0 -0.18420537918E+03  0.77362477678E+03 -0.68884533546E+02  0.79823054059E+03  0.00000000000E+00 0.  1.
        -13    1    3    3    0    0 -0.41283456034E+02  0.35505847444E+03  0.91285760199E+01  0.35756702157E+03  0.00000000000E+00 0. -1.
         22    1    1    2    0    0  0.22548883522E+03 -0.11286832512E+04  0.88708764676E+03  0.14531674334E+04  0.00000000000E+00 0.  1.
<mgrwt>
<rscale>  0 0.24743122E+04</rscale>
<asrwt>0</asrwt>
<pdfrwt beam="1">  1        2 0.26433051E+00 0.24743122E+04</pdfrwt>
<pdfrwt beam="2">  1       -2 0.13704872E+00 0.24743122E+04</pdfrwt>
<totfact> 0.32508702E+00</totfact>
</mgrwt>
</event>
<event>
 6    1  0.1817112E-005  0.2411404E+04  0.7818608E-02  0.8435246E-01
         -2   -1    0    0    0  501 -0.00000000000E+00  0.00000000000E+00  0.70188814372E+03  0.70188814372E+03  0.00000000000E+00 0.  1.
          2   -1    0    0  501    0  0.00000000000E+00 -0.00000000000E+00 -0.20711530970E+04  0.20711530970E+04  0.00000000000E+00 0. -1.
         23    2    1    2    0    0 -0.84414522310E+03 -0.38828466431E+03  0.19478023376E+03  0.95381517303E+03  0.92075548427E+02 0.  0.
         11    1    3    3    0    0 -0.58284453769E+03 -0.23683182954E+03  0.98287385710E+02  0.63675543247E+03  0.00000000000E+00 0.  1.
        -11    1    3    3    0    0 -0.26130068541E+03 -0.15145283477E+03  0.96492848053E+02  0.31705974056E+03  0.00000000000E+00 0. -1.
         22    1    1    2    0    0  0.84414522310E+03  0.38828466431E+03 -0.15640451871E+04  0.18192260677E+04  0.00000000000E+00 0. -1.
<mgrwt>
<rscale>  0 0.24114044E+04</rscale>
<asrwt>0</asrwt>
<pdfrwt beam="1">  1        2 0.31863894E+00 0.24114044E+04</pdfrwt>
<pdfrwt beam="2">  1       -2 0.10798279E+00 0.24114044E+04</pdfrwt>
<totfact> 0.37640363E+00</totfact>
</mgrwt>
</event>
<event>
 6    1  0.1817112E-005  0.1470631E+04  0.7818608E-02  0.8904222E-01
         -2   -1    0    0    0  501 -0.00000000000E+00  0.00000000000E+00  0.15229569026E+03  0.15229569026E+03  0.00000000000E+00 0.  1.
          2   -1    0    0  501    0  0.00000000000E+00 -0.00000000000E+00 -0.35502556674E+04  0.35502556674E+04  0.00000000000E+00 0. -1.
         23    2    1    2    0    0  0.45245972294E+03  0.46674994803E+03 -0.25554742997E+04  0.26384285116E+04  0.90998897794E+02 0.  0.
         11    1    3    3    0    0  0.26414594832E+03  0.33313054981E+03 -0.16146599595E+04  0.16696933342E+04  0.00000000000E+00 0.  1.
        -11    1    3    3    0    0  0.18831377462E+03  0.13361939822E+03 -0.94081434018E+03  0.96873517743E+03  0.00000000000E+00 0. -1.
         22    1    1    2    0    0 -0.45245972294E+03 -0.46674994803E+03 -0.84248567747E+03  0.10641228461E+04  0.00000000000E+00 0.  1.
<mgrwt>
<rscale>  0 0.14706307E+04</rscale>
<asrwt>0</asrwt>
<pdfrwt beam="1">  1        2 0.54619315E+00 0.14706307E+04</pdfrwt>
<pdfrwt beam="2">  1       -2 0.23430107E-01 0.14706307E+04</pdfrwt>
<totfact> 0.11890392E+01</totfact>
</mgrwt>
</event>
<event>
 6    1  0.1817112E-005  0.3635906E+04  0.7818608E-02  0.8082316E-01
         -2   -1    0    0    0  501 -0.00000000000E+00  0.00000000000E+00  0.94759703460E+03  0.94759703460E+03  0.00000000000E+00 0.  1.
          2   -1    0    0  501    0  0.00000000000E+00 -0.00000000000E+00 -0.34877193062E+04  0.34877193062E+04  0.00000000000E+00 0. -1.
         23    2    1    2    0    0 -0.28778786326E+03 -0.13792488223E+04  0.12827367869E+03  0.14177865372E+04  0.92278710821E+02 0.  0.
         11    1    3    3    0    0 -0.19107176554E+03 -0.81371651356E+03  0.35591957588E+02  0.83660610294E+03  0.00000000000E+00 0.  1.
        -11    1    3    3    0    0 -0.96716097719E+02 -0.56553230872E+03  0.92681721100E+02  0.58118043428E+03  0.00000000000E+00 0. -1.
         22    1    1    2    0    0  0.28778786326E+03  0.13792488223E+04 -0.26683959503E+04  0.30175298036E+04  0.00000000000E+00 0. -1.
<mgrwt>
<rscale>  0 0.36359056E+04</rscale>
<asrwt>0</asrwt>
<pdfrwt beam="1">  1        2 0.53657220E+00 0.36359056E+04</pdfrwt>
<pdfrwt beam="2">  1       -2 0.14578416E+00 0.36359056E+04</pdfrwt>
<totfact> 0.21733608E-01</totfact>
</mgrwt>
</event>
<event>
 6    1  0.1817112E-005  0.3187278E+04  0.7818608E-02  0.8192185E-01
          2   -1    0    0  501    0  0.00000000000E+00  0.00000000000E+00  0.32881198340E+04  0.32881198340E+04  0.00000000000E+00 0. -1.
         -2   -1    0    0    0  501 -0.00000000000E+00 -0.00000000000E+00 -0.77238210541E+03  0.77238210541E+03  0.00000000000E+00 0.  1.
         23    2    1    2    0    0  0.11951065191E+04 -0.16115617412E+03 -0.65706933145E+02  0.12112726671E+04  0.92807158468E+02 0.  0.
         11    1    3    3    0    0  0.56196224144E+03 -0.11165312623E+03 -0.13985680810E+01  0.57294845963E+03  0.00000000000E+00 0. -1.
        -11    1    3    3    0    0  0.63314427764E+03 -0.49503047889E+02 -0.64308365063E+02  0.63832420750E+03  0.00000000000E+00 0.  1.
         22    1    1    2    0    0 -0.11951065191E+04  0.16115617412E+03  0.25814446618E+04  0.28492292723E+04  0.00000000000E+00 0. -1.
<mgrwt>
<rscale>  0 0.31872778E+04</rscale>
<asrwt>0</asrwt>
<pdfrwt beam="1">  1        2 0.50586458E+00 0.31872778E+04</pdfrwt>
<pdfrwt beam="2">  1       -2 0.11882802E+00 0.31872778E+04</pdfrwt>
<totfact> 0.51974745E-01</totfact>
</mgrwt>
</event>
<event>
 6    1  0.1817112E-005  0.3513395E+04  0.7818608E-02  0.8110623E-01
         -2   -1    0    0    0  501 -0.00000000000E+00  0.00000000000E+00  0.10246066719E+04  0.10246066719E+04  0.00000000000E+00 0.  1.
          2   -1    0    0  501    0  0.00000000000E+00 -0.00000000000E+00 -0.30118736414E+04  0.30118736414E+04  0.00000000000E+00 0. -1.
         23    2    1    2    0    0 -0.72229078541E+03 -0.90823686295E+03  0.51900840267E+03  0.12745942876E+04  0.92858484157E+02 0.  0.
         13    1    3    3    0    0 -0.22021694893E+03 -0.31027308123E+03  0.12852170606E+03  0.40160019729E+03  0.00000000000E+00 0.  1.
        -13    1    3    3    0    0 -0.50207383647E+03 -0.59796378172E+03  0.39048669661E+03  0.87299409033E+03  0.00000000000E+00 0. -1.
         22    1    1    2    0    0  0.72229078541E+03  0.90823686295E+03 -0.25062753721E+04  0.27618860257E+04  0.00000000000E+00 0. -1.
<mgrwt>
<rscale>  0 0.35133948E+04</rscale>
<asrwt>0</asrwt>
<pdfrwt beam="1">  1        2 0.46336518E+00 0.35133948E+04</pdfrwt>
<pdfrwt beam="2">  1       -2 0.15763179E+00 0.35133948E+04</pdfrwt>
<totfact> 0.36823774E-01</totfact>
</mgrwt>
</event>
<event>
 6    1  0.1817112E-005  0.1975819E+04  0.7818608E-02  0.8618010E-01
          2   -1    0    0  501    0  0.00000000000E+00  0.00000000000E+00  0.60757077147E+03  0.60757077147E+03  0.00000000000E+00 0. -1.
         -2   -1    0    0    0  501 -0.00000000000E+00 -0.00000000000E+00 -0.16063396652E+04  0.16063396652E+04  0.00000000000E+00 0.  1.
         23    2    1    2    0    0 -0.42238599962E+03 -0.89024873972E+03 -0.53205794484E+03  0.11236022871E+04  0.91889561672E+02 0.  0.
         13    1    3    3    0    0 -0.10738403809E+03 -0.24951375011E+03 -0.10233056210E+03  0.29027570872E+03  0.00000000000E+00 0. -1.
        -13    1    3    3    0    0 -0.31500196153E+03 -0.64073498961E+03 -0.42972738274E+03  0.83332657833E+03  0.00000000000E+00 0.  1.
         22    1    1    2    0    0  0.42238599962E+03  0.89024873972E+03 -0.46671094885E+03  0.10903081496E+04  0.00000000000E+00 0.  1.
<mgrwt>
<rscale>  0 0.19758188E+04</rscale>
<asrwt>0</asrwt>
<pdfrwt beam="1">  1        2 0.93472426E-01 0.19758188E+04</pdfrwt>
<pdfrwt beam="2">  1       -2 0.24712918E+00 0.19758188E+04</pdfrwt>
<totfact> 0.30427770E+00</totfact>
</mgrwt>
</event>
<event>
 6    1  0.1817112E-005  0.4804046E+04  0.7818608E-02  0.7859467E-01
         -2   -1    0    0    0  501 -0.00000000000E+00  0.00000000000E+00  0.21423550951E+04  0.21423550951E+04  0.00000000000E+00 0.  1.
          2   -1    0    0  501    0  0.00000000000E+00 -0.00000000000E+00 -0.26931640936E+04  0.26931640936E+04  0.00000000000E+00 0. -1.
         23    2    1    2    0    0  0.16390679044E+04 -0.10480981986E+04 -0.16919823619E+04  0.25800081436E+04  0.92651384700E+02 0.  0.
         11    1    3    3    0    0  0.68425511721E+03 -0.43588382212E+03 -0.76637086281E+03  0.11160304974E+04  0.00000000000E+00 0. -1.
        -11    1    3    3    0    0  0.95481278723E+03 -0.61221437644E+03 -0.92561149905E+03  0.14639776462E+04  0.00000000000E+00 0.  1.
         22    1    1    2    0    0 -0.16390679044E+04  0.10480981986E+04  0.11411733633E+04  0.22555110450E+04  0.00000000000E+00 0.  1.
<mgrwt>
<rscale>  0 0.48040457E+04</rscale>
<asrwt>0</asrwt>
<pdfrwt beam="1">  1        2 0.41433294E+00 0.48040457E+04</pdfrwt>
<pdfrwt beam="2">  1       -2 0.32959309E+00 0.48040457E+04</pdfrwt>
<totfact> 0.41381964E-02</totfact>
</mgrwt>
</event>
<event>
 6    1  0.1817112E-005  0.6670398E+03  0.7818608E-02  0.9775320E-01
         -2   -1    0    0    0  501 -0.00000000000E+00  0.00000000000E+00  0.74768209465E+02  0.74768209465E+02  0.00000000000E+00 0.  1.
          2   -1    0    0  501    0  0.00000000000E+00 -0.00000000000E+00 -0.14877382537E+04  0.14877382537E+04  0.00000000000E+00 0. -1.
         23    2    1    2    0    0  0.22644964564E+03 -0.13381311701E+02 -0.12724787379E+04  0.12956800989E+04  0.90145874773E+02 0.  0.
         11    1    3    3    0    0  0.14363600203E+03 -0.42514085516E+02 -0.64973843548E+03  0.66678241060E+03  0.00000000000E+00 0. -1.
        -11    1    3    3    0    0  0.82813643616E+02  0.29132773814E+02 -0.62274030241E+03  0.62889768828E+03  0.00000000000E+00 0.  1.
         22    1    1    2    0    0 -0.22644964564E+03  0.13381311701E+02 -0.14049130633E+03  0.26682636427E+03  0.00000000000E+00 0.  1.
<mgrwt>
<rscale>  0 0.66703981E+03</rscale>
<asrwt>0</asrwt>
<pdfrwt beam="1">  1        2 0.22888280E+00 0.66703981E+03</pdfrwt>
<pdfrwt beam="2">  1       -2 0.11502802E-01 0.66703981E+03</pdfrwt>
<totfact> 0.71527903E+02</totfact>
</mgrwt>
</event>
<event>
 6    1  0.1817112E-005  0.4195506E+04  0.7818608E-02  0.7966228E-01
         -2   -1    0    0    0  501 -0.00000000000E+00  0.00000000000E+00  0.18219643024E+04  0.18219643024E+04  0.00000000000E+00 0. -1.
          2   -1    0    0  501    0  0.00000000000E+00 -0.00000000000E+00 -0.24152875137E+04  0.24152875137E+04  0.00000000000E+00 0.  1.
         23    2    1    2    0    0  0.62296869603E+03  0.18842502880E+04  0.38678768487E+03  0.20238592814E+04  0.88952424756E+02 0.  0.
         13    1    3    3    0    0  0.16945238126E+03  0.46271359183E+03  0.13195676850E+03  0.51012799015E+03  0.00000000000E+00 0. -1.
        -13    1    3    3    0    0  0.45351631477E+03  0.14215366962E+04  0.25483091637E+03  0.15137312913E+04  0.00000000000E+00 0.  1.
         22    1    1    2    0    0 -0.62296869603E+03 -0.18842502880E+04 -0.98011089615E+03  0.22133925347E+04  0.00000000000E+00 0.  1.
<mgrwt>
<rscale>  0 0.41955060E+04</rscale>
<asrwt>0</asrwt>
<pdfrwt beam="1">  1        2 0.37158269E+00 0.41955060E+04</pdfrwt>
<pdfrwt beam="2">  1       -2 0.28030220E+00 0.41955060E+04</pdfrwt>
<totfact> 0.12687282E-01</totfact>
</mgrwt>
</event>
<event>
 6    1  0.1817112E-005  0.3904014E+04  0.7818608E-02  0.8024195E-01
         -2   -1    0    0    0  501 -0.00000000000E+00  0.00000000000E+00  0.18436091901E+04  0.18436091901E+04  0.00000000000E+00 0.  1.
          2   -1    0    0  501    0  0.00000000000E+00 -0.00000000000E+00 -0.20667783986E+04  0.20667783986E+04  0.00000000000E+00 0. -1.
         23    2    1    2    0    0 -0.12036413368E+04  0.11246860765E+03  0.14219801174E+04  0.18688396563E+04  0.95564383869E+02 0.  0.
         11    1    3    3    0    0 -0.90159345282E+03  0.55581328333E+02  0.10131920005E+04  0.13573938515E+04  0.00000000000E+00 0. -1.
        -11    1    3    3    0    0 -0.30204788401E+03  0.56887279322E+02  0.40878811690E+03  0.51144580485E+03  0.00000000000E+00 0.  1.
         22    1    1    2    0    0  0.12036413368E+04 -0.11246860765E+03 -0.16451493259E+04  0.20415479324E+04  0.00000000000E+00 0. -1.
<mgrwt>
<rscale>  0 0.39040142E+04</rscale>
<asrwt>0</asrwt>
<pdfrwt beam="1">  1        2 0.31796591E+00 0.39040142E+04</pdfrwt>
<pdfrwt beam="2">  1       -2 0.28363218E+00 0.39040142E+04</pdfrwt>
<totfact> 0.19511417E-01</totfact>
</mgrwt>
</event>
<event>
 6    1  0.1817112E-005  0.2369067E+04  0.7818608E-02  0.8451176E-01
          1   -1    0    0  501    0  0.00000000000E+00  0.00000000000E+00  0.31684566367E+04  0.31684566367E+04  0.00000000000E+00 0. -1.
         -1   -1    0    0    0  501 -0.00000000000E+00 -0.00000000000E+00 -0.44284014623E+03  0.44284014623E+03  0.00000000000E+00 0.  1.
         23    2    1    2    0    0  0.84646149439E+03 -0.72534810856E+03  0.19675090697E+04  0.22632041297E+04  0.91509854515E+02 0.  0.
         11    1    3    3    0    0  0.62176235938E+03 -0.53213667094E+03  0.13595012569E+04  0.15868212047E+04  0.00000000000E+00 0.  1.
        -11    1    3    3    0    0  0.22469913502E+03 -0.19321143762E+03  0.60800781276E+03  0.67638292504E+03  0.00000000000E+00 0. -1.
         22    1    1    2    0    0 -0.84646149439E+03  0.72534810856E+03  0.75810742075E+03  0.13480926532E+04  0.00000000000E+00 0.  1.
<mgrwt>
<rscale>  0 0.23690672E+04</rscale>
<asrwt>0</asrwt>
<pdfrwt beam="1">  1        1 0.48745485E+00 0.23690672E+04</pdfrwt>
<pdfrwt beam="2">  1       -1 0.68129255E-01 0.23690672E+04</pdfrwt>
<totfact> 0.88021390E-01</totfact>
</mgrwt>
</event>
<event>
 6    1  0.1817112E-005  0.2879444E+04  0.7818608E-02  0.8279020E-01
         -2   -1    0    0    0  501 -0.00000000000E+00  0.00000000000E+00  0.20192728145E+04  0.20192728145E+04  0.00000000000E+00 0.  1.
          2   -1    0    0  501    0  0.00000000000E+00 -0.00000000000E+00 -0.10265082260E+04  0.10265082260E+04  0.00000000000E+00 0. -1.
         23    2    1    2    0    0 -0.88569732175E+03  0.63530334241E+03  0.14895319157E+04  0.18479296891E+04  0.89826082922E+02 0.  0.
         13    1    3    3    0    0 -0.67351501029E+03  0.45445333734E+03  0.10541470242E+04  0.13309305968E+04  0.00000000000E+00 0.  1.
        -13    1    3    3    0    0 -0.21218231146E+03  0.18085000506E+03  0.43538489156E+03  0.51699909229E+03  0.00000000000E+00 0. -1.
         22    1    1    2    0    0  0.88569732175E+03 -0.63530334241E+03 -0.49676732725E+03  0.11978513514E+04  0.00000000000E+00 0. -1.
<mgrwt>
<rscale>  0 0.28794445E+04</rscale>
<asrwt>0</asrwt>
<pdfrwt beam="1">  1        2 0.15792434E+00 0.28794445E+04</pdfrwt>
<pdfrwt beam="2">  1       -2 0.31065735E+00 0.28794445E+04</pdfrwt>
<totfact> 0.57251181E-01</totfact>
</mgrwt>
</event>
<event>
 6    1  0.1817112E-005  0.2842652E+04  0.7818608E-02  0.8290148E-01
         -2   -1    0    0    0  501 -0.00000000000E+00  0.00000000000E+00  0.19466227199E+04  0.19466227199E+04  0.00000000000E+00 0.  1.
          2   -1    0    0  501    0  0.00000000000E+00 -0.00000000000E+00 -0.10377810062E+04  0.10377810062E+04  0.00000000000E+00 0. -1.
         23    2    1    2    0    0  0.66047874361E+02 -0.55534667090E+03  0.18250072572E+04  0.19110298166E+04  0.92796683296E+02 0.  0.
         11    1    3    3    0    0 -0.10969151804E+02 -0.69510539296E+02  0.32106379861E+03  0.32868526000E+03  0.00000000000E+00 0. -1.
        -11    1    3    3    0    0  0.77017026165E+02 -0.48583613161E+03  0.15039434586E+04  0.15823445566E+04  0.00000000000E+00 0.  1.
         22    1    1    2    0    0 -0.66047874361E+02  0.55534667090E+03 -0.91616554348E+03  0.10733739095E+04  0.00000000000E+00 0. -1.
<mgrwt>
<rscale>  0 0.28426523E+04</rscale>
<asrwt>0</asrwt>
<pdfrwt beam="1">  1        2 0.15965862E+00 0.28426523E+04</pdfrwt>
<pdfrwt beam="2">  1       -2 0.29948042E+00 0.28426523E+04</pdfrwt>
<totfact> 0.66151837E-01</totfact>
</mgrwt>
</event>
<event>
 6    1  0.1817112E-005  0.1193943E+04  0.7818608E-02  0.9118175E-01
          2   -1    0    0  501    0  0.00000000000E+00  0.00000000000E+00  0.82650947482E+03  0.82650947482E+03  0.00000000000E+00 0. -1.
         -2   -1    0    0    0  501 -0.00000000000E+00 -0.00000000000E+00 -0.43118051482E+03  0.43118051482E+03  0.00000000000E+00 0.  1.
         23    2    1    2    0    0  0.42905010098E+01  0.12453695099E+03  0.81029600084E+03  0.82441697463E+03  0.86924556557E+02 0.  0.
         13    1    3    3    0    0 -0.23568153187E+02  0.67828010724E+02  0.61445047496E+03  0.61863194474E+03  0.00000000000E+00 0. -1.
        -13    1    3    3    0    0  0.27858654197E+02  0.56708940265E+02  0.19584552588E+03  0.20578502989E+03  0.00000000000E+00 0.  1.
         22    1    1    2    0    0 -0.42905010098E+01 -0.12453695099E+03 -0.41496704083E+03  0.43327301501E+03  0.00000000000E+00 0.  1.
<mgrwt>
<rscale>  0 0.11939427E+04</rscale>
<asrwt>0</asrwt>
<pdfrwt beam="1">  1        2 0.12715530E+00 0.11939427E+04</pdfrwt>
<pdfrwt beam="2">  1       -2 0.66335464E-01 0.11939427E+04</pdfrwt>
<totfact> 0.68031712E+01</totfact>
</mgrwt>
</event>
<event>
 6    1  0.1817112E-005  0.2589027E+04  0.7818608E-02  0.8371938E-01
         -2   -1    0    0    0  501 -0.00000000000E+00  0.00000000000E+00  0.52684753814E+03  0.52684753814E+03  0.00000000000E+00 0.  1.
          2   -1    0    0  501    0  0.00000000000E+00 -0.00000000000E+00 -0.31807391600E+04  0.31807391600E+04  0.00000000000E+00 0. -1.
         23    2    1    2    0    0 -0.28464592246E+03 -0.52892763682E+03  0.31098435351E+03  0.68247888262E+03  0.90985773240E+02 0.  0.
         13    1    3    3    0    0 -0.22452705729E+03 -0.38391785006E+03  0.26979420645E+03  0.52018672502E+03  0.00000000000E+00 0. -1.
        -13    1    3    3    0    0 -0.60118865168E+02 -0.14500978676E+03  0.41190147062E+02  0.16229215760E+03  0.00000000000E+00 0.  1.
         22    1    1    2    0    0  0.28464592246E+03  0.52892763682E+03 -0.29648759754E+04  0.30251078155E+04  0.00000000000E+00 0. -1.
<mgrwt>
<rscale>  0 0.25890265E+04</rscale>
<asrwt>0</asrwt>
<pdfrwt beam="1">  1        2 0.48934449E+00 0.25890265E+04</pdfrwt>
<pdfrwt beam="2">  1       -2 0.81053467E-01 0.25890265E+04</pdfrwt>
<totfact> 0.15863391E+00</totfact>
</mgrwt>
</event>
<event>
 6    1  0.1817112E-005  0.2621154E+04  0.7818608E-02  0.8361051E-01
          2   -1    0    0  501    0  0.00000000000E+00  0.00000000000E+00  0.10756605710E+04  0.10756605710E+04  0.00000000000E+00 0. -1.
         -2   -1    0    0    0  501 -0.00000000000E+00 -0.00000000000E+00 -0.15967974410E+04  0.15967974410E+04  0.00000000000E+00 0.  1.
         23    2    1    2    0    0  0.64220344564E+03  0.84068351311E+03 -0.10467673579E+04  0.14911615020E+04  0.93095052003E+02 0.  0.
         13    1    3    3    0    0  0.36968950812E+03  0.53743429233E+03 -0.59937091309E+03  0.88586197708E+03  0.00000000000E+00 0. -1.
        -13    1    3    3    0    0  0.27251393752E+03  0.30324922078E+03 -0.44739644482E+03  0.60529952493E+03  0.00000000000E+00 0.  1.
         22    1    1    2    0    0 -0.64220344564E+03 -0.84068351311E+03  0.52563048789E+03  0.11812965100E+04  0.00000000000E+00 0. -1.
<mgrwt>
<rscale>  0 0.26211540E+04</rscale>
<asrwt>0</asrwt>
<pdfrwt beam="1">  1        2 0.16548624E+00 0.26211540E+04</pdfrwt>
<pdfrwt beam="2">  1       -2 0.24566114E+00 0.26211540E+04</pdfrwt>
<totfact> 0.13611748E+00</totfact>
</mgrwt>
</event>
<event>
 6    1  0.1817112E-005  0.2918596E+04  0.7818608E-02  0.8267366E-01
         -2   -1    0    0    0  501 -0.00000000000E+00  0.00000000000E+00  0.45063679342E+03  0.45063679342E+03  0.00000000000E+00 0.  1.
          2   -1    0    0  501    0  0.00000000000E+00 -0.00000000000E+00 -0.47256485605E+04  0.47256485605E+04  0.00000000000E+00 0. -1.
         23    2    1    2    0    0  0.13700782261E+04 -0.39469166392E+03 -0.15971555423E+04  0.21425072118E+04  0.80842260879E+02 0.  0.
         13    1    3    3    0    0  0.58767214409E+03 -0.20935050256E+03 -0.71468343206E+03  0.94866147277E+03  0.00000000000E+00 0. -1.
        -13    1    3    3    0    0  0.78240608198E+03 -0.18534116136E+03 -0.88247211023E+03  0.11938457390E+04  0.00000000000E+00 0.  1.
         22    1    1    2    0    0 -0.13700782261E+04  0.39469166392E+03 -0.26778562248E+04  0.30337781421E+04  0.00000000000E+00 0. -1.
<mgrwt>
<rscale>  0 0.29185963E+04</rscale>
<asrwt>0</asrwt>
<pdfrwt beam="1">  1        2 0.72702286E+00 0.29185963E+04</pdfrwt>
<pdfrwt beam="2">  1       -2 0.69328737E-01 0.29185963E+04</pdfrwt>
<totfact> 0.11781162E-01</totfact>
</mgrwt>
</event>
<event>
 6    1  0.1817112E-005  0.1142155E+04  0.7818608E-02  0.9165052E-01
         -2   -1    0    0    0  501 -0.00000000000E+00  0.00000000000E+00  0.23701028688E+03  0.23701028688E+03  0.00000000000E+00 0.  1.
          2   -1    0    0  501    0  0.00000000000E+00 -0.00000000000E+00 -0.13760142140E+04  0.13760142140E+04  0.00000000000E+00 0. -1.
         23    2    1    2    0    0  0.32814646023E+03  0.15795956567E+03  0.40966007825E+02  0.37813164272E+03  0.93134320647E+02 0.  0.
         13    1    3    3    0    0  0.13649629215E+03  0.11723827854E+03  0.16722875437E+02  0.18070889931E+03  0.00000000000E+00 0. -1.
        -13    1    3    3    0    0  0.19165016808E+03  0.40721287133E+02  0.24243132388E+02  0.19742274342E+03  0.00000000000E+00 0.  1.
         22    1    1    2    0    0 -0.32814646023E+03 -0.15795956567E+03 -0.11799699350E+04  0.12348928582E+04  0.00000000000E+00 0. -1.
<mgrwt>
<rscale>  0 0.11421550E+04</rscale>
<asrwt>0</asrwt>
<pdfrwt beam="1">  1        2 0.21169449E+00 0.11421550E+04</pdfrwt>
<pdfrwt beam="2">  1       -2 0.36463121E-01 0.11421550E+04</pdfrwt>
<totfact> 0.10466189E+02</totfact>
</mgrwt>
</event>
<event>
 6    1  0.1817112E-005  0.1521002E+04  0.7818608E-02  0.8870606E-01
          2   -1    0    0  501    0  0.00000000000E+00  0.00000000000E+00  0.26923766259E+03  0.26923766259E+03  0.00000000000E+00 0. -1.
         -2   -1    0    0    0  501 -0.00000000000E+00 -0.00000000000E+00 -0.21481456242E+04  0.21481456242E+04  0.00000000000E+00 0.  1.
         23    2    1    2    0    0  0.21544996169E+02 -0.13286897686E+03 -0.21281732416E+04  0.21340962739E+04  0.84422795264E+02 0.  0.
         11    1    3    3    0    0  0.10666691305E+01 -0.52371173246E+02 -0.14363109354E+04  0.14372658003E+04  0.00000000000E+00 0.  1.
        -11    1    3    3    0    0  0.20478327038E+02 -0.80497803610E+02 -0.69186230611E+03  0.69683047356E+03  0.00000000000E+00 0. -1.
         22    1    1    2    0    0 -0.21544996169E+02  0.13286897686E+03  0.24926527995E+03  0.28328701287E+03  0.00000000000E+00 0. -1.
<mgrwt>
<rscale>  0 0.15210019E+04</rscale>
<asrwt>0</asrwt>
<pdfrwt beam="1">  1        2 0.41421180E-01 0.15210019E+04</pdfrwt>
<pdfrwt beam="2">  1       -2 0.33048394E+00 0.15210019E+04</pdfrwt>
<totfact> 0.24774482E+00</totfact>
</mgrwt>
</event>
<event>
 6    1  0.1817112E-005  0.2419961E+04  0.7818608E-02  0.8432068E-01
         -2   -1    0    0    0  501 -0.00000000000E+00  0.00000000000E+00  0.83383898590E+03  0.83383898590E+03  0.00000000000E+00 0.  1.
          2   -1    0    0  501    0  0.00000000000E+00 -0.00000000000E+00 -0.17557985827E+04  0.17557985827E+04  0.00000000000E+00 0. -1.
         23    2    1    2    0    0  0.43439008741E+03  0.11105175632E+04 -0.67016769797E+03  0.13708910132E+04  0.90958344010E+02 0.  0.
         11    1    3    3    0    0  0.19415535768E+03  0.61230516800E+03 -0.34114714482E+03  0.72732062812E+03  0.00000000000E+00 0. -1.
        -11    1    3    3    0    0  0.24023472973E+03  0.49821239519E+03 -0.32902055315E+03  0.64357038503E+03  0.00000000000E+00 0.  1.
         22    1    1    2    0    0 -0.43439008741E+03 -0.11105175632E+04 -0.25179189888E+03  0.12187465555E+04  0.00000000000E+00 0.  1.
<mgrwt>
<rscale>  0 0.24199614E+04</rscale>
<asrwt>0</asrwt>
<pdfrwt beam="1">  1        2 0.27012286E+00 0.24199614E+04</pdfrwt>
<pdfrwt beam="2">  1       -2 0.12828292E+00 0.24199614E+04</pdfrwt>
<totfact> 0.36822757E+00</totfact>
</mgrwt>
</event>
<event>
 6    1  0.1817112E-005  0.4391482E+04  0.7818608E-02  0.7929916E-01
         -2   -1    0    0    0  501 -0.00000000000E+00  0.00000000000E+00  0.18912911720E+04  0.18912911720E+04  0.00000000000E+00 0.  1.
          2   -1    0    0  501    0  0.00000000000E+00 -0.00000000000E+00 -0.25491989777E+04  0.25491989777E+04  0.00000000000E+00 0. -1.
         23    2    1    2    0    0  0.67536241610E+03  0.18754137212E+04 -0.12579283010E+04  0.23588284063E+04  0.91634170343E+02 0.  0.
         13    1    3    3    0    0  0.23754622298E+03  0.74744286049E+03 -0.45533076225E+03  0.90687658521E+03  0.00000000000E+00 0.  1.
        -13    1    3    3    0    0  0.43781619312E+03  0.11279708607E+04 -0.80259753874E+03  0.14519518211E+04  0.00000000000E+00 0. -1.
         22    1    1    2    0    0 -0.67536241610E+03 -0.18754137212E+04  0.60002049528E+03  0.20816617433E+04  0.00000000000E+00 0.  1.
<mgrwt>
<rscale>  0 0.43914815E+04</rscale>
<asrwt>0</asrwt>
<pdfrwt beam="1">  1        2 0.39218446E+00 0.43914815E+04</pdfrwt>
<pdfrwt beam="2">  1       -2 0.29096787E+00 0.43914815E+04</pdfrwt>
<totfact> 0.89915343E-02</totfact>
</mgrwt>
</event>
<event>
 6    1  0.1817112E-005  0.1049803E+04  0.7818608E-02  0.9255547E-01
         -2   -1    0    0    0  501 -0.00000000000E+00  0.00000000000E+00  0.64925852394E+03  0.64925852394E+03  0.00000000000E+00 0.  1.
          2   -1    0    0  501    0  0.00000000000E+00 -0.00000000000E+00 -0.42436383477E+03  0.42436383477E+03  0.00000000000E+00 0. -1.
         23    2    1    2    0    0 -0.10317871359E+02  0.47118313023E+03  0.33926146037E+03  0.58864838101E+03  0.96377265418E+02 0.  0.
         13    1    3    3    0    0 -0.17008837917E+02  0.43383096827E+03  0.27472508970E+03  0.51378252647E+03  0.00000000000E+00 0. -1.
        -13    1    3    3    0    0  0.66909665586E+01  0.37352161964E+02  0.64536370668E+02  0.74865854539E+02  0.00000000000E+00 0.  1.
         22    1    1    2    0    0  0.10317871359E+02 -0.47118313023E+03 -0.11436677120E+03  0.48497397769E+03  0.00000000000E+00 0.  1.
<mgrwt>
<rscale>  0 0.10498035E+04</rscale>
<asrwt>0</asrwt>
<pdfrwt beam="1">  1        2 0.65286744E-01 0.10498035E+04</pdfrwt>
<pdfrwt beam="2">  1       -2 0.99885927E-01 0.10498035E+04</pdfrwt>
<totfact> 0.61344355E+01</totfact>
</mgrwt>
</event>
<event>
 6    1  0.1817112E-005  0.1879861E+04  0.7818608E-02  0.8664946E-01
         -2   -1    0    0    0  501 -0.00000000000E+00  0.00000000000E+00  0.34976758670E+03  0.34976758670E+03  0.00000000000E+00 0.  1.
          2   -1    0    0  501    0  0.00000000000E+00 -0.00000000000E+00 -0.25258765793E+04  0.25258765793E+04  0.00000000000E+00 0. -1.
         23    2    1    2    0    0  0.66796293357E+03 -0.65813326386E+03 -0.10954126015E+04  0.14448337092E+04  0.91114247160E+02 0.  0.
         13    1    3    3    0    0  0.10896618672E+03 -0.98874126237E+02 -0.22542021894E+03  0.26919137763E+03  0.00000000000E+00 0.  1.
        -13    1    3    3    0    0  0.55899674685E+03 -0.55925913762E+03 -0.86999238260E+03  0.11756423316E+04  0.00000000000E+00 0. -1.
         22    1    1    2    0    0 -0.66796293357E+03  0.65813326386E+03 -0.10806963911E+04  0.14308104568E+04  0.00000000000E+00 0.  1.
<mgrwt>
<rscale>  0 0.18798614E+04</rscale>
<asrwt>0</asrwt>
<pdfrwt beam="1">  1        2 0.38859639E+00 0.18798614E+04</pdfrwt>
<pdfrwt beam="2">  1       -2 0.53810399E-01 0.18798614E+04</pdfrwt>
<totfact> 0.10272737E+01</totfact>
</mgrwt>
</event>
<event>
 6    1  0.1817112E-005  0.2151779E+04  0.7818608E-02  0.8538771E-01
         -2   -1    0    0    0  501 -0.00000000000E+00  0.00000000000E+00  0.10558902741E+04  0.10558902741E+04  0.00000000000E+00 0.  1.
          2   -1    0    0  501    0  0.00000000000E+00 -0.00000000000E+00 -0.10962678427E+04  0.10962678427E+04  0.00000000000E+00 0. -1.
         23    2    1    2    0    0  0.16535336701E+03  0.10570421038E+04 -0.12110613732E+03  0.10792196996E+04  0.73271537381E+02 0.  0.
         11    1    3    3    0    0  0.62564824975E+02  0.21619039939E+03 -0.16320095011E+02  0.22565236895E+03  0.00000000000E+00 0. -1.
        -11    1    3    3    0    0  0.10278854203E+03  0.84085170443E+03 -0.10478604231E+03  0.85356733061E+03  0.00000000000E+00 0.  1.
         22    1    1    2    0    0 -0.16535336701E+03 -0.10570421038E+04  0.80728568704E+02  0.10729384172E+04  0.00000000000E+00 0.  1.
<mgrwt>
<rscale>  0 0.21517793E+04</rscale>
<asrwt>0</asrwt>
<pdfrwt beam="1">  1        2 0.16865659E+00 0.21517793E+04</pdfrwt>
<pdfrwt beam="2">  1       -2 0.16244466E+00 0.21517793E+04</pdfrwt>
<totfact> 0.48569737E+00</totfact>
</mgrwt>
</event>
<event>
 6    1  0.1817112E-005  0.2499238E+04  0.7818608E-02  0.8403257E-01
         -2   -1    0    0    0  501 -0.00000000000E+00  0.00000000000E+00  0.13750679340E+04  0.13750679340E+04  0.00000000000E+00 0.  1.
          2   -1    0    0  501    0  0.00000000000E+00 -0.00000000000E+00 -0.11356147785E+04  0.11356147785E+04  0.00000000000E+00 0. -1.
         23    2    1    2    0    0 -0.11730222908E+03  0.11583242339E+04 -0.33193363164E+03  0.12137795919E+04  0.87213062316E+02 0.  0.
         13    1    3    3    0    0 -0.17513320883E+02  0.16025057391E+03 -0.78011417929E+02  0.17908864892E+03  0.00000000000E+00 0.  1.
        -13    1    3    3    0    0 -0.99788908198E+02  0.99807365995E+03 -0.25392221371E+03  0.10346909430E+04  0.00000000000E+00 0. -1.
         22    1    1    2    0    0  0.11730222908E+03 -0.11583242339E+04  0.57138678714E+03  0.12969031206E+04  0.00000000000E+00 0.  1.
<mgrwt>
<rscale>  0 0.24992379E+04</rscale>
<asrwt>0</asrwt>
<pdfrwt beam="1">  1        2 0.17470997E+00 0.24992379E+04</pdfrwt>
<pdfrwt beam="2">  1       -2 0.21154891E+00 0.24992379E+04</pdfrwt>
<totfact> 0.20676302E+00</totfact>
</mgrwt>
</event>
<event>
 6    1  0.1817112E-005  0.1518687E+04  0.7818608E-02  0.8872120E-01
         -2   -1    0    0    0  501 -0.00000000000E+00  0.00000000000E+00  0.14488679688E+03  0.14488679688E+03  0.00000000000E+00 0.  1.
          2   -1    0    0  501    0  0.00000000000E+00 -0.00000000000E+00 -0.39796767207E+04  0.39796767207E+04  0.00000000000E+00 0. -1.
         23    2    1    2    0    0  0.59079886583E+02 -0.39645873767E+03 -0.36671080433E+04  0.36900670542E+04  0.90793718677E+02 0.  0.
         13    1    3    3    0    0  0.69461645708E+02 -0.31314517967E+03 -0.26113155832E+04  0.26309416373E+04  0.00000000000E+00 0. -1.
        -13    1    3    3    0    0 -0.10381759125E+02 -0.83313558000E+02 -0.10557924601E+04  0.10591254169E+04  0.00000000000E+00 0.  1.
         22    1    1    2    0    0 -0.59079886583E+02  0.39645873767E+03 -0.16768188053E+03  0.43449646343E+03  0.00000000000E+00 0.  1.
<mgrwt>
<rscale>  0 0.15186871E+04</rscale>
<asrwt>0</asrwt>
<pdfrwt beam="1">  1        2 0.61225784E+00 0.15186871E+04</pdfrwt>
<pdfrwt beam="2">  1       -2 0.22290281E-01 0.15186871E+04</pdfrwt>
<totfact> 0.61845651E+00</totfact>
</mgrwt>
</event>
<event>
 6    1  0.1817112E-005  0.8193618E+03  0.7818608E-02  0.9532407E-01
          2   -1    0    0  501    0  0.00000000000E+00  0.00000000000E+00  0.47197535580E+03  0.47197535580E+03  0.00000000000E+00 0. -1.
         -2   -1    0    0    0  501 -0.00000000000E+00 -0.00000000000E+00 -0.35560848192E+03  0.35560848192E+03  0.00000000000E+00 0.  1.
         23    2    1    2    0    0 -0.77505275770E+02 -0.36100446903E+02 -0.34028764630E+03  0.36299406078E+03  0.93052113867E+02 0.  0.
         13    1    3    3    0    0 -0.53084539323E+02 -0.54976859089E+02 -0.13277107064E+03  0.15319458394E+03  0.00000000000E+00 0. -1.
        -13    1    3    3    0    0 -0.24420736447E+02  0.18876412186E+02 -0.20751657566E+03  0.20979947684E+03  0.00000000000E+00 0.  1.
         22    1    1    2    0    0  0.77505275770E+02  0.36100446903E+02  0.45665452018E+03  0.46458977694E+03  0.00000000000E+00 0. -1.
<mgrwt>
<rscale>  0 0.81936180E+03</rscale>
<asrwt>0</asrwt>
<pdfrwt beam="1">  1        2 0.72611593E-01 0.81936180E+03</pdfrwt>
<pdfrwt beam="2">  1       -2 0.54708997E-01 0.81936180E+03</pdfrwt>
<totfact> 0.20836692E+02</totfact>
</mgrwt>
</event>
<event>
 6    1  0.1817112E-005  0.2602681E+04  0.7818608E-02  0.8367291E-01
         -2   -1    0    0    0  501 -0.00000000000E+00  0.00000000000E+00  0.66028092711E+03  0.66028092711E+03  0.00000000000E+00 0.  1.
          2   -1    0    0  501    0  0.00000000000E+00 -0.00000000000E+00 -0.25647987018E+04  0.25647987018E+04  0.00000000000E+00 0. -1.
         23    2    1    2    0    0  0.24161841939E+03  0.12043250135E+04 -0.42673687207E+03  0.13034619263E+04  0.90168934413E+02 0.  0.
         11    1    3    3    0    0  0.88125210616E+02  0.66018015782E+03 -0.21871889917E+03  0.70102913661E+03  0.00000000000E+00 0.  1.
        -11    1    3    3    0    0  0.15349320878E+03  0.54414485566E+03 -0.20801797289E+03  0.60243278972E+03  0.00000000000E+00 0. -1.
         22    1    1    2    0    0 -0.24161841939E+03 -0.12043250135E+04 -0.14777809027E+04  0.19216177026E+04  0.00000000000E+00 0. -1.
<mgrwt>
<rscale>  0 0.26026814E+04</rscale>
<asrwt>0</asrwt>
<pdfrwt beam="1">  1        2 0.39458441E+00 0.26026814E+04</pdfrwt>
<pdfrwt beam="2">  1       -2 0.10158168E+00 0.26026814E+04</pdfrwt>
<totfact> 0.22452376E+00</totfact>
</mgrwt>
</event>
<event>
 6    1  0.1817112E-005  0.3087877E+04  0.7818608E-02  0.8219073E-01
         -1   -1    0    0    0  501 -0.00000000000E+00  0.00000000000E+00  0.10540779754E+04  0.10540779754E+04  0.00000000000E+00 0.  1.
          1   -1    0    0  501    0  0.00000000000E+00 -0.00000000000E+00 -0.22614511380E+04  0.22614511380E+04  0.00000000000E+00 0. -1.
         23    2    1    2    0    0 -0.62139518495E+02  0.72045991563E+03 -0.20672407787E+04  0.21920095865E+04  0.92183407296E+02 0.  0.
         11    1    3    3    0    0 -0.75818798578E+02  0.36904384660E+03 -0.11117872629E+04  0.11738878860E+04  0.00000000000E+00 0. -1.
        -11    1    3    3    0    0  0.13679280082E+02  0.35141606904E+03 -0.95545351583E+03  0.10181217006E+04  0.00000000000E+00 0.  1.
         22    1    1    2    0    0  0.62139518495E+02 -0.72045991563E+03  0.85986761610E+03  0.11235195268E+04  0.00000000000E+00 0.  1.
<mgrwt>
<rscale>  0 0.30878768E+04</rscale>
<asrwt>0</asrwt>
<pdfrwt beam="1">  1        1 0.34791556E+00 0.30878768E+04</pdfrwt>
<pdfrwt beam="2">  1       -1 0.16216584E+00 0.30878768E+04</pdfrwt>
<totfact> 0.47009024E-01</totfact>
</mgrwt>
</event>
<event>
 6    1  0.1817112E-005  0.1503964E+04  0.7818608E-02  0.8881821E-01
          2   -1    0    0  501    0  0.00000000000E+00  0.00000000000E+00  0.12764771701E+04  0.12764771701E+04  0.00000000000E+00 0. -1.
         -2   -1    0    0    0  501 -0.00000000000E+00 -0.00000000000E+00 -0.44299833035E+03  0.44299833035E+03  0.00000000000E+00 0.  1.
         23    2    1    2    0    0  0.62942336452E+03 -0.24467566939E+03  0.78936416944E+03  0.10427288276E+04  0.90264395104E+02 0.  0.
         13    1    3    3    0    0  0.32376699511E+03 -0.15671602081E+03  0.47174029740E+03  0.59323173086E+03  0.00000000000E+00 0. -1.
        -13    1    3    3    0    0  0.30565636941E+03 -0.87959648579E+02  0.31762387203E+03  0.44949709679E+03  0.00000000000E+00 0.  1.
         22    1    1    2    0    0 -0.62942336452E+03  0.24467566939E+03  0.44114670305E+02  0.67674667279E+03  0.00000000000E+00 0. -1.
<mgrwt>
<rscale>  0 0.15039644E+04</rscale>
<asrwt>0</asrwt>
<pdfrwt beam="1">  1        2 0.19638110E+00 0.15039644E+04</pdfrwt>
<pdfrwt beam="2">  1       -2 0.68153590E-01 0.15039644E+04</pdfrwt>
<totfact> 0.32478811E+01</totfact>
</mgrwt>
</event>
<event>
 6    1  0.1817112E-005  0.2541475E+04  0.7818608E-02  0.8388357E-01
         -2   -1    0    0    0  501 -0.00000000000E+00  0.00000000000E+00  0.82497811273E+03  0.82497811273E+03  0.00000000000E+00 0.  1.
          2   -1    0    0  501    0  0.00000000000E+00 -0.00000000000E+00 -0.19573540619E+04  0.19573540619E+04  0.00000000000E+00 0. -1.
         23    2    1    2    0    0  0.10823466400E+04  0.10334605348E+03  0.15066907076E+03  0.11005595446E+04  0.79846643234E+02 0.  0.
         13    1    3    3    0    0  0.27830033001E+03 -0.83632541782E+01  0.37559192177E+02  0.28094787883E+03  0.00000000000E+00 0.  1.
        -13    1    3    3    0    0  0.80404631001E+03  0.11170930766E+03  0.11310987859E+03  0.81961166579E+03  0.00000000000E+00 0. -1.
         22    1    1    2    0    0 -0.10823466400E+04 -0.10334605348E+03 -0.12830450200E+04  0.16817726301E+04  0.00000000000E+00 0. -1.
<mgrwt>
<rscale>  0 0.25414754E+04</rscale>
<asrwt>0</asrwt>
<pdfrwt beam="1">  1        2 0.30113139E+00 0.25414754E+04</pdfrwt>
<pdfrwt beam="2">  1       -2 0.12691971E+00 0.25414754E+04</pdfrwt>
<totfact> 0.28942242E+00</totfact>
</mgrwt>
</event>
<event>
 6    1  0.1817112E-005  0.5041054E+04  0.7818608E-02  0.7822205E-01
          2   -1    0    0  501    0  0.00000000000E+00  0.00000000000E+00  0.19519641920E+04  0.19519641920E+04  0.00000000000E+00 0. -1.
         -2   -1    0    0    0  501 -0.00000000000E+00 -0.00000000000E+00 -0.32546987494E+04  0.32546987494E+04  0.00000000000E+00 0.  1.
         23    2    1    2    0    0 -0.16401788282E+04  0.69420266850E+03 -0.24924959929E+04  0.30647861460E+04  0.90961048839E+02 0.  0.
         11    1    3    3    0    0 -0.10513540488E+04  0.43234066968E+03 -0.15174880647E+04  0.18960574403E+04  0.00000000000E+00 0. -1.
        -11    1    3    3    0    0 -0.58882477939E+03  0.26186199882E+03 -0.97500792828E+03  0.11687287057E+04  0.00000000000E+00 0.  1.
         22    1    1    2    0    0  0.16401788282E+04 -0.69420266850E+03  0.11897614356E+04  0.21418767954E+04  0.00000000000E+00 0. -1.
<mgrwt>
<rscale>  0 0.50410536E+04</rscale>
<asrwt>0</asrwt>
<pdfrwt beam="1">  1        2 0.30030219E+00 0.50410536E+04</pdfrwt>
<pdfrwt beam="2">  1       -2 0.50072288E+00 0.50410536E+04</pdfrwt>
<totfact> 0.84772699E-03</totfact>
</mgrwt>
</event>
<event>
 6    1  0.1817112E-005  0.3252847E+04  0.7818608E-02  0.8174998E-01
         -2   -1    0    0    0  501 -0.00000000000E+00  0.00000000000E+00  0.11026266826E+04  0.11026266826E+04  0.00000000000E+00 0.  1.
          2   -1    0    0  501    0  0.00000000000E+00 -0.00000000000E+00 -0.23990466281E+04  0.23990466281E+04  0.00000000000E+00 0. -1.
         23    2    1    2    0    0 -0.68037962298E+02  0.13706512859E+04 -0.15854743999E+04  0.20992231016E+04  0.98460376291E+02 0.  0.
         13    1    3    3    0    0 -0.52442447160E+02  0.52170836462E+03 -0.66670981322E+03  0.84819325807E+03  0.00000000000E+00 0. -1.
        -13    1    3    3    0    0 -0.15595515138E+02  0.84894292125E+03 -0.91876458664E+03  0.12510298435E+04  0.00000000000E+00 0.  1.
         22    1    1    2    0    0  0.68037962298E+02 -0.13706512859E+04  0.28905445436E+03  0.14024502092E+04  0.00000000000E+00 0.  1.
<mgrwt>
<rscale>  0 0.32528466E+04</rscale>
<asrwt>0</asrwt>
<pdfrwt beam="1">  1        2 0.36908409E+00 0.32528466E+04</pdfrwt>
<pdfrwt beam="2">  1       -2 0.16963488E+00 0.32528466E+04</pdfrwt>
<totfact> 0.71549283E-01</totfact>
</mgrwt>
</event>
<event>
 6    1  0.1817112E-005  0.1488909E+04  0.7818608E-02  0.8891862E-01
         -1   -1    0    0    0  501 -0.00000000000E+00  0.00000000000E+00  0.88343117529E+03  0.88343117529E+03  0.00000000000E+00 0.  1.
          1   -1    0    0  501    0  0.00000000000E+00 -0.00000000000E+00 -0.62734121009E+03  0.62734121009E+03  0.00000000000E+00 0. -1.
         23    2    1    2    0    0 -0.44869532628E+03  0.58628255122E+03  0.56524708269E+02  0.74599724362E+03  0.90896199837E+02 0.  0.
         13    1    3    3    0    0 -0.31096571271E+03  0.33440056909E+03  0.41511939446E+02  0.45852661450E+03  0.00000000000E+00 0. -1.
        -13    1    3    3    0    0 -0.13772961358E+03  0.25188198213E+03  0.15012768823E+02  0.28747062912E+03  0.00000000000E+00 0.  1.
         22    1    1    2    0    0  0.44869532628E+03 -0.58628255122E+03  0.19956525693E+03  0.76477514177E+03  0.00000000000E+00 0. -1.
<mgrwt>
<rscale>  0 0.14889094E+04</rscale>
<asrwt>0</asrwt>
<pdfrwt beam="1">  1        1 0.96514032E-01 0.14889094E+04</pdfrwt>
<pdfrwt beam="2">  1       -1 0.13591249E+00 0.14889094E+04</pdfrwt>
<totfact> 0.14071007E+01</totfact>
</mgrwt>
</event>
<event>
 6    1  0.1817112E-005  0.1892733E+04  0.7818608E-02  0.8658482E-01
         -2   -1    0    0    0  501 -0.00000000000E+00  0.00000000000E+00  0.31806367142E+03  0.31806367142E+03  0.00000000000E+00 0.  1.
          2   -1    0    0  501    0  0.00000000000E+00 -0.00000000000E+00 -0.28158181083E+04  0.28158181083E+04  0.00000000000E+00 0. -1.
         23    2    1    2    0    0 -0.42089643809E+03 -0.29102894361E+03  0.61831648797E+02  0.52364566251E+03  0.92357833751E+02 0.  0.
         13    1    3    3    0    0 -0.13481248625E+03 -0.90205264882E+02  0.63264306903E+02  0.17410849717E+03  0.00000000000E+00 0. -1.
        -13    1    3    3    0    0 -0.28608395184E+03 -0.20082367873E+03 -0.14326581067E+01  0.34953716533E+03  0.00000000000E+00 0.  1.
         22    1    1    2    0    0  0.42089643809E+03  0.29102894361E+03 -0.25595860857E+04  0.26102361172E+04  0.00000000000E+00 0. -1.
<mgrwt>
<rscale>  0 0.18927329E+04</rscale>
<asrwt>0</asrwt>
<pdfrwt beam="1">  1        2 0.43320280E+00 0.18927329E+04</pdfrwt>
<pdfrwt beam="2">  1       -2 0.48932871E-01 0.18927329E+04</pdfrwt>
<totfact> 0.83997299E+00</totfact>
</mgrwt>
</event>
<event>
 6    1  0.1817112E-005  0.2070843E+04  0.7818608E-02  0.8574197E-01
          2   -1    0    0  501    0  0.00000000000E+00  0.00000000000E+00  0.26396336861E+04  0.26396336861E+04  0.00000000000E+00 0. -1.
         -2   -1    0    0    0  501 -0.00000000000E+00 -0.00000000000E+00 -0.40615406213E+03  0.40615406213E+03  0.00000000000E+00 0.  1.
         23    2    1    2    0    0 -0.88216982309E+03  0.46973386256E+03  0.73261821022E+03  0.12426076458E+04  0.92037063823E+02 0.  0.
         13    1    3    3    0    0 -0.41788145004E+03  0.23611787825E+03  0.29689622576E+03  0.56437924093E+03  0.00000000000E+00 0. -1.
        -13    1    3    3    0    0 -0.46428837305E+03  0.23361598430E+03  0.43572198445E+03  0.67822840489E+03  0.00000000000E+00 0.  1.
         22    1    1    2    0    0  0.88216982309E+03 -0.46973386256E+03  0.15008614138E+04  0.18031801024E+04  0.00000000000E+00 0. -1.
<mgrwt>
<rscale>  0 0.20708433E+04</rscale>
<asrwt>0</asrwt>
<pdfrwt beam="1">  1        2 0.40609748E+00 0.20708433E+04</pdfrwt>
<pdfrwt beam="2">  1       -2 0.62485242E-01 0.20708433E+04</pdfrwt>
<totfact> 0.63335660E+00</totfact>
</mgrwt>
</event>
<event>
 6    1  0.1817112E-005  0.1913634E+04  0.7818608E-02  0.8648100E-01
         -2   -1    0    0    0  501 -0.00000000000E+00  0.00000000000E+00  0.53465057961E+03  0.53465057961E+03  0.00000000000E+00 0.  1.
          2   -1    0    0  501    0  0.00000000000E+00 -0.00000000000E+00 -0.17123305690E+04  0.17123305690E+04  0.00000000000E+00 0. -1.
         23    2    1    2    0    0 -0.34678175614E+03 -0.25460484761E+03 -0.15911593465E+04  0.16502849163E+04  0.81061852964E+02 0.  0.
         13    1    3    3    0    0 -0.80264855508E+01 -0.27236444739E+02 -0.14082863961E+03  0.14366263998E+03  0.00000000000E+00 0.  1.
        -13    1    3    3    0    0 -0.33875527059E+03 -0.22736840287E+03 -0.14503307069E+04  0.15066222763E+04  0.00000000000E+00 0. -1.
         22    1    1    2    0    0  0.34678175614E+03  0.25460484761E+03  0.41347935718E+03  0.59669623230E+03  0.00000000000E+00 0.  1.
<mgrwt>
<rscale>  0 0.19136337E+04</rscale>
<asrwt>0</asrwt>
<pdfrwt beam="1">  1        2 0.26343547E+00 0.19136337E+04</pdfrwt>
<pdfrwt beam="2">  1       -2 0.82253936E-01 0.19136337E+04</pdfrwt>
<totfact> 0.11723653E+01</totfact>
</mgrwt>
</event>
<event>
 6    1  0.1817112E-005  0.9658530E+03  0.7818608E-02  0.9346810E-01
          2   -1    0    0  501    0  0.00000000000E+00  0.00000000000E+00  0.12279414622E+04  0.12279414622E+04  0.00000000000E+00 0. -1.
         -2   -1    0    0    0  501 -0.00000000000E+00 -0.00000000000E+00 -0.18992598228E+03  0.18992598228E+03  0.00000000000E+00 0.  1.
         23    2    1    2    0    0 -0.50894630217E+02  0.69358423185E+02  0.12147750242E+04  0.12212846610E+04  0.91962000232E+02 0.  0.
         11    1    3    3    0    0 -0.31550427766E+01  0.74309287985E+02  0.87193149671E+03  0.87509791425E+03  0.00000000000E+00 0.  1.
        -11    1    3    3    0    0 -0.47739587440E+02 -0.49508647997E+01  0.34284352751E+03  0.34618674675E+03  0.00000000000E+00 0. -1.
         22    1    1    2    0    0  0.50894630217E+02 -0.69358423185E+02 -0.17675954430E+03  0.19658278346E+03  0.00000000000E+00 0.  1.
<mgrwt>
<rscale>  0 0.96585297E+03</rscale>
<asrwt>0</asrwt>
<pdfrwt beam="1">  1        2 0.18891407E+00 0.96585297E+03</pdfrwt>
<pdfrwt beam="2">  1       -2 0.29219383E-01 0.96585297E+03</pdfrwt>
<totfact> 0.19603720E+02</totfact>
</mgrwt>
</event>
<event>
 6    1  0.1817112E-005  0.1250167E+04  0.7818608E-02  0.9070045E-01
         -2   -1    0    0    0  501 -0.00000000000E+00  0.00000000000E+00  0.24030113682E+03  0.24030113682E+03  0.00000000000E+00 0.  1.
          2   -1    0    0  501    0  0.00000000000E+00 -0.00000000000E+00 -0.16259979497E+04  0.16259979497E+04  0.00000000000E+00 0. -1.
         23    2    1    2    0    0 -0.82678871086E+02  0.27759239108E+03  0.12538045620E+03  0.32771277291E+03  0.88216049660E+02 0.  0.
         13    1    3    3    0    0 -0.15920865405E+02  0.40816324363E+02  0.57920320359E+02  0.72623755068E+02  0.00000000000E+00 0.  1.
        -13    1    3    3    0    0 -0.66758005681E+02  0.23677606672E+03  0.67460135842E+02  0.25508901784E+03  0.00000000000E+00 0. -1.
         22    1    1    2    0    0  0.82678871086E+02 -0.27759239108E+03 -0.15110772691E+04  0.15385863136E+04  0.00000000000E+00 0. -1.
<mgrwt>
<rscale>  0 0.12501666E+04</rscale>
<asrwt>0</asrwt>
<pdfrwt beam="1">  1        2 0.25015354E+00 0.12501666E+04</pdfrwt>
<pdfrwt beam="2">  1       -2 0.36969405E-01 0.12501666E+04</pdfrwt>
<totfact> 0.73105618E+01</totfact>
</mgrwt>
</event>
<event>
 6    1  0.1817112E-005  0.3031515E+04  0.7818608E-02  0.8234789E-01
          2   -1    0    0  501    0  0.00000000000E+00  0.00000000000E+00  0.36266268529E+04  0.36266268529E+04  0.00000000000E+00 0. -1.
         -2   -1    0    0    0  501 -0.00000000000E+00 -0.00000000000E+00 -0.63351438890E+03  0.63351438890E+03  0.00000000000E+00 0.  1.
         23    2    1    2    0    0  0.65478064912E+03 -0.62235351048E+02  0.34148224591E+04  0.34788280795E+04  0.92851721461E+02 0.  0.
         11    1    3    3    0    0  0.15105300226E+03 -0.12909444314E+02  0.59957204830E+03  0.61844183586E+03  0.00000000000E+00 0. -1.
        -11    1    3    3    0    0  0.50372764687E+03 -0.49325906734E+02  0.28152504108E+04  0.28603862437E+04  0.00000000000E+00 0.  1.
         22    1    1    2    0    0 -0.65478064912E+03  0.62235351048E+02 -0.42170999519E+03  0.78131316220E+03  0.00000000000E+00 0.  1.
<mgrwt>
<rscale>  0 0.30315147E+04</rscale>
<asrwt>0</asrwt>
<pdfrwt beam="1">  1        2 0.55794258E+00 0.30315147E+04</pdfrwt>
<pdfrwt beam="2">  1       -2 0.97463754E-01 0.30315147E+04</pdfrwt>
<totfact> 0.49451815E-01</totfact>
</mgrwt>
</event>
<event>
 6    1  0.1817112E-005  0.2957464E+04  0.7818608E-02  0.8255983E-01
         -2   -1    0    0    0  501 -0.00000000000E+00  0.00000000000E+00  0.76561199265E+03  0.76561199265E+03  0.00000000000E+00 0.  1.
          2   -1    0    0  501    0  0.00000000000E+00 -0.00000000000E+00 -0.28560787091E+04  0.28560787091E+04  0.00000000000E+00 0. -1.
         23    2    1    2    0    0  0.10353489923E+04  0.10071691641E+04 -0.14260104964E+04  0.20317726757E+04  0.90868084952E+02 0.  0.
         13    1    3    3    0    0  0.49842071284E+03  0.54361105331E+03 -0.75077400537E+03  0.10524247201E+04  0.00000000000E+00 0.  1.
        -13    1    3    3    0    0  0.53692827948E+03  0.46355811083E+03 -0.67523649104E+03  0.97934795566E+03  0.00000000000E+00 0. -1.
         22    1    1    2    0    0 -0.10353489923E+04 -0.10071691641E+04 -0.66445622002E+03  0.15899180260E+04  0.00000000000E+00 0. -1.
<mgrwt>
<rscale>  0 0.29574639E+04</rscale>
<asrwt>0</asrwt>
<pdfrwt beam="1">  1        2 0.43939672E+00 0.29574639E+04</pdfrwt>
<pdfrwt beam="2">  1       -2 0.11778646E+00 0.29574639E+04</pdfrwt>
<totfact> 0.10206126E+00</totfact>
</mgrwt>
</event>
<event>
 6    1  0.1817112E-005  0.2585057E+04  0.7818608E-02  0.8373295E-01
          2   -1    0    0  501    0  0.00000000000E+00  0.00000000000E+00  0.56185048630E+03  0.56185048630E+03  0.00000000000E+00 0. -1.
         -2   -1    0    0    0  501 -0.00000000000E+00 -0.00000000000E+00 -0.29734432636E+04  0.29734432636E+04  0.00000000000E+00 0.  1.
         23    2    1    2    0    0  0.83127020800E+03 -0.68552660522E+03 -0.21796810867E+04  0.24331413478E+04  0.90610671003E+02 0.  0.
         11    1    3    3    0    0  0.42316444776E+03 -0.39256599851E+03 -0.12330983164E+04  0.13615093356E+04  0.00000000000E+00 0.  1.
        -11    1    3    3    0    0  0.40810576024E+03 -0.29296060670E+03 -0.94658277030E+03  0.10716320122E+04  0.00000000000E+00 0. -1.
         22    1    1    2    0    0 -0.83127020800E+03  0.68552660522E+03 -0.23191169061E+03  0.11021524021E+04  0.00000000000E+00 0. -1.
<mgrwt>
<rscale>  0 0.25850575E+04</rscale>
<asrwt>0</asrwt>
<pdfrwt beam="1">  1        2 0.86438535E-01 0.25850575E+04</pdfrwt>
<pdfrwt beam="2">  1       -2 0.45745282E+00 0.25850575E+04</pdfrwt>
<totfact> 0.14711151E-01</totfact>
</mgrwt>
</event>
<event>
 6    1  0.1817112E-005  0.1435608E+04  0.7818608E-02  0.8928439E-01
          2   -1    0    0  501    0  0.00000000000E+00  0.00000000000E+00  0.58529458716E+03  0.58529458716E+03  0.00000000000E+00 0. -1.
         -2   -1    0    0    0  501 -0.00000000000E+00 -0.00000000000E+00 -0.88031324040E+03  0.88031324040E+03  0.00000000000E+00 0.  1.
         23    2    1    2    0    0 -0.56033990944E+03 -0.17040541552E+03 -0.56683899471E+03  0.81992592617E+03  0.89181044717E+02 0.  0.
         11    1    3    3    0    0 -0.33374229008E+03 -0.14425067043E+03 -0.32815037478E+03  0.48977019159E+03  0.00000000000E+00 0.  1.
        -11    1    3    3    0    0 -0.22659761936E+03 -0.26154745091E+02 -0.23868861993E+03  0.33015573458E+03  0.00000000000E+00 0. -1.
         22    1    1    2    0    0  0.56033990944E+03  0.17040541552E+03  0.27182034146E+03  0.64568190139E+03  0.00000000000E+00 0. -1.
<mgrwt>
<rscale>  0 0.14356080E+04</rscale>
<asrwt>0</asrwt>
<pdfrwt beam="1">  1        2 0.90045321E-01 0.14356080E+04</pdfrwt>
<pdfrwt beam="2">  1       -2 0.13543281E+00 0.14356080E+04</pdfrwt>
<totfact> 0.19403241E+01</totfact>
</mgrwt>
</event>
<event>
 6    1  0.1817112E-005  0.1450255E+04  0.7818608E-02  0.8918224E-01
         -2   -1    0    0    0  501 -0.00000000000E+00  0.00000000000E+00  0.24848656966E+03  0.24848656966E+03  0.00000000000E+00 0.  1.
          2   -1    0    0  501    0  0.00000000000E+00 -0.00000000000E+00 -0.21160498694E+04  0.21160498694E+04  0.00000000000E+00 0. -1.
         23    2    1    2    0    0 -0.50482979299E+03 -0.13494790990E+03 -0.17504755202E+04  0.18290239682E+04  0.90000396148E+02 0.  0.
         11    1    3    3    0    0 -0.38367283271E+03 -0.12743936469E+03 -0.14395532842E+04  0.14952455626E+04  0.00000000000E+00 0. -1.
        -11    1    3    3    0    0 -0.12115696028E+03 -0.75085452067E+01 -0.31092223595E+03  0.33377840566E+03  0.00000000000E+00 0.  1.
         22    1    1    2    0    0  0.50482979299E+03  0.13494790990E+03 -0.11708777952E+03  0.53551247080E+03  0.00000000000E+00 0.  1.
<mgrwt>
<rscale>  0 0.14502551E+04</rscale>
<asrwt>0</asrwt>
<pdfrwt beam="1">  1        2 0.32554614E+00 0.14502551E+04</pdfrwt>
<pdfrwt beam="2">  1       -2 0.38228703E-01 0.14502551E+04</pdfrwt>
<totfact> 0.36096464E+01</totfact>
</mgrwt>
</event>
<event>
 6    1  0.1817112E-005  0.6197501E+03  0.7818608E-02  0.9865257E-01
          2   -1    0    0  501    0  0.00000000000E+00  0.00000000000E+00  0.10825052676E+04  0.10825052676E+04  0.00000000000E+00 0.  1.
         -2   -1    0    0    0  501 -0.00000000000E+00 -0.00000000000E+00 -0.88704004008E+02  0.88704004008E+02  0.00000000000E+00 0. -1.
         23    2    1    2    0    0 -0.83519495658E+02  0.12400787557E+03  0.10059981375E+04  0.10212018615E+04  0.92019181945E+02 0.  0.
         13    1    3    3    0    0 -0.26830915715E+02  0.10796211268E+03  0.52840121429E+03  0.53998477671E+03  0.00000000000E+00 0. -1.
        -13    1    3    3    0    0 -0.56688579943E+02  0.16045762896E+02  0.47759692326E+03  0.48121708480E+03  0.00000000000E+00 0.  1.
         22    1    1    2    0    0  0.83519495658E+02 -0.12400787557E+03 -0.12196873927E+02  0.15000741013E+03  0.00000000000E+00 0. -1.
<mgrwt>
<rscale>  0 0.61975012E+03</rscale>
<asrwt>0</asrwt>
<pdfrwt beam="1">  1        2 0.16653926E+00 0.61975012E+03</pdfrwt>
<pdfrwt beam="2">  1       -2 0.13646771E-01 0.61975012E+03</pdfrwt>
<totfact> 0.92622896E+02</totfact>
</mgrwt>
</event>
<event>
 6    1  0.1817112E-005  0.2661146E+04  0.7818608E-02  0.8347723E-01
         -1   -1    0    0    0  501 -0.00000000000E+00  0.00000000000E+00  0.10208160127E+04  0.10208160127E+04  0.00000000000E+00 0.  1.
          1   -1    0    0  501    0  0.00000000000E+00 -0.00000000000E+00 -0.17343225438E+04  0.17343225438E+04  0.00000000000E+00 0. -1.
         23    2    1    2    0    0  0.29507945604E+03  0.12876455954E+04 -0.50749401481E+03  0.14181478229E+04  0.92141239009E+02 0.  0.
         11    1    3    3    0    0  0.10658110965E+03  0.61493188066E+03 -0.20569394556E+03  0.65712308590E+03  0.00000000000E+00 0. -1.
        -11    1    3    3    0    0  0.18849834638E+03  0.67271371473E+03 -0.30180006925E+03  0.76102473703E+03  0.00000000000E+00 0.  1.
         22    1    1    2    0    0 -0.29507945604E+03 -0.12876455954E+04 -0.20601251636E+03  0.13369907335E+04  0.00000000000E+00 0.  1.
<mgrwt>
<rscale>  0 0.26611458E+04</rscale>
<asrwt>0</asrwt>
<pdfrwt beam="1">  1        1 0.26681885E+00 0.26611458E+04</pdfrwt>
<pdfrwt beam="2">  1       -1 0.15704862E+00 0.26611458E+04</pdfrwt>
<totfact> 0.12176199E+00</totfact>
</mgrwt>
</event>
<event>
 6    1  0.1817112E-005  0.1819400E+04  0.7818608E-02  0.8696050E-01
          2   -1    0    0  501    0  0.00000000000E+00  0.00000000000E+00  0.15017248201E+04  0.15017248201E+04  0.00000000000E+00 0. -1.
         -2   -1    0    0    0  501 -0.00000000000E+00 -0.00000000000E+00 -0.55106913665E+03  0.55106913665E+03  0.00000000000E+00 0.  1.
         23    2    1    2    0    0 -0.19948182128E+03 -0.44898173358E+03  0.13370183528E+04  0.14277709920E+04  0.97643923189E+02 0.  0.
         13    1    3    3    0    0 -0.12675369094E+03 -0.20159911915E+03  0.54268738042E+03  0.59263673180E+03  0.00000000000E+00 0. -1.
        -13    1    3    3    0    0 -0.72728130344E+02 -0.24738261443E+03  0.79433097241E+03  0.83513426022E+03  0.00000000000E+00 0.  1.
         22    1    1    2    0    0  0.19948182128E+03  0.44898173358E+03 -0.38636266940E+03  0.62502296471E+03  0.00000000000E+00 0.  1.
<mgrwt>
<rscale>  0 0.18194001E+04</rscale>
<asrwt>0</asrwt>
<pdfrwt beam="1">  1        2 0.23103459E+00 0.18194001E+04</pdfrwt>
<pdfrwt beam="2">  1       -2 0.84779867E-01 0.18194001E+04</pdfrwt>
<totfact> 0.14470271E+01</totfact>
</mgrwt>
</event>
<event>
 6    1  0.1817112E-005  0.3198287E+04  0.7818608E-02  0.8189270E-01
         -2   -1    0    0    0  501 -0.00000000000E+00  0.00000000000E+00  0.78408062132E+03  0.78408062132E+03  0.00000000000E+00 0.  1.
          2   -1    0    0  501    0  0.00000000000E+00 -0.00000000000E+00 -0.32614764087E+04  0.32614764087E+04  0.00000000000E+00 0. -1.
         23    2    1    2    0    0 -0.58359067199E+02  0.15561905883E+04 -0.78715964784E+03  0.17472896097E+04  0.90916122726E+02 0.  0.
         11    1    3    3    0    0 -0.17107442053E+02  0.96216792818E+03 -0.53071314542E+03  0.10989614321E+04  0.00000000000E+00 0.  1.
        -11    1    3    3    0    0 -0.41251625146E+02  0.59402266007E+03 -0.25644650242E+03  0.64832817759E+03  0.00000000000E+00 0. -1.
         22    1    1    2    0    0  0.58359067199E+02 -0.15561905883E+04 -0.16902361395E+04  0.22982674202E+04  0.00000000000E+00 0. -1.
<mgrwt>
<rscale>  0 0.31982873E+04</rscale>
<asrwt>0</asrwt>
<pdfrwt beam="1">  1        2 0.50176559E+00 0.31982873E+04</pdfrwt>
<pdfrwt beam="2">  1       -2 0.12062779E+00 0.31982873E+04</pdfrwt>
<totfact> 0.52102758E-01</totfact>
</mgrwt>
</event>
<event>
 6    1  0.1817112E-005  0.4791949E+04  0.7818608E-02  0.7861428E-01
         -2   -1    0    0    0  501 -0.00000000000E+00  0.00000000000E+00  0.20310348229E+04  0.20310348229E+04  0.00000000000E+00 0. -1.
          2   -1    0    0  501    0  0.00000000000E+00 -0.00000000000E+00 -0.28264867287E+04  0.28264867287E+04  0.00000000000E+00 0.  1.
         23    2    1    2    0    0 -0.12931700848E+04 -0.19067895350E+04 -0.10614236129E+04  0.25382811269E+04  0.90087702259E+02 0.  0.
         13    1    3    3    0    0 -0.10370427056E+04 -0.14847907730E+04 -0.86391151731E+03  0.20065902229E+04  0.00000000000E+00 0. -1.
        -13    1    3    3    0    0 -0.25612737922E+03 -0.42199876194E+03 -0.19751209560E+03  0.53169090397E+03  0.00000000000E+00 0.  1.
         22    1    1    2    0    0  0.12931700848E+04  0.19067895350E+04  0.26597170703E+03  0.23192404247E+04  0.00000000000E+00 0. -1.
<mgrwt>
<rscale>  0 0.47919487E+04</rscale>
<asrwt>0</asrwt>
<pdfrwt beam="1">  1        2 0.43484411E+00 0.47919487E+04</pdfrwt>
<pdfrwt beam="2">  1       -2 0.31246690E+00 0.47919487E+04</pdfrwt>
<totfact> 0.43939797E-02</totfact>
</mgrwt>
</event>
<event>
 6    1  0.1817112E-005  0.4646564E+04  0.7818608E-02  0.7885468E-01
         -2   -1    0    0    0  501 -0.00000000000E+00  0.00000000000E+00  0.16895056412E+04  0.16895056412E+04  0.00000000000E+00 0.  1.
          2   -1    0    0  501    0  0.00000000000E+00 -0.00000000000E+00 -0.31948043144E+04  0.31948043144E+04  0.00000000000E+00 0. -1.
         23    2    1    2    0    0 -0.61764501514E+03  0.20441458644E+04 -0.17125524389E+04  0.27388562033E+04  0.92085648705E+02 0.  0.
         13    1    3    3    0    0 -0.14206885741E+03  0.41395217714E+03 -0.39452430246E+03  0.58922779164E+03  0.00000000000E+00 0. -1.
        -13    1    3    3    0    0 -0.47557615773E+03  0.16301936873E+04 -0.13180281365E+04  0.21496284117E+04  0.00000000000E+00 0.  1.
         22    1    1    2    0    0  0.61764501514E+03 -0.20441458644E+04  0.20725376574E+03  0.21454537523E+04  0.00000000000E+00 0.  1.
<mgrwt>
<rscale>  0 0.46465643E+04</rscale>
<asrwt>0</asrwt>
<pdfrwt beam="1">  1        2 0.49150836E+00 0.46465643E+04</pdfrwt>
<pdfrwt beam="2">  1       -2 0.25992394E+00 0.46465643E+04</pdfrwt>
<totfact> 0.54606408E-02</totfact>
</mgrwt>
</event>
<event>
 6    1  0.1817112E-005  0.2395359E+04  0.7818608E-02  0.8441243E-01
          1   -1    0    0  501    0  0.00000000000E+00  0.00000000000E+00  0.31093045969E+04  0.31093045969E+04  0.00000000000E+00 0. -1.
         -1   -1    0    0    0  501 -0.00000000000E+00 -0.00000000000E+00 -0.46133648772E+03  0.46133648772E+03  0.00000000000E+00 0.  1.
         23    2    1    2    0    0  0.33136580170E+03  0.52832185212E+03 -0.19544826168E+03  0.65963714576E+03  0.89408428639E+02 0.  0.
         11    1    3    3    0    0  0.83894861120E+02  0.20883869747E+03 -0.53673671881E+02  0.23137158931E+03  0.00000000000E+00 0. -1.
        -11    1    3    3    0    0  0.24747094058E+03  0.31948315465E+03 -0.14177458980E+03  0.42826555646E+03  0.00000000000E+00 0.  1.
         22    1    1    2    0    0 -0.33136580170E+03 -0.52832185212E+03  0.28434163708E+04  0.29110039388E+04  0.00000000000E+00 0. -1.
<mgrwt>
<rscale>  0 0.23953586E+04</rscale>
<asrwt>0</asrwt>
<pdfrwt beam="1">  1        1 0.47835454E+00 0.23953586E+04</pdfrwt>
<pdfrwt beam="2">  1       -1 0.70974846E-01 0.23953586E+04</pdfrwt>
<totfact> 0.89334550E-01</totfact>
</mgrwt>
</event>
<event>
 6    1  0.1817112E-005  0.1263673E+04  0.7818608E-02  0.9058880E-01
          1   -1    0    0  501    0  0.00000000000E+00  0.00000000000E+00  0.10534354335E+04  0.10534354335E+04  0.00000000000E+00 0. -1.
         -1   -1    0    0    0  501 -0.00000000000E+00 -0.00000000000E+00 -0.37896684466E+03  0.37896684466E+03  0.00000000000E+00 0.  1.
         23    2    1    2    0    0 -0.19388185227E+02 -0.59539951413E+03  0.56551104621E+03  0.82680486302E+03  0.94483093619E+02 0.  0.
         11    1    3    3    0    0 -0.26693674997E+02 -0.45969605955E+03  0.48533748335E+03  0.66901830483E+03  0.00000000000E+00 0. -1.
        -11    1    3    3    0    0  0.73054897700E+01 -0.13570345458E+03  0.80173562865E+02  0.15778655820E+03  0.00000000000E+00 0.  1.
         22    1    1    2    0    0  0.19388185227E+02  0.59539951413E+03  0.10895754267E+03  0.60559741517E+03  0.00000000000E+00 0.  1.
<mgrwt>
<rscale>  0 0.12636726E+04</rscale>
<asrwt>0</asrwt>
<pdfrwt beam="1">  1        1 0.16206699E+00 0.12636726E+04</pdfrwt>
<pdfrwt beam="2">  1       -1 0.58302592E-01 0.12636726E+04</pdfrwt>
<totfact> 0.40393251E+01</totfact>
</mgrwt>
</event>
<event>
 6    1  0.1817112E-005  0.2703983E+04  0.7818608E-02  0.8333714E-01
         -1   -1    0    0    0  501 -0.00000000000E+00  0.00000000000E+00  0.55550367852E+03  0.55550367852E+03  0.00000000000E+00 0.  1.
          1   -1    0    0  501    0  0.00000000000E+00 -0.00000000000E+00 -0.32904939790E+04  0.32904939790E+04  0.00000000000E+00 0. -1.
         23    2    1    2    0    0  0.44002877710E+03 -0.53762065318E+03  0.27846822967E+03  0.75349161802E+03  0.86854890976E+02 0.  0.
         13    1    3    3    0    0  0.35685427469E+03 -0.47405013403E+03  0.21520625157E+03  0.63117527966E+03  0.00000000000E+00 0. -1.
        -13    1    3    3    0    0  0.83174502415E+02 -0.63570519149E+02  0.63261978102E+02  0.12231633836E+03  0.00000000000E+00 0.  1.
         22    1    1    2    0    0 -0.44002877710E+03  0.53762065318E+03 -0.30134585302E+04  0.30925060395E+04  0.00000000000E+00 0. -1.
<mgrwt>
<rscale>  0 0.27039834E+04</rscale>
<asrwt>0</asrwt>
<pdfrwt beam="1">  1        1 0.50622983E+00 0.27039834E+04</pdfrwt>
<pdfrwt beam="2">  1       -1 0.85462106E-01 0.27039834E+04</pdfrwt>
<totfact> 0.42874899E-01</totfact>
</mgrwt>
</event>
<event>
 6    1  0.1817112E-005  0.2120497E+04  0.7818608E-02  0.8552268E-01
          2   -1    0    0  501    0  0.00000000000E+00  0.00000000000E+00  0.74742117027E+03  0.74742117027E+03  0.00000000000E+00 0. -1.
         -2   -1    0    0    0  501 -0.00000000000E+00 -0.00000000000E+00 -0.15040069869E+04  0.15040069869E+04  0.00000000000E+00 0.  1.
         23    2    1    2    0    0 -0.10077555459E+04  0.19790187330E+03 -0.65092777464E+03  0.12190038192E+04  0.86758007381E+02 0.  0.
         13    1    3    3    0    0 -0.72231464653E+03  0.10663689058E+03 -0.48366332577E+03  0.87580824826E+03  0.00000000000E+00 0. -1.
        -13    1    3    3    0    0 -0.28544089933E+03  0.91264982722E+02 -0.16726444886E+03  0.34319557098E+03  0.00000000000E+00 0.  1.
         22    1    1    2    0    0  0.10077555459E+04 -0.19790187330E+03 -0.10565804196E+03  0.10324243379E+04  0.00000000000E+00 0. -1.
<mgrwt>
<rscale>  0 0.21204968E+04</rscale>
<asrwt>0</asrwt>
<pdfrwt beam="1">  1        2 0.11498787E+00 0.21204968E+04</pdfrwt>
<pdfrwt beam="2">  1       -2 0.23138569E+00 0.21204968E+04</pdfrwt>
<totfact> 0.29032775E+00</totfact>
</mgrwt>
</event>
<event>
 6    1  0.1817112E-005  0.1018763E+04  0.7818608E-02  0.9288202E-01
          2   -1    0    0  501    0  0.00000000000E+00  0.00000000000E+00  0.30590715509E+03  0.30590715509E+03  0.00000000000E+00 0. -1.
         -2   -1    0    0    0  501 -0.00000000000E+00 -0.00000000000E+00 -0.84819687735E+03  0.84819687735E+03  0.00000000000E+00 0.  1.
         23    2    1    2    0    0 -0.74109798923E+02 -0.48910565475E+03 -0.15729300327E+03  0.52725550414E+03  0.92415766847E+02 0.  0.
         11    1    3    3    0    0 -0.28324344083E+02 -0.29892075759E+03 -0.13872576807E+03  0.33075780643E+03  0.00000000000E+00 0.  1.
        -11    1    3    3    0    0 -0.45785454841E+02 -0.19018489715E+03 -0.18567235198E+02  0.19649769771E+03  0.00000000000E+00 0. -1.
         22    1    1    2    0    0  0.74109798923E+02  0.48910565475E+03 -0.38499671899E+03  0.62684852830E+03  0.00000000000E+00 0.  1.
<mgrwt>
<rscale>  0 0.10187630E+04</rscale>
<asrwt>0</asrwt>
<pdfrwt beam="1">  1        2 0.47062640E-01 0.10187630E+04</pdfrwt>
<pdfrwt beam="2">  1       -2 0.13049183E+00 0.10187630E+04</pdfrwt>
<totfact> 0.46058992E+01</totfact>
</mgrwt>
</event>
<event>
 6    1  0.1817112E-005  0.3156987E+04  0.7818608E-02  0.8200270E-01
          2   -1    0    0  501    0  0.00000000000E+00  0.00000000000E+00  0.20030125625E+04  0.20030125625E+04  0.00000000000E+00 0. -1.
         -2   -1    0    0    0  501 -0.00000000000E+00 -0.00000000000E+00 -0.12439469359E+04  0.12439469359E+04  0.00000000000E+00 0.  1.
         23    2    1    2    0    0 -0.14546215839E+04 -0.40700868813E+03  0.84541515344E+03  0.17340033638E+04  0.10227834349E+03 0.  0.
         13    1    3    3    0    0 -0.81695707630E+03 -0.26563056117E+03  0.52133632741E+03  0.10048731392E+04  0.00000000000E+00 0.  1.
        -13    1    3    3    0    0 -0.63766450756E+03 -0.14137812696E+03  0.32407882602E+03  0.72913022463E+03  0.00000000000E+00 0. -1.
         22    1    1    2    0    0  0.14546215839E+04  0.40700868813E+03 -0.86349526913E+02  0.15129561346E+04  0.00000000000E+00 0.  1.
<mgrwt>
<rscale>  0 0.31569868E+04</rscale>
<asrwt>0</asrwt>
<pdfrwt beam="1">  1        2 0.30815578E+00 0.31569868E+04</pdfrwt>
<pdfrwt beam="2">  1       -2 0.19137645E+00 0.31569868E+04</pdfrwt>
<totfact> 0.85349337E-01</totfact>
</mgrwt>
</event>
<event>
 6    1  0.1817112E-005  0.3543649E+04  0.7818608E-02  0.8103523E-01
         -1   -1    0    0    0  501 -0.00000000000E+00  0.00000000000E+00  0.11692483377E+04  0.11692483377E+04  0.00000000000E+00 0.  1.
          1   -1    0    0  501    0  0.00000000000E+00 -0.00000000000E+00 -0.26849405852E+04  0.26849405852E+04  0.00000000000E+00 0. -1.
         23    2    1    2    0    0 -0.10924380683E+04 -0.10005456128E+04 -0.18131987142E+04  0.23432214997E+04  0.92113858661E+02 0.  0.
         11    1    3    3    0    0 -0.50286454042E+03 -0.48817465773E+03 -0.92275640674E+03  0.11587349260E+04  0.00000000000E+00 0. -1.
        -11    1    3    3    0    0 -0.58957352787E+03 -0.51237095504E+03 -0.89044230750E+03  0.11844865737E+04  0.00000000000E+00 0.  1.
         22    1    1    2    0    0  0.10924380683E+04  0.10005456128E+04  0.29750646681E+03  0.15109674232E+04  0.00000000000E+00 0.  1.
<mgrwt>
<rscale>  0 0.35436491E+04</rscale>
<asrwt>0</asrwt>
<pdfrwt beam="1">  1        1 0.41306778E+00 0.35436491E+04</pdfrwt>
<pdfrwt beam="2">  1       -1 0.17988436E+00 0.35436491E+04</pdfrwt>
<totfact> 0.17040065E-01</totfact>
</mgrwt>
</event>
<event>
 6    1  0.1817112E-005  0.4959099E+03  0.7818608E-02  0.1014852E+00
         -1   -1    0    0    0  501 -0.00000000000E+00  0.00000000000E+00  0.18882028146E+03  0.18882028146E+03  0.00000000000E+00 0.  1.
          1   -1    0    0  501    0  0.00000000000E+00 -0.00000000000E+00 -0.32560935991E+03  0.32560935991E+03  0.00000000000E+00 0. -1.
         23    2    1    2    0    0  0.91052670595E+02  0.22351346795E+03 -0.58913060380E+02  0.26082851091E+03  0.79447493608E+02 0.  0.
         13    1    3    3    0    0  0.30093572472E+02  0.14035881711E+03 -0.64924431374E+02  0.15754809562E+03  0.00000000000E+00 0. -1.
        -13    1    3    3    0    0  0.60959098124E+02  0.83154650849E+02  0.60113709937E+01  0.10328041529E+03  0.00000000000E+00 0.  1.
         22    1    1    2    0    0 -0.91052670595E+02 -0.22351346795E+03 -0.77876018071E+02  0.25360113046E+03  0.00000000000E+00 0.  1.
<mgrwt>
<rscale>  0 0.49590987E+03</rscale>
<asrwt>0</asrwt>
<pdfrwt beam="1">  1        1 0.50093747E-01 0.49590987E+03</pdfrwt>
<pdfrwt beam="2">  1       -1 0.29049274E-01 0.49590987E+03</pdfrwt>
<totfact> 0.85423295E+02</totfact>
</mgrwt>
</event>
<event>
 6    1  0.1817112E-005  0.1860864E+04  0.7818608E-02  0.8674586E-01
         -2   -1    0    0    0  501 -0.00000000000E+00  0.00000000000E+00  0.99259970300E+03  0.99259970300E+03  0.00000000000E+00 0. -1.
          2   -1    0    0  501    0  0.00000000000E+00 -0.00000000000E+00 -0.87215806327E+03  0.87215806327E+03  0.00000000000E+00 0.  1.
         23    2    1    2    0    0 -0.67761909361E+02 -0.27890692452E+03 -0.82421180254E+03  0.87746304082E+03  0.90749896155E+02 0.  0.
         13    1    3    3    0    0 -0.45480275481E+02 -0.26502322811E+03 -0.68675572356E+03  0.73752233236E+03  0.00000000000E+00 0.  1.
        -13    1    3    3    0    0 -0.22281633880E+02 -0.13883696416E+02 -0.13745607898E+03  0.13994070845E+03  0.00000000000E+00 0. -1.
         22    1    1    2    0    0  0.67761909361E+02  0.27890692452E+03  0.94465344227E+03  0.98729472545E+03  0.00000000000E+00 0. -1.
<mgrwt>
<rscale>  0 0.18608641E+04</rscale>
<asrwt>0</asrwt>
<pdfrwt beam="1">  1        2 0.13417816E+00 0.18608641E+04</pdfrwt>
<pdfrwt beam="2">  1       -2 0.15270765E+00 0.18608641E+04</pdfrwt>
<totfact> 0.82199907E+00</totfact>
</mgrwt>
</event>
<event>
 6    1  0.1817112E-005  0.4449686E+04  0.7818608E-02  0.7919505E-01
          2   -1    0    0  501    0  0.00000000000E+00  0.00000000000E+00  0.18451815241E+04  0.18451815241E+04  0.00000000000E+00 0. -1.
         -2   -1    0    0    0  501 -0.00000000000E+00 -0.00000000000E+00 -0.26826234423E+04  0.26826234423E+04  0.00000000000E+00 0.  1.
         23    2    1    2    0    0  0.47769470784E+03  0.10080935023E+04 -0.23764045368E+04  0.26270549342E+04  0.98358331132E+02 0.  0.
         13    1    3    3    0    0  0.43016417743E+01  0.46943121678E+02 -0.12859276320E+03  0.13696079564E+03  0.00000000000E+00 0.  1.
        -13    1    3    3    0    0  0.47339306607E+03  0.96115038062E+03 -0.22478117736E+04  0.24900941386E+04  0.00000000000E+00 0. -1.
         22    1    1    2    0    0 -0.47769470784E+03 -0.10080935023E+04  0.15389626187E+04  0.19007500322E+04  0.00000000000E+00 0. -1.
<mgrwt>
<rscale>  0 0.44496864E+04</rscale>
<asrwt>0</asrwt>
<pdfrwt beam="1">  1        2 0.28387408E+00 0.44496864E+04</pdfrwt>
<pdfrwt beam="2">  1       -2 0.41271130E+00 0.44496864E+04</pdfrwt>
<totfact> 0.37960222E-02</totfact>
</mgrwt>
</event>
<event>
 6    1  0.1817112E-005  0.1048448E+04  0.7818608E-02  0.9256948E-01
         -4   -1    0    0    0  501 -0.00000000000E+00  0.00000000000E+00  0.15471950943E+04  0.15471950943E+04  0.00000000000E+00 0. -1.
          4   -1    0    0  501    0  0.00000000000E+00 -0.00000000000E+00 -0.17761854870E+03  0.17761854870E+03  0.00000000000E+00 0.  1.
         23    2    1    2    0    0 -0.16269710492E+03  0.46384808640E+03  0.96939615505E+03  0.10909605526E+04  0.94024606807E+02 0.  0.
         13    1    3    3    0    0 -0.59653687485E+02  0.27012902379E+03  0.61139519139E+03  0.67106805316E+03  0.00000000000E+00 0. -1.
        -13    1    3    3    0    0 -0.10304341744E+03  0.19371906261E+03  0.35800096366E+03  0.41989249943E+03  0.00000000000E+00 0.  1.
         22    1    1    2    0    0  0.16269710492E+03 -0.46384808640E+03  0.40018039052E+03  0.63385309036E+03  0.00000000000E+00 0.  1.
<mgrwt>
<rscale>  0 0.10484475E+04</rscale>
<asrwt>0</asrwt>
<pdfrwt beam="1">  1        4 0.27325932E-01 0.10484475E+04</pdfrwt>
<pdfrwt beam="2">  1       -4 0.23803001E+00 0.10484475E+04</pdfrwt>
<totfact> 0.19299651E+00</totfact>
</mgrwt>
</event>
<event>
 6    1  0.1817112E-005  0.2311008E+04  0.7818608E-02  0.8473593E-01
          2   -1    0    0  501    0  0.00000000000E+00  0.00000000000E+00  0.15251773094E+04  0.15251773094E+04  0.00000000000E+00 0. -1.
         -2   -1    0    0    0  501 -0.00000000000E+00 -0.00000000000E+00 -0.87543221568E+03  0.87543221568E+03  0.00000000000E+00 0.  1.
         23    2    1    2    0    0 -0.79760163445E+03 -0.45907980766E+03 -0.39733271441E+03  0.10065885162E+04  0.91785172211E+02 0.  0.
         11    1    3    3    0    0 -0.46185530262E+03 -0.27101455037E+03 -0.18183503748E+03  0.56552912209E+03  0.00000000000E+00 0. -1.
        -11    1    3    3    0    0 -0.33574633183E+03 -0.18806525728E+03 -0.21549767692E+03  0.44105939407E+03  0.00000000000E+00 0.  1.
         22    1    1    2    0    0  0.79760163445E+03  0.45907980766E+03  0.10470778082E+04  0.13940210090E+04  0.00000000000E+00 0. -1.
<mgrwt>
<rscale>  0 0.23110079E+04</rscale>
<asrwt>0</asrwt>
<pdfrwt beam="1">  1        2 0.23464266E+00 0.23110079E+04</pdfrwt>
<pdfrwt beam="2">  1       -2 0.13468188E+00 0.23110079E+04</pdfrwt>
<totfact> 0.44174401E+00</totfact>
</mgrwt>
</event>
<event>
 6    1  0.1817112E-005  0.2717623E+04  0.7818608E-02  0.8329310E-01
          4   -1    0    0  501    0  0.00000000000E+00  0.00000000000E+00  0.17886258961E+04  0.17886258961E+04  0.00000000000E+00 0.  1.
         -4   -1    0    0    0  501 -0.00000000000E+00 -0.00000000000E+00 -0.10322831165E+04  0.10322831165E+04  0.00000000000E+00 0. -1.
         23    2    1    2    0    0  0.11312431180E+04 -0.31502091385E+03 -0.32739827420E+03  0.12229591261E+04  0.97417790789E+02 0.  0.
         13    1    3    3    0    0  0.76839881330E+03 -0.21124921475E+03 -0.26894457792E+03  0.84106727020E+03  0.00000000000E+00 0.  1.
        -13    1    3    3    0    0  0.36284430473E+03 -0.10377169911E+03 -0.58453696285E+02  0.38189185592E+03  0.00000000000E+00 0. -1.
         22    1    1    2    0    0 -0.11312431180E+04  0.31502091385E+03  0.10837410538E+04  0.15979498865E+04  0.00000000000E+00 0.  1.
<mgrwt>
<rscale>  0 0.27176227E+04</rscale>
<asrwt>0</asrwt>
<pdfrwt beam="1">  1        4 0.27517322E+00 0.27176227E+04</pdfrwt>
<pdfrwt beam="2">  1       -4 0.15881279E+00 0.27176227E+04</pdfrwt>
<totfact> 0.19628429E-02</totfact>
</mgrwt>
</event>
<event>
 6    1  0.1817112E-005  0.7446439E+03  0.7818608E-02  0.9643791E-01
          2   -1    0    0  501    0  0.00000000000E+00  0.00000000000E+00  0.72815283658E+03  0.72815283658E+03  0.00000000000E+00 0. -1.
         -2   -1    0    0    0  501 -0.00000000000E+00 -0.00000000000E+00 -0.19037712677E+03  0.19037712677E+03  0.00000000000E+00 0.  1.
         23    2    1    2    0    0  0.33681808306E+03  0.13762885106E+03  0.32892988846E+03  0.49900082394E+03  0.91754177258E+02 0.  0.
         13    1    3    3    0    0  0.17659126863E+03  0.24372123812E+02  0.17250815031E+03  0.24806760873E+03  0.00000000000E+00 0.  1.
        -13    1    3    3    0    0  0.16022681443E+03  0.11325672724E+03  0.15642173815E+03  0.25093321521E+03  0.00000000000E+00 0. -1.
         22    1    1    2    0    0 -0.33681808306E+03 -0.13762885106E+03  0.20884582135E+03  0.41952913941E+03  0.00000000000E+00 0. -1.
<mgrwt>
<rscale>  0 0.74464393E+03</rscale>
<asrwt>0</asrwt>
<pdfrwt beam="1">  1        2 0.11202351E+00 0.74464393E+03</pdfrwt>
<pdfrwt beam="2">  1       -2 0.29288789E-01 0.74464393E+03</pdfrwt>
<totfact> 0.42002875E+02</totfact>
</mgrwt>
</event>
<event>
 6    1  0.1817112E-005  0.4569893E+03  0.7818608E-02  0.1025658E+00
         -1   -1    0    0    0  501 -0.00000000000E+00  0.00000000000E+00  0.23349858139E+03  0.23349858139E+03  0.00000000000E+00 0.  1.
          1   -1    0    0  501    0  0.00000000000E+00 -0.00000000000E+00 -0.22359790631E+03  0.22359790631E+03  0.00000000000E+00 0. -1.
         23    2    1    2    0    0 -0.62520038702E+02  0.94737086871E+02 -0.18244979145E+03  0.23375241940E+03  0.92023889885E+02 0.  0.
         11    1    3    3    0    0  0.11463264703E+02  0.43617895107E+02 -0.10789092316E+03  0.11693749831E+03  0.00000000000E+00 0. -1.
        -11    1    3    3    0    0 -0.73983303405E+02  0.51119191764E+02 -0.74558868290E+02  0.11681492109E+03  0.00000000000E+00 0.  1.
         22    1    1    2    0    0  0.62520038702E+02 -0.94737086871E+02  0.19235046653E+03  0.22334406830E+03  0.00000000000E+00 0.  1.
<mgrwt>
<rscale>  0 0.45698925E+03</rscale>
<asrwt>0</asrwt>
<pdfrwt beam="1">  1        1 0.34399678E-01 0.45698925E+03</pdfrwt>
<pdfrwt beam="2">  1       -1 0.35922859E-01 0.45698925E+03</pdfrwt>
<totfact> 0.95449506E+02</totfact>
</mgrwt>
</event>
<event>
 6    1  0.1817112E-005  0.2549100E+04  0.7818608E-02  0.8385699E-01
         -1   -1    0    0    0  501 -0.00000000000E+00  0.00000000000E+00  0.26617285608E+04  0.26617285608E+04  0.00000000000E+00 0.  1.
          1   -1    0    0  501    0  0.00000000000E+00 -0.00000000000E+00 -0.61030941571E+03  0.61030941571E+03  0.00000000000E+00 0. -1.
         23    2    1    2    0    0  0.68622185587E+03 -0.46545510971E+03  0.22668175763E+04  0.24153318548E+04  0.88414648670E+02 0.  0.
         11    1    3    3    0    0  0.33817819409E+03 -0.20644863836E+03  0.11980002035E+04  0.12618201215E+04  0.00000000000E+00 0. -1.
        -11    1    3    3    0    0  0.34804366179E+03 -0.25900647135E+03  0.10688173728E+04  0.11535117334E+04  0.00000000000E+00 0.  1.
         22    1    1    2    0    0 -0.68622185587E+03  0.46545510971E+03 -0.21539843126E+03  0.85670612162E+03  0.00000000000E+00 0. -1.
<mgrwt>
<rscale>  0 0.25491002E+04</rscale>
<asrwt>0</asrwt>
<pdfrwt beam="1">  1        1 0.93893758E-01 0.25491002E+04</pdfrwt>
<pdfrwt beam="2">  1       -1 0.40949670E+00 0.25491002E+04</pdfrwt>
<totfact> 0.18198784E-01</totfact>
</mgrwt>
</event>
<event>
 6    1  0.1817112E-005  0.3777675E+04  0.7818608E-02  0.8050963E-01
          2   -1    0    0  501    0  0.00000000000E+00  0.00000000000E+00  0.18853356598E+04  0.18853356598E+04  0.00000000000E+00 0.  1.
         -2   -1    0    0    0  501 -0.00000000000E+00 -0.00000000000E+00 -0.18923457682E+04  0.18923457682E+04  0.00000000000E+00 0. -1.
         23    2    1    2    0    0 -0.10668805828E+04  0.78949316185E+03 -0.13459520927E+04  0.18923964978E+04  0.89687449159E+02 0.  0.
         13    1    3    3    0    0 -0.78473070917E+03  0.61371474622E+03 -0.96802025994E+03  0.13890685006E+04  0.00000000000E+00 0. -1.
        -13    1    3    3    0    0 -0.28214987358E+03  0.17577841564E+03 -0.37793183275E+03  0.50332799721E+03  0.00000000000E+00 0.  1.
         22    1    1    2    0    0  0.10668805828E+04 -0.78949316185E+03  0.13389419843E+04  0.18852849301E+04  0.00000000000E+00 0.  1.
<mgrwt>
<rscale>  0 0.37776749E+04</rscale>
<asrwt>0</asrwt>
<pdfrwt beam="1">  1        2 0.29005164E+00 0.37776749E+04</pdfrwt>
<pdfrwt beam="2">  1       -2 0.29113012E+00 0.37776749E+04</pdfrwt>
<totfact> 0.22382373E-01</totfact>
</mgrwt>
</event>
<event>
 6    1  0.1817112E-005  0.2318661E+04  0.7818608E-02  0.8470600E-01
          2   -1    0    0  501    0  0.00000000000E+00  0.00000000000E+00  0.24824685494E+04  0.24824685494E+04  0.00000000000E+00 0.  1.
         -2   -1    0    0    0  501 -0.00000000000E+00 -0.00000000000E+00 -0.54141546583E+03  0.54141546583E+03  0.00000000000E+00 0. -1.
         23    2    1    2    0    0 -0.10692524215E+04  0.43800336838E+03  0.10622237321E+04  0.15721647860E+04  0.90747813039E+02 0.  0.
         13    1    3    3    0    0 -0.52557575227E+03  0.16654632985E+03  0.51120409194E+03  0.75186247079E+03  0.00000000000E+00 0. -1.
        -13    1    3    3    0    0 -0.54367666923E+03  0.27145703853E+03  0.55101964018E+03  0.82030231518E+03  0.00000000000E+00 0.  1.
         22    1    1    2    0    0  0.10692524215E+04 -0.43800336838E+03  0.87882935142E+03  0.14517192292E+04  0.00000000000E+00 0. -1.
<mgrwt>
<rscale>  0 0.23186607E+04</rscale>
<asrwt>0</asrwt>
<pdfrwt beam="1">  1        2 0.38191823E+00 0.23186607E+04</pdfrwt>
<pdfrwt beam="2">  1       -2 0.83294688E-01 0.23186607E+04</pdfrwt>
<totfact> 0.40699344E+00</totfact>
</mgrwt>
</event>
<event>
 6    1  0.1817112E-005  0.5216232E+04  0.7818608E-02  0.7795990E-01
         -1   -1    0    0    0  501 -0.00000000000E+00  0.00000000000E+00  0.29368858447E+04  0.29368858447E+04  0.00000000000E+00 0.  1.
          1   -1    0    0  501    0  0.00000000000E+00 -0.00000000000E+00 -0.23161499859E+04  0.23161499859E+04  0.00000000000E+00 0. -1.
         23    2    1    2    0    0 -0.15285300570E+04  0.10426245576E+04  0.21604074038E+04  0.28459507532E+04  0.92765488204E+02 0.  0.
         13    1    3    3    0    0 -0.74388420391E+03  0.47537608926E+03  0.10888706849E+04  0.14017794061E+04  0.00000000000E+00 0. -1.
        -13    1    3    3    0    0 -0.78464585310E+03  0.56724846834E+03  0.10715367189E+04  0.14441713471E+04  0.00000000000E+00 0.  1.
         22    1    1    2    0    0  0.15285300570E+04 -0.10426245576E+04 -0.15396715450E+04  0.24070850774E+04  0.00000000000E+00 0. -1.
<mgrwt>
<rscale>  0 0.52162316E+04</rscale>
<asrwt>0</asrwt>
<pdfrwt beam="1">  1        1 0.35633077E+00 0.52162316E+04</pdfrwt>
<pdfrwt beam="2">  1       -1 0.45182859E+00 0.52162316E+04</pdfrwt>
<totfact> 0.40593523E-03</totfact>
</mgrwt>
</event>
<event>
 6    1  0.1817112E-005  0.1712479E+04  0.7818608E-02  0.8754279E-01
          2   -1    0    0  501    0  0.00000000000E+00  0.00000000000E+00  0.17771329239E+04  0.17771329239E+04  0.00000000000E+00 0. -1.
         -2   -1    0    0    0  501 -0.00000000000E+00 -0.00000000000E+00 -0.41254417709E+03  0.41254417709E+03  0.00000000000E+00 0.  1.
         23    2    1    2    0    0 -0.49524387847E+03 -0.14857471666E+03  0.15531822136E+04  0.16393059159E+04  0.87223573093E+02 0.  0.
         13    1    3    3    0    0 -0.10595450109E+03 -0.14459800684E+02  0.42790509067E+03  0.44106485777E+03  0.00000000000E+00 0.  1.
        -13    1    3    3    0    0 -0.38928937738E+03 -0.13411491598E+03  0.11252771229E+04  0.11982410581E+04  0.00000000000E+00 0. -1.
         22    1    1    2    0    0  0.49524387847E+03  0.14857471666E+03 -0.18859346682E+03  0.55037118504E+03  0.00000000000E+00 0.  1.
<mgrwt>
<rscale>  0 0.17124787E+04</rscale>
<asrwt>0</asrwt>
<pdfrwt beam="1">  1        2 0.27340506E+00 0.17124787E+04</pdfrwt>
<pdfrwt beam="2">  1       -2 0.63468336E-01 0.17124787E+04</pdfrwt>
<totfact> 0.19405871E+01</totfact>
</mgrwt>
</event>
<event>
 6    1  0.1817112E-005  0.1215193E+04  0.7818608E-02  0.9099661E-01
         -2   -1    0    0    0  501 -0.00000000000E+00  0.00000000000E+00  0.22994269004E+03  0.22994269004E+03  0.00000000000E+00 0. -1.
          2   -1    0    0  501    0  0.00000000000E+00 -0.00000000000E+00 -0.16055016090E+04  0.16055016090E+04  0.00000000000E+00 0.  1.
         23    2    1    2    0    0  0.83778796578E+01  0.59366256616E+03 -0.52354657841E+03  0.79696923444E+03  0.92485185604E+02 0.  0.
         13    1    3    3    0    0 -0.25467517013E+02  0.13409791320E+03 -0.84775183631E+02  0.16067879918E+03  0.00000000000E+00 0. -1.
        -13    1    3    3    0    0  0.33845396671E+02  0.45956465296E+03 -0.43877139478E+03  0.63629043526E+03  0.00000000000E+00 0.  1.
         22    1    1    2    0    0 -0.83778796578E+01 -0.59366256616E+03 -0.85201234054E+03  0.10384750646E+04  0.00000000000E+00 0.  1.
<mgrwt>
<rscale>  0 0.12151928E+04</rscale>
<asrwt>0</asrwt>
<pdfrwt beam="1">  1        2 0.24700025E+00 0.12151928E+04</pdfrwt>
<pdfrwt beam="2">  1       -2 0.35375798E-01 0.12151928E+04</pdfrwt>
<totfact> 0.81894519E+01</totfact>
</mgrwt>
</event>
<event>
 6    1  0.1817112E-005  0.1917440E+04  0.7818608E-02  0.8646224E-01
          1   -1    0    0  501    0  0.00000000000E+00  0.00000000000E+00  0.17908796562E+04  0.17908796562E+04  0.00000000000E+00 0. -1.
         -1   -1    0    0    0  501 -0.00000000000E+00 -0.00000000000E+00 -0.51323593368E+03  0.51323593368E+03  0.00000000000E+00 0.  1.
         23    2    1    2    0    0 -0.23399584158E+03 -0.75153291629E+03 -0.13821582570E+02  0.79168760402E+03  0.83800048110E+02 0.  0.
         13    1    3    3    0    0 -0.10691516318E+03 -0.35391062161E+03  0.35216463127E+02  0.37138090888E+03  0.00000000000E+00 0. -1.
        -13    1    3    3    0    0 -0.12708067840E+03 -0.39762229468E+03 -0.49038045697E+02  0.42030669514E+03  0.00000000000E+00 0.  1.
         22    1    1    2    0    0  0.23399584158E+03  0.75153291629E+03  0.12914653051E+04  0.15124279859E+04  0.00000000000E+00 0. -1.
<mgrwt>
<rscale>  0 0.19174397E+04</rscale>
<asrwt>0</asrwt>
<pdfrwt beam="1">  1        1 0.27551994E+00 0.19174397E+04</pdfrwt>
<pdfrwt beam="2">  1       -1 0.78959376E-01 0.19174397E+04</pdfrwt>
<totfact> 0.61921712E+00</totfact>
</mgrwt>
</event>
<event>
 6    1  0.1817112E-005  0.1752700E+04  0.7818608E-02  0.8731866E-01
         -2   -1    0    0    0  501 -0.00000000000E+00  0.00000000000E+00  0.95897878952E+03  0.95897878952E+03  0.00000000000E+00 0.  1.
          2   -1    0    0  501    0  0.00000000000E+00 -0.00000000000E+00 -0.80084075257E+03  0.80084075257E+03  0.00000000000E+00 0. -1.
         23    2    1    2    0    0  0.54790467162E+03 -0.68040646333E+03  0.65185172423E+02  0.88130220046E+03  0.96394902894E+02 0.  0.
         13    1    3    3    0    0  0.49657691928E+03 -0.64700338519E+03  0.45070040920E+02  0.81684351365E+03  0.00000000000E+00 0. -1.
        -13    1    3    3    0    0  0.51327752336E+02 -0.33403078146E+02  0.20115131503E+02  0.64458686807E+02  0.00000000000E+00 0.  1.
         22    1    1    2    0    0 -0.54790467162E+03  0.68040646333E+03  0.92952864522E+02  0.87851734163E+03  0.00000000000E+00 0. -1.
<mgrwt>
<rscale>  0 0.17527000E+04</rscale>
<asrwt>0</asrwt>
<pdfrwt beam="1">  1        2 0.12320627E+00 0.17527000E+04</pdfrwt>
<pdfrwt beam="2">  1       -2 0.14753520E+00 0.17527000E+04</pdfrwt>
<totfact> 0.10200532E+01</totfact>
</mgrwt>
</event>
<event>
 6    1  0.1817112E-005  0.1354826E+04  0.7818608E-02  0.8987183E-01
         -2   -1    0    0    0  501 -0.00000000000E+00  0.00000000000E+00  0.22102097368E+03  0.22102097368E+03  0.00000000000E+00 0. -1.
          2   -1    0    0  501    0  0.00000000000E+00 -0.00000000000E+00 -0.20762220959E+04  0.20762220959E+04  0.00000000000E+00 0.  1.
         23    2    1    2    0    0  0.21778319481E+03  0.55172969533E+03 -0.14753855559E+04  0.15929029237E+04  0.93498712402E+02 0.  0.
         11    1    3    3    0    0  0.17106489817E+03  0.30901694380E+03 -0.85318068479E+03  0.92340237808E+03  0.00000000000E+00 0. -1.
        -11    1    3    3    0    0  0.46718296639E+02  0.24271275153E+03 -0.62220487112E+03  0.66950054566E+03  0.00000000000E+00 0.  1.
         22    1    1    2    0    0 -0.21778319481E+03 -0.55172969533E+03 -0.37981556632E+03  0.70434014586E+03  0.00000000000E+00 0. -1.
<mgrwt>
<rscale>  0 0.13548264E+04</rscale>
<asrwt>0</asrwt>
<pdfrwt beam="1">  1        2 0.31941878E+00 0.13548264E+04</pdfrwt>
<pdfrwt beam="2">  1       -2 0.34003227E-01 0.13548264E+04</pdfrwt>
<totfact> 0.47943860E+01</totfact>
</mgrwt>
</event>
<event>
 6    1  0.1817112E-005  0.4043540E+04  0.7818608E-02  0.7995820E-01
         -2   -1    0    0    0  501 -0.00000000000E+00  0.00000000000E+00  0.14147923043E+04  0.14147923043E+04  0.00000000000E+00 0.  1.
          2   -1    0    0  501    0  0.00000000000E+00 -0.00000000000E+00 -0.28891548059E+04  0.28891548059E+04  0.00000000000E+00 0. -1.
         23    2    1    2    0    0  0.24795584675E+03  0.16371165029E+04 -0.19704516527E+04  0.25754399533E+04  0.92621225561E+02 0.  0.
         11    1    3    3    0    0  0.14544107098E+03  0.71770645380E+03 -0.91456570300E+03  0.11716168674E+04  0.00000000000E+00 0. -1.
        -11    1    3    3    0    0  0.10251477576E+03  0.91941004906E+03 -0.10558859497E+04  0.14038230858E+04  0.00000000000E+00 0.  1.
         22    1    1    2    0    0 -0.24795584675E+03 -0.16371165029E+04  0.49608915111E+03  0.17285071570E+04  0.00000000000E+00 0.  1.
<mgrwt>
<rscale>  0 0.40435400E+04</rscale>
<asrwt>0</asrwt>
<pdfrwt beam="1">  1        2 0.44448535E+00 0.40435400E+04</pdfrwt>
<pdfrwt beam="2">  1       -2 0.21766036E+00 0.40435400E+04</pdfrwt>
<totfact> 0.16396593E-01</totfact>
</mgrwt>
</event>
<event>
 6    1  0.1817112E-005  0.5417670E+03  0.7818608E-02  0.1003418E+00
         -2   -1    0    0    0  501 -0.00000000000E+00  0.00000000000E+00  0.87739405080E+03  0.87739405080E+03  0.00000000000E+00 0.  1.
          2   -1    0    0  501    0  0.00000000000E+00 -0.00000000000E+00 -0.83631596985E+02  0.83631596985E+02  0.00000000000E+00 0. -1.
         23    2    1    2    0    0 -0.15185339654E+03 -0.12174411206E+03  0.72247053232E+03  0.75374897053E+03  0.91064579521E+02 0.  0.
         13    1    3    3    0    0 -0.12003649918E+03 -0.55556098311E+02  0.56069206926E+03  0.57608231854E+03  0.00000000000E+00 0. -1.
        -13    1    3    3    0    0 -0.31816897360E+02 -0.66188013754E+02  0.16177846305E+03  0.17766665199E+03  0.00000000000E+00 0.  1.
         22    1    1    2    0    0  0.15185339654E+03  0.12174411206E+03  0.71291921500E+02  0.20727667726E+03  0.00000000000E+00 0. -1.
<mgrwt>
<rscale>  0 0.54176698E+03</rscale>
<asrwt>0</asrwt>
<pdfrwt beam="1">  1        2 0.12866400E-01 0.54176698E+03</pdfrwt>
<pdfrwt beam="2">  1       -2 0.13498369E+00 0.54176698E+03</pdfrwt>
<totfact> 0.19405246E+02</totfact>
</mgrwt>
</event>
<event>
 6    1  0.1817112E-005  0.2319549E+04  0.7818608E-02  0.8470253E-01
         -2   -1    0    0    0  501 -0.00000000000E+00  0.00000000000E+00  0.45572559199E+03  0.45572559199E+03  0.00000000000E+00 0.  1.
          2   -1    0    0  501    0  0.00000000000E+00 -0.00000000000E+00 -0.29515056960E+04  0.29515056960E+04  0.00000000000E+00 0. -1.
         23    2    1    2    0    0 -0.19693693952E+03  0.87575456289E+03 -0.17530942191E+03  0.91919704404E+03  0.91976082771E+02 0.  0.
         13    1    3    3    0    0 -0.51421554022E+02  0.39709862284E+03 -0.50574620616E+02  0.40359544686E+03  0.00000000000E+00 0.  1.
        -13    1    3    3    0    0 -0.14551538550E+03  0.47865594005E+03 -0.12473480129E+03  0.51560159718E+03  0.00000000000E+00 0. -1.
         22    1    1    2    0    0  0.19693693952E+03 -0.87575456289E+03 -0.23204706822E+04  0.24880342440E+04  0.00000000000E+00 0. -1.
<mgrwt>
<rscale>  0 0.23195488E+04</rscale>
<asrwt>0</asrwt>
<pdfrwt beam="1">  1        2 0.45407778E+00 0.23195488E+04</pdfrwt>
<pdfrwt beam="2">  1       -2 0.70111633E-01 0.23195488E+04</pdfrwt>
<totfact> 0.31323325E+00</totfact>
</mgrwt>
</event>
<event>
 6    1  0.1817112E-005  0.1577373E+04  0.7818608E-02  0.8834571E-01
          2   -1    0    0  501    0  0.00000000000E+00  0.00000000000E+00  0.58251759650E+03  0.58251759650E+03  0.00000000000E+00 0. -1.
         -2   -1    0    0    0  501 -0.00000000000E+00 -0.00000000000E+00 -0.10678237534E+04  0.10678237534E+04  0.00000000000E+00 0.  1.
         23    2    1    2    0    0 -0.59132796530E+03 -0.50460971301E+03 -0.12882052013E+03  0.79513275885E+03  0.10649719615E+03 0.  0.
         13    1    3    3    0    0 -0.19739458633E+03 -0.23674665172E+03 -0.52507361073E+02  0.31268294290E+03  0.00000000000E+00 0. -1.
        -13    1    3    3    0    0 -0.39393337897E+03 -0.26786306129E+03 -0.76313159053E+02  0.48244981595E+03  0.00000000000E+00 0.  1.
         22    1    1    2    0    0  0.59132796530E+03  0.50460971301E+03 -0.35648563679E+03  0.85520859107E+03  0.00000000000E+00 0. -1.
<mgrwt>
<rscale>  0 0.15773727E+04</rscale>
<asrwt>0</asrwt>
<pdfrwt beam="1">  1        2 0.89618092E-01 0.15773727E+04</pdfrwt>
<pdfrwt beam="2">  1       -2 0.16428058E+00 0.15773727E+04</pdfrwt>
<totfact> 0.11558920E+01</totfact>
</mgrwt>
</event>
<event>
 6    1  0.1817112E-005  0.2393659E+04  0.7818608E-02  0.8441881E-01
          2   -1    0    0  501    0  0.00000000000E+00  0.00000000000E+00  0.29566905091E+04  0.29566905091E+04  0.00000000000E+00 0. -1.
         -2   -1    0    0    0  501 -0.00000000000E+00 -0.00000000000E+00 -0.48446083188E+03  0.48446083188E+03  0.00000000000E+00 0.  1.
         23    2    1    2    0    0  0.11240529988E+04  0.33160582924E+03  0.90146857861E+03  0.14813687002E+04  0.91378649363E+02 0.  0.
         13    1    3    3    0    0  0.60769923825E+03  0.13831626654E+03  0.50746247986E+03  0.80370885414E+03  0.00000000000E+00 0. -1.
        -13    1    3    3    0    0  0.51635376058E+03  0.19328956271E+03  0.39400609875E+03  0.67765984607E+03  0.00000000000E+00 0.  1.
         22    1    1    2    0    0 -0.11240529988E+04 -0.33160582924E+03  0.15707610986E+04  0.19597826408E+04  0.00000000000E+00 0.  1.
<mgrwt>
<rscale>  0 0.23936589E+04</rscale>
<asrwt>0</asrwt>
<pdfrwt beam="1">  1        2 0.45487545E+00 0.23936589E+04</pdfrwt>
<pdfrwt beam="2">  1       -2 0.74532438E-01 0.23936589E+04</pdfrwt>
<totfact> 0.27004960E+00</totfact>
</mgrwt>
</event>
<event>
 6    1  0.1817112E-005  0.1009430E+04  0.7818608E-02  0.9298262E-01
          2   -1    0    0  501    0  0.00000000000E+00  0.00000000000E+00  0.73564298402E+03  0.73564298402E+03  0.00000000000E+00 0. -1.
         -2   -1    0    0    0  501 -0.00000000000E+00 -0.00000000000E+00 -0.34627818143E+03  0.34627818143E+03  0.00000000000E+00 0.  1.
         23    2    1    2    0    0  0.17755946142E+03 -0.44876139552E+03  0.52486538222E+02  0.49336265736E+03  0.87964325312E+02 0.  0.
         11    1    3    3    0    0  0.13850667353E+03 -0.24029807343E+03  0.13249420380E+02  0.27767392720E+03  0.00000000000E+00 0. -1.
        -11    1    3    3    0    0  0.39052787893E+02 -0.20846332209E+03  0.39237117841E+02  0.21568873015E+03  0.00000000000E+00 0.  1.
         22    1    1    2    0    0 -0.17755946142E+03  0.44876139552E+03  0.33687826437E+03  0.58855850810E+03  0.00000000000E+00 0. -1.
<mgrwt>
<rscale>  0 0.10094298E+04</rscale>
<asrwt>0</asrwt>
<pdfrwt beam="1">  1        2 0.11317584E+00 0.10094298E+04</pdfrwt>
<pdfrwt beam="2">  1       -2 0.53273567E-01 0.10094298E+04</pdfrwt>
<totfact> 0.12748149E+02</totfact>
</mgrwt>
</event>
<event>
 6    1  0.1817112E-005  0.1584920E+04  0.7818608E-02  0.8829866E-01
          2   -1    0    0  501    0  0.00000000000E+00  0.00000000000E+00  0.21422956719E+04  0.21422956719E+04  0.00000000000E+00 0. -1.
         -2   -1    0    0    0  501 -0.00000000000E+00 -0.00000000000E+00 -0.29314002476E+03  0.29314002476E+03  0.00000000000E+00 0.  1.
         23    2    1    2    0    0  0.45309723391E+03 -0.37791078984E+03  0.12094128272E+03  0.60928166213E+03  0.92106902542E+02 0.  0.
         13    1    3    3    0    0  0.35054733483E+03 -0.24139926431E+03  0.10044074240E+03  0.43731611164E+03  0.00000000000E+00 0.  1.
        -13    1    3    3    0    0  0.10254989907E+03 -0.13651152553E+03  0.20500540326E+02  0.17196555049E+03  0.00000000000E+00 0. -1.
         22    1    1    2    0    0 -0.45309723391E+03  0.37791078984E+03  0.17282143644E+04  0.18261540345E+04  0.00000000000E+00 0. -1.
<mgrwt>
<rscale>  0 0.15849197E+04</rscale>
<asrwt>0</asrwt>
<pdfrwt beam="1">  1        2 0.32958394E+00 0.15849197E+04</pdfrwt>
<pdfrwt beam="2">  1       -2 0.45098467E-01 0.15849197E+04</pdfrwt>
<totfact> 0.24922056E+01</totfact>
</mgrwt>
</event>
<event>
 6    1  0.1817112E-005  0.2738113E+04  0.7818608E-02  0.8322744E-01
         -2   -1    0    0    0  501 -0.00000000000E+00  0.00000000000E+00  0.63378846870E+03  0.63378846870E+03  0.00000000000E+00 0.  1.
          2   -1    0    0  501    0  0.00000000000E+00 -0.00000000000E+00 -0.29573206240E+04  0.29573206240E+04  0.00000000000E+00 0. -1.
         23    2    1    2    0    0  0.11289079297E+04 -0.57331019965E+03 -0.18408266458E+04  0.22360731863E+04  0.90900251208E+02 0.  0.
         11    1    3    3    0    0  0.76639985905E+03 -0.38684673861E+03 -0.13212228429E+04  0.15756423908E+04  0.00000000000E+00 0. -1.
        -11    1    3    3    0    0  0.36250807065E+03 -0.18646346104E+03 -0.51960380291E+03  0.66043079546E+03  0.00000000000E+00 0.  1.
         22    1    1    2    0    0 -0.11289079297E+04  0.57331019965E+03 -0.48270550945E+03  0.13550359064E+04  0.00000000000E+00 0. -1.
<mgrwt>
<rscale>  0 0.27381130E+04</rscale>
<asrwt>0</asrwt>
<pdfrwt beam="1">  1        2 0.45497240E+00 0.27381130E+04</pdfrwt>
<pdfrwt beam="2">  1       -2 0.97505919E-01 0.27381130E+04</pdfrwt>
<totfact> 0.14191810E+00</totfact>
</mgrwt>
</event>
<event>
 6    1  0.1817112E-005  0.1325664E+04  0.7818608E-02  0.9009458E-01
         -2   -1    0    0    0  501 -0.00000000000E+00  0.00000000000E+00  0.12166930804E+03  0.12166930804E+03  0.00000000000E+00 0.  1.
          2   -1    0    0  501    0  0.00000000000E+00 -0.00000000000E+00 -0.36109854988E+04  0.36109854988E+04  0.00000000000E+00 0. -1.
         23    2    1    2    0    0 -0.11597534730E+03  0.38287555880E+03 -0.32299648159E+04  0.32558874523E+04  0.89924498066E+02 0.  0.
         13    1    3    3    0    0  0.78629566715E+01  0.10567368221E+03 -0.90533669886E+03  0.91151702754E+03  0.00000000000E+00 0. -1.
        -13    1    3    3    0    0 -0.12383830397E+03  0.27720187659E+03 -0.23246281170E+04  0.23443704247E+04  0.00000000000E+00 0.  1.
         22    1    1    2    0    0  0.11597534730E+03 -0.38287555880E+03 -0.25935137485E+03  0.47676735453E+03  0.00000000000E+00 0.  1.
<mgrwt>
<rscale>  0 0.13256638E+04</rscale>
<asrwt>0</asrwt>
<pdfrwt beam="1">  1        2 0.55553617E+00 0.13256638E+04</pdfrwt>
<pdfrwt beam="2">  1       -2 0.18718357E-01 0.13256638E+04</pdfrwt>
<totfact> 0.16281241E+01</totfact>
</mgrwt>
</event>
<event>
 6    1  0.1817112E-005  0.5837077E+03  0.7818608E-02  0.9939796E-01
          2   -1    0    0  501    0  0.00000000000E+00  0.00000000000E+00  0.21516228980E+03  0.21516228980E+03  0.00000000000E+00 0. -1.
         -2   -1    0    0    0  501 -0.00000000000E+00 -0.00000000000E+00 -0.39588109992E+03  0.39588109992E+03  0.00000000000E+00 0.  1.
         23    2    1    2    0    0  0.25940728226E+03  0.78431111002E+02 -0.15891362303E+01  0.28618801062E+03  0.91964530167E+02 0.  0.
         13    1    3    3    0    0  0.18543780119E+03  0.17795395713E+02  0.22255735951E+02  0.18761442376E+03  0.00000000000E+00 0.  1.
        -13    1    3    3    0    0  0.73969481064E+02  0.60635715290E+02 -0.23844872182E+02  0.98573586862E+02  0.00000000000E+00 0. -1.
         22    1    1    2    0    0 -0.25940728226E+03 -0.78431111002E+02 -0.17912967389E+03  0.32485537910E+03  0.00000000000E+00 0.  1.
<mgrwt>
<rscale>  0 0.58370775E+03</rscale>
<asrwt>0</asrwt>
<pdfrwt beam="1">  1        2 0.33101891E-01 0.58370775E+03</pdfrwt>
<pdfrwt beam="2">  1       -2 0.60904784E-01 0.58370775E+03</pdfrwt>
<totfact> 0.40341650E+02</totfact>
</mgrwt>
</event>
<event>
 6    1  0.1817112E-005  0.2577320E+04  0.7818608E-02  0.8375946E-01
          2   -1    0    0  501    0  0.00000000000E+00  0.00000000000E+00  0.11065787134E+04  0.11065787134E+04  0.00000000000E+00 0.  1.
         -2   -1    0    0    0  501 -0.00000000000E+00 -0.00000000000E+00 -0.15007019403E+04  0.15007019403E+04  0.00000000000E+00 0. -1.
         23    2    1    2    0    0  0.39096134286E+03 -0.51649269179E+03  0.92775710930E+03  0.11352130277E+04  0.91432445841E+02 0.  0.
         11    1    3    3    0    0  0.33980870604E+03 -0.39895465071E+03  0.70882707410E+03  0.88151607530E+03  0.00000000000E+00 0. -1.
        -11    1    3    3    0    0  0.51152636814E+02 -0.11753804108E+03  0.21893003520E+03  0.25369695242E+03  0.00000000000E+00 0.  1.
         22    1    1    2    0    0 -0.39096134286E+03  0.51649269179E+03 -0.13218803362E+04  0.14720676260E+04  0.00000000000E+00 0. -1.
<mgrwt>
<rscale>  0 0.25773202E+04</rscale>
<asrwt>0</asrwt>
<pdfrwt beam="1">  1        2 0.17024288E+00 0.25773202E+04</pdfrwt>
<pdfrwt beam="2">  1       -2 0.23087722E+00 0.25773202E+04</pdfrwt>
<totfact> 0.16146959E+00</totfact>
</mgrwt>
</event>
<event>
 6    1  0.1817112E-005  0.1456484E+04  0.7818608E-02  0.8913918E-01
         -2   -1    0    0    0  501 -0.00000000000E+00  0.00000000000E+00  0.12415612095E+04  0.12415612095E+04  0.00000000000E+00 0.  1.
          2   -1    0    0  501    0  0.00000000000E+00 -0.00000000000E+00 -0.42715273993E+03  0.42715273993E+03  0.00000000000E+00 0. -1.
         23    2    1    2    0    0 -0.36000596795E+03  0.12702618751E+02 -0.31252506451E+03  0.48560582092E+03  0.91517451259E+02 0.  0.
         13    1    3    3    0    0 -0.33015994940E+03 -0.13302050702E+01 -0.30940068702E+03  0.45247778593E+03  0.00000000000E+00 0. -1.
        -13    1    3    3    0    0 -0.29846018556E+02  0.14032823821E+02 -0.31243774907E+01  0.33128034997E+02  0.00000000000E+00 0.  1.
         22    1    1    2    0    0  0.36000596795E+03 -0.12702618751E+02  0.11269335341E+04  0.11831081285E+04  0.00000000000E+00 0.  1.
<mgrwt>
<rscale>  0 0.14564838E+04</rscale>
<asrwt>0</asrwt>
<pdfrwt beam="1">  1        2 0.65715807E-01 0.14564838E+04</pdfrwt>
<pdfrwt beam="2">  1       -2 0.19100942E+00 0.14564838E+04</pdfrwt>
<totfact> 0.10906164E+01</totfact>
</mgrwt>
</event>
<event>
 6    1  0.1817112E-005  0.9785308E+03  0.7818608E-02  0.9332410E-01
         -1   -1    0    0    0  501 -0.00000000000E+00  0.00000000000E+00  0.31047734660E+03  0.31047734660E+03  0.00000000000E+00 0.  1.
          1   -1    0    0  501    0  0.00000000000E+00 -0.00000000000E+00 -0.77100835702E+03  0.77100835702E+03  0.00000000000E+00 0. -1.
         23    2    1    2    0    0 -0.41076913757E+03  0.15068416292E+03 -0.15945571677E+01  0.44740395065E+03  0.93438488353E+02 0.  0.
         13    1    3    3    0    0 -0.36284493035E+02 -0.46382768057E+01  0.19470773319E+02  0.41438979960E+02  0.00000000000E+00 0.  1.
        -13    1    3    3    0    0 -0.37448464454E+03  0.15532243972E+03 -0.21065330487E+02  0.40596497069E+03  0.00000000000E+00 0. -1.
         22    1    1    2    0    0  0.41076913757E+03 -0.15068416292E+03 -0.45893645325E+03  0.63408175298E+03  0.00000000000E+00 0. -1.
<mgrwt>
<rscale>  0 0.97853079E+03</rscale>
<asrwt>0</asrwt>
<pdfrwt beam="1">  1        1 0.11861667E+00 0.97853079E+03</pdfrwt>
<pdfrwt beam="2">  1       -1 0.47765746E-01 0.97853079E+03</pdfrwt>
<totfact> 0.10300841E+02</totfact>
</mgrwt>
</event>
<event>
 6    1  0.1817112E-005  0.2811221E+04  0.7818608E-02  0.8299793E-01
         -2   -1    0    0    0  501 -0.00000000000E+00  0.00000000000E+00  0.11380957842E+04  0.11380957842E+04  0.00000000000E+00 0.  1.
          2   -1    0    0  501    0  0.00000000000E+00 -0.00000000000E+00 -0.17360055497E+04  0.17360055497E+04  0.00000000000E+00 0. -1.
         23    2    1    2    0    0 -0.11470556915E+04  0.73958589589E+03 -0.63658151471E+03  0.15087370744E+04  0.91255016265E+02 0.  0.
         13    1    3    3    0    0 -0.44115406104E+03  0.26431884964E+03 -0.19502174019E+03  0.55001348983E+03  0.00000000000E+00 0.  1.
        -13    1    3    3    0    0 -0.70590163047E+03  0.47526704625E+03 -0.44155977452E+03  0.95872358458E+03  0.00000000000E+00 0. -1.
         22    1    1    2    0    0  0.11470556915E+04 -0.73958589589E+03  0.38671749143E+02  0.13653642595E+04  0.00000000000E+00 0. -1.
<mgrwt>
<rscale>  0 0.28112208E+04</rscale>
<asrwt>0</asrwt>
<pdfrwt beam="1">  1        2 0.26707778E+00 0.28112208E+04</pdfrwt>
<pdfrwt beam="2">  1       -2 0.17509166E+00 0.28112208E+04</pdfrwt>
<totfact> 0.15974841E+00</totfact>
</mgrwt>
</event>
<event>
 6    1  0.1817112E-005  0.7617506E+03  0.7818608E-02  0.9617094E-01
          2   -1    0    0  501    0  0.00000000000E+00  0.00000000000E+00  0.11237636993E+04  0.11237636993E+04  0.00000000000E+00 0. -1.
         -2   -1    0    0    0  501 -0.00000000000E+00 -0.00000000000E+00 -0.12908941519E+03  0.12908941519E+03  0.00000000000E+00 0.  1.
         23    2    1    2    0    0 -0.12896865157E+03 -0.33381533634E+03  0.69189207709E+03  0.78408594759E+03  0.89501592135E+02 0.  0.
         13    1    3    3    0    0 -0.30605108712E+02 -0.16492805388E+03  0.38881314746E+03  0.42345436504E+03  0.00000000000E+00 0. -1.
        -13    1    3    3    0    0 -0.98363542862E+02 -0.16888728246E+03  0.30307892963E+03  0.36063158255E+03  0.00000000000E+00 0.  1.
         22    1    1    2    0    0  0.12896865157E+03  0.33381533634E+03  0.30278220700E+03  0.46876716688E+03  0.00000000000E+00 0.  1.
<mgrwt>
<rscale>  0 0.76175061E+03</rscale>
<asrwt>0</asrwt>
<pdfrwt beam="1">  1        2 0.17288672E+00 0.76175061E+03</pdfrwt>
<pdfrwt beam="2">  1       -2 0.19859911E-01 0.76175061E+03</pdfrwt>
<totfact> 0.45811213E+02</totfact>
</mgrwt>
</event>
<event>
 6    1  0.1817112E-005  0.8959175E+03  0.7818608E-02  0.9430699E-01
          2   -1    0    0  501    0  0.00000000000E+00  0.00000000000E+00  0.23482383785E+03  0.23482383785E+03  0.00000000000E+00 0. -1.
         -2   -1    0    0    0  501 -0.00000000000E+00 -0.00000000000E+00 -0.85454291262E+03  0.85454291262E+03  0.00000000000E+00 0.  1.
         23    2    1    2    0    0  0.36197421423E+03 -0.14793863573E+03 -0.62631315228E+02  0.40873620198E+03  0.10115052868E+03 0.  0.
         11    1    3    3    0    0  0.26612725721E+03 -0.10902360578E+03 -0.90688455092E+02  0.30155307913E+03  0.00000000000E+00 0.  1.
        -11    1    3    3    0    0  0.95846957027E+02 -0.38915029951E+02  0.28057139864E+02  0.10718312285E+03  0.00000000000E+00 0. -1.
         22    1    1    2    0    0 -0.36197421423E+03  0.14793863573E+03 -0.55708775953E+03  0.68063054849E+03  0.00000000000E+00 0. -1.
<mgrwt>
<rscale>  0 0.89591751E+03</rscale>
<asrwt>0</asrwt>
<pdfrwt beam="1">  1        2 0.36126744E-01 0.89591751E+03</pdfrwt>
<pdfrwt beam="2">  1       -2 0.13146814E+00 0.89591751E+03</pdfrwt>
<totfact> 0.61113343E+01</totfact>
</mgrwt>
</event>
<event>
 6    1  0.1817112E-005  0.2397932E+04  0.7818608E-02  0.8440278E-01
         -2   -1    0    0    0  501 -0.00000000000E+00  0.00000000000E+00  0.11657249674E+04  0.11657249674E+04  0.00000000000E+00 0.  1.
          2   -1    0    0  501    0  0.00000000000E+00 -0.00000000000E+00 -0.12331544898E+04  0.12331544898E+04  0.00000000000E+00 0. -1.
         23    2    1    2    0    0  0.14167808526E+03 -0.23265948586E+03 -0.12000625285E+04  0.12339499991E+04  0.90991273336E+02 0.  0.
         11    1    3    3    0    0  0.13204674004E+03 -0.15418090505E+03 -0.74957373794E+03  0.77657509724E+03  0.00000000000E+00 0. -1.
        -11    1    3    3    0    0  0.96313452176E+01 -0.78478580804E+02 -0.45048879051E+03  0.45737490183E+03  0.00000000000E+00 0.  1.
         22    1    1    2    0    0 -0.14167808526E+03  0.23265948586E+03  0.11326330060E+04  0.11649294582E+04  0.00000000000E+00 0.  1.
<mgrwt>
<rscale>  0 0.23979316E+04</rscale>
<asrwt>0</asrwt>
<pdfrwt beam="1">  1        2 0.18971608E+00 0.23979316E+04</pdfrwt>
<pdfrwt beam="2">  1       -2 0.17934230E+00 0.23979316E+04</pdfrwt>
<totfact> 0.29827502E+00</totfact>
</mgrwt>
</event>
<event>
 6    1  0.1817112E-005  0.3436280E+04  0.7818608E-02  0.8129059E-01
         -2   -1    0    0    0  501 -0.00000000000E+00  0.00000000000E+00  0.10084357734E+04  0.10084357734E+04  0.00000000000E+00 0.  1.
          2   -1    0    0  501    0  0.00000000000E+00 -0.00000000000E+00 -0.29273117512E+04  0.29273117512E+04  0.00000000000E+00 0. -1.
         23    2    1    2    0    0  0.57951698919E+03  0.16143285685E+04 -0.87099913218E+03  0.19257866913E+04  0.90101189134E+02 0.  0.
         13    1    3    3    0    0  0.33048218514E+03  0.83726723380E+03 -0.41746346281E+03  0.99222509456E+03  0.00000000000E+00 0. -1.
        -13    1    3    3    0    0  0.24903480405E+03  0.77706133467E+03 -0.45353566937E+03  0.93356159671E+03  0.00000000000E+00 0.  1.
         22    1    1    2    0    0 -0.57951698919E+03 -0.16143285685E+04 -0.10478768456E+04  0.20099608333E+04  0.00000000000E+00 0. -1.
<mgrwt>
<rscale>  0 0.34362805E+04</rscale>
<asrwt>0</asrwt>
<pdfrwt beam="1">  1        2 0.45035566E+00 0.34362805E+04</pdfrwt>
<pdfrwt beam="2">  1       -2 0.15514396E+00 0.34362805E+04</pdfrwt>
<totfact> 0.43685476E-01</totfact>
</mgrwt>
</event>
<event>
 6    1  0.1817112E-005  0.3213477E+04  0.7818608E-02  0.8185267E-01
          1   -1    0    0  501    0  0.00000000000E+00  0.00000000000E+00  0.21763758332E+04  0.21763758332E+04  0.00000000000E+00 0. -1.
         -1   -1    0    0    0  501 -0.00000000000E+00 -0.00000000000E+00 -0.11861964271E+04  0.11861964271E+04  0.00000000000E+00 0.  1.
         23    2    1    2    0    0  0.45981090989E+03 -0.29802338070E+03  0.20745513649E+04  0.21476210048E+04  0.90931876662E+02 0.  0.
         13    1    3    3    0    0  0.18227501748E+03 -0.16850553974E+03  0.86699286731E+03  0.90182865939E+03  0.00000000000E+00 0. -1.
        -13    1    3    3    0    0  0.27753589241E+03 -0.12951784096E+03  0.12075584976E+04  0.12457923454E+04  0.00000000000E+00 0.  1.
         22    1    1    2    0    0 -0.45981090989E+03  0.29802338070E+03 -0.10843719589E+04  0.12149512556E+04  0.00000000000E+00 0.  1.
<mgrwt>
<rscale>  0 0.32134774E+04</rscale>
<asrwt>0</asrwt>
<pdfrwt beam="1">  1        1 0.33482705E+00 0.32134774E+04</pdfrwt>
<pdfrwt beam="2">  1       -1 0.18249176E+00 0.32134774E+04</pdfrwt>
<totfact> 0.37734082E-01</totfact>
</mgrwt>
</event>
<event>
 6    1  0.1817112E-005  0.1060417E+04  0.7818608E-02  0.9244655E-01
         -2   -1    0    0    0  501 -0.00000000000E+00  0.00000000000E+00  0.14688766399E+03  0.14688766399E+03  0.00000000000E+00 0.  1.
          2   -1    0    0  501    0  0.00000000000E+00 -0.00000000000E+00 -0.19138513904E+04  0.19138513904E+04  0.00000000000E+00 0. -1.
         23    2    1    2    0    0 -0.16244618409E+03 -0.33069845956E+03 -0.16198340542E+04  0.16640056750E+04  0.96448377290E+02 0.  0.
         11    1    3    3    0    0 -0.61904373615E+02 -0.71643198533E+02 -0.27743055921E+03  0.29314265222E+03  0.00000000000E+00 0.  1.
        -11    1    3    3    0    0 -0.10054181047E+03 -0.25905526103E+03 -0.13424034950E+04  0.13708630228E+04  0.00000000000E+00 0. -1.
         22    1    1    2    0    0  0.16244618409E+03  0.33069845956E+03 -0.14712967228E+03  0.39673337942E+03  0.00000000000E+00 0.  1.
<mgrwt>
<rscale>  0 0.10604172E+04</rscale>
<asrwt>0</asrwt>
<pdfrwt beam="1">  1        2 0.29443866E+00 0.10604172E+04</pdfrwt>
<pdfrwt beam="2">  1       -2 0.22598104E-01 0.10604172E+04</pdfrwt>
<totfact> 0.12799787E+02</totfact>
</mgrwt>
</event>
<event>
 6    1  0.1817112E-005  0.1864760E+04  0.7818608E-02  0.8672599E-01
          2   -1    0    0  501    0  0.00000000000E+00  0.00000000000E+00  0.39751941917E+04  0.39751941917E+04  0.00000000000E+00 0.  1.
         -2   -1    0    0    0  501 -0.00000000000E+00 -0.00000000000E+00 -0.21868937355E+03  0.21868937355E+03  0.00000000000E+00 0. -1.
         23    2    1    2    0    0  0.69474754626E+03  0.40668396081E+03  0.29310787651E+04  0.30408899980E+04  0.87882056670E+02 0.  0.
         13    1    3    3    0    0  0.64025318760E+03  0.34423735572E+03  0.26311072363E+04  0.27296792467E+04  0.00000000000E+00 0.  1.
        -13    1    3    3    0    0  0.54494358667E+02  0.62446605091E+02  0.29997152883E+03  0.31121075130E+03  0.00000000000E+00 0. -1.
         22    1    1    2    0    0 -0.69474754626E+03 -0.40668396081E+03  0.82542605306E+03  0.11529935672E+04  0.00000000000E+00 0. -1.
<mgrwt>
<rscale>  0 0.18647603E+04</rscale>
<asrwt>0</asrwt>
<pdfrwt beam="1">  1        2 0.61156828E+00 0.18647603E+04</pdfrwt>
<pdfrwt beam="2">  1       -2 0.33644522E-01 0.18647603E+04</pdfrwt>
<totfact> 0.28155239E+00</totfact>
</mgrwt>
</event>
<event>
 6    1  0.1817112E-005  0.1927430E+04  0.7818608E-02  0.8641322E-01
          1   -1    0    0  501    0  0.00000000000E+00  0.00000000000E+00  0.13360214277E+04  0.13360214277E+04  0.00000000000E+00 0. -1.
         -1   -1    0    0    0  501 -0.00000000000E+00 -0.00000000000E+00 -0.69515875700E+03  0.69515875700E+03  0.00000000000E+00 0.  1.
         23    2    1    2    0    0 -0.76029638991E+03 -0.39654362335E+03  0.78007929183E+03  0.11624577243E+04  0.86526374176E+02 0.  0.
         13    1    3    3    0    0 -0.66599753904E+03 -0.32309654704E+03  0.69832882666E+03  0.10176479012E+04  0.00000000000E+00 0. -1.
        -13    1    3    3    0    0 -0.94298850868E+02 -0.73447076308E+02  0.81750465168E+02  0.14480982304E+03  0.00000000000E+00 0.  1.
         22    1    1    2    0    0  0.76029638991E+03  0.39654362335E+03 -0.13921662110E+03  0.86872246047E+03  0.00000000000E+00 0. -1.
<mgrwt>
<rscale>  0 0.19274304E+04</rscale>
<asrwt>0</asrwt>
<pdfrwt beam="1">  1        1 0.20554176E+00 0.19274304E+04</pdfrwt>
<pdfrwt beam="2">  1       -1 0.10694750E+00 0.19274304E+04</pdfrwt>
<totfact> 0.64906247E+00</totfact>
</mgrwt>
</event>
<event>
 6    1  0.1817112E-005  0.2811318E+04  0.7818608E-02  0.8299763E-01
         -2   -1    0    0    0  501 -0.00000000000E+00  0.00000000000E+00  0.17532957692E+04  0.17532957692E+04  0.00000000000E+00 0.  1.
          2   -1    0    0  501    0  0.00000000000E+00 -0.00000000000E+00 -0.11269500971E+04  0.11269500971E+04  0.00000000000E+00 0. -1.
         23    2    1    2    0    0  0.13705592470E+04  0.48112738641E+02  0.62250241613E+03  0.15088370082E+04  0.91281838476E+02 0.  0.
         11    1    3    3    0    0  0.38618002809E+03 -0.22128061828E+02  0.15312871007E+03  0.41602051279E+03  0.00000000000E+00 0.  1.
        -11    1    3    3    0    0  0.98437921896E+03  0.70240800470E+02  0.46937370605E+03  0.10928164954E+04  0.00000000000E+00 0. -1.
         22    1    1    2    0    0 -0.13705592470E+04 -0.48112738641E+02  0.38432559140E+01  0.13714088580E+04  0.00000000000E+00 0. -1.
<mgrwt>
<rscale>  0 0.28113177E+04</rscale>
<asrwt>0</asrwt>
<pdfrwt beam="1">  1        2 0.17337694E+00 0.28113177E+04</pdfrwt>
<pdfrwt beam="2">  1       -2 0.26973781E+00 0.28113177E+04</pdfrwt>
<totfact> 0.88681730E-01</totfact>
</mgrwt>
</event>
<event>
 6    1  0.1817112E-005  0.4636712E+03  0.7818608E-02  0.1023722E+00
         -2   -1    0    0    0  501 -0.00000000000E+00  0.00000000000E+00  0.11211661672E+03  0.11211661672E+03  0.00000000000E+00 0.  1.
          2   -1    0    0  501    0  0.00000000000E+00 -0.00000000000E+00 -0.47939137729E+03  0.47939137729E+03  0.00000000000E+00 0. -1.
         23    2    1    2    0    0 -0.19401980497E+03 -0.95047843618E+02 -0.25891054141E+03  0.34980449530E+03  0.93009349983E+02 0.  0.
         11    1    3    3    0    0 -0.20045182974E+03 -0.10182390955E+03 -0.24091698390E+03  0.32953002554E+03  0.00000000000E+00 0. -1.
        -11    1    3    3    0    0  0.64320247705E+01  0.67760659356E+01 -0.17993557508E+02  0.20274469759E+02  0.00000000000E+00 0.  1.
         22    1    1    2    0    0  0.19401980497E+03  0.95047843618E+02 -0.10836421916E+03  0.24170349871E+03  0.00000000000E+00 0. -1.
<mgrwt>
<rscale>  0 0.46367117E+03</rscale>
<asrwt>0</asrwt>
<pdfrwt beam="1">  1        2 0.73752521E-01 0.46367117E+03</pdfrwt>
<pdfrwt beam="2">  1       -2 0.17248710E-01 0.46367117E+03</pdfrwt>
<totfact> 0.17777904E+03</totfact>
</mgrwt>
</event>
<event>
 6    1  0.1817112E-005  0.3523751E+04  0.7818608E-02  0.8108184E-01
         -2   -1    0    0    0  501 -0.00000000000E+00  0.00000000000E+00  0.14627308823E+04  0.14627308823E+04  0.00000000000E+00 0.  1.
          2   -1    0    0  501    0  0.00000000000E+00 -0.00000000000E+00 -0.21221990749E+04  0.21221990749E+04  0.00000000000E+00 0. -1.
         23    2    1    2    0    0  0.11339504281E+04  0.23818133806E+03 -0.16786759708E+04  0.20417648920E+04  0.90977668228E+02 0.  0.
         11    1    3    3    0    0  0.90275231800E+02  0.40421372028E+02 -0.11943590155E+03  0.15507559244E+03  0.00000000000E+00 0. -1.
        -11    1    3    3    0    0  0.10436751963E+04  0.19775996603E+03 -0.15592400693E+04  0.18866892996E+04  0.00000000000E+00 0.  1.
         22    1    1    2    0    0 -0.11339504281E+04 -0.23818133806E+03  0.10192077782E+04  0.15431650651E+04  0.00000000000E+00 0.  1.
<mgrwt>
<rscale>  0 0.35237515E+04</rscale>
<asrwt>0</asrwt>
<pdfrwt beam="1">  1        2 0.32649216E+00 0.35237515E+04</pdfrwt>
<pdfrwt beam="2">  1       -2 0.22503552E+00 0.35237515E+04</pdfrwt>
<totfact> 0.43019132E-01</totfact>
</mgrwt>
</event>
<event>
 6    1  0.1817112E-005  0.1460488E+04  0.7818608E-02  0.8911162E-01
          2   -1    0    0  501    0  0.00000000000E+00  0.00000000000E+00  0.95836978996E+03  0.95836978996E+03  0.00000000000E+00 0. -1.
         -2   -1    0    0    0  501 -0.00000000000E+00 -0.00000000000E+00 -0.55641994865E+03  0.55641994865E+03  0.00000000000E+00 0.  1.
         23    2    1    2    0    0 -0.44887941064E+03 -0.44058848416E+03 -0.17743449922E+03  0.65963060037E+03  0.89546578720E+02 0.  0.
         13    1    3    3    0    0 -0.14664352351E+02 -0.45313761347E+01 -0.18544224040E+02  0.24072076038E+02  0.00000000000E+00 0. -1.
        -13    1    3    3    0    0 -0.43421505829E+03 -0.43605710802E+03 -0.15889027518E+03  0.63555852433E+03  0.00000000000E+00 0.  1.
         22    1    1    2    0    0  0.44887941064E+03  0.44058848416E+03  0.57938434053E+03  0.85515913824E+03  0.00000000000E+00 0. -1.
<mgrwt>
<rscale>  0 0.14604877E+04</rscale>
<asrwt>0</asrwt>
<pdfrwt beam="1">  1        2 0.14744151E+00 0.14604877E+04</pdfrwt>
<pdfrwt beam="2">  1       -2 0.85603069E-01 0.14604877E+04</pdfrwt>
<totfact> 0.30808169E+01</totfact>
</mgrwt>
</event>
<event>
 6    1  0.1817112E-005  0.1015537E+04  0.7818608E-02  0.9291667E-01
         -2   -1    0    0    0  501 -0.00000000000E+00  0.00000000000E+00  0.17719628450E+03  0.17719628450E+03  0.00000000000E+00 0.  1.
          2   -1    0    0  501    0  0.00000000000E+00 -0.00000000000E+00 -0.14550460128E+04  0.14550460128E+04  0.00000000000E+00 0. -1.
         23    2    1    2    0    0  0.34904194685E+02 -0.42877388389E+03 -0.10649533878E+04  0.11522525077E+04  0.92167114356E+02 0.  0.
         11    1    3    3    0    0  0.53736460016E+02 -0.17527496651E+03 -0.38749913029E+03  0.42867761429E+03  0.00000000000E+00 0. -1.
        -11    1    3    3    0    0 -0.18832265330E+02 -0.25349891738E+03 -0.67745425753E+03  0.72357489341E+03  0.00000000000E+00 0.  1.
         22    1    1    2    0    0 -0.34904194685E+02  0.42877388389E+03 -0.21289634047E+03  0.47998978958E+03  0.00000000000E+00 0.  1.
<mgrwt>
<rscale>  0 0.10155368E+04</rscale>
<asrwt>0</asrwt>
<pdfrwt beam="1">  1        2 0.22385324E+00 0.10155368E+04</pdfrwt>
<pdfrwt beam="2">  1       -2 0.27260966E-01 0.10155368E+04</pdfrwt>
<totfact> 0.16428220E+02</totfact>
</mgrwt>
</event>
<event>
 6    1  0.1817112E-005  0.1920997E+04  0.7818608E-02  0.8644475E-01
         -2   -1    0    0    0  501 -0.00000000000E+00  0.00000000000E+00  0.73114180669E+03  0.73114180669E+03  0.00000000000E+00 0.  1.
          2   -1    0    0  501    0  0.00000000000E+00 -0.00000000000E+00 -0.12618042299E+04  0.12618042299E+04  0.00000000000E+00 0. -1.
         23    2    1    2    0    0 -0.17983386090E+03  0.48568180863E+03 -0.11015538783E+04  0.12221386092E+04  0.10942941377E+03 0.  0.
         13    1    3    3    0    0  0.27103167633E+01  0.99971963366E+02 -0.26016158355E+03  0.27872170499E+03  0.00000000000E+00 0. -1.
        -13    1    3    3    0    0 -0.18254417766E+03  0.38570984526E+03 -0.84139229472E+03  0.94341690421E+03  0.00000000000E+00 0.  1.
         22    1    1    2    0    0  0.17983386090E+03 -0.48568180863E+03  0.57089145503E+03  0.77080742743E+03  0.00000000000E+00 0.  1.
<mgrwt>
<rscale>  0 0.19209975E+04</rscale>
<asrwt>0</asrwt>
<pdfrwt beam="1">  1        2 0.19412373E+00 0.19209975E+04</pdfrwt>
<pdfrwt beam="2">  1       -2 0.11248335E+00 0.19209975E+04</pdfrwt>
<totfact> 0.10130292E+01</totfact>
</mgrwt>
</event>
<event>
 6    1  0.1817112E-005  0.3149222E+04  0.7818608E-02  0.8202358E-01
          2   -1    0    0  501    0  0.00000000000E+00  0.00000000000E+00  0.16420891014E+04  0.16420891014E+04  0.00000000000E+00 0. -1.
         -2   -1    0    0    0  501 -0.00000000000E+00 -0.00000000000E+00 -0.15099053681E+04  0.15099053681E+04  0.00000000000E+00 0.  1.
         23    2    1    2    0    0  0.34020854057E+03  0.83216917073E+03  0.13583930687E+04  0.16315219397E+04  0.91568176909E+02 0.  0.
         13    1    3    3    0    0  0.15017975616E+03  0.35825180793E+03  0.66953195419E+03  0.77406159621E+03  0.00000000000E+00 0. -1.
        -13    1    3    3    0    0  0.19002878441E+03  0.47391736280E+03  0.68886111446E+03  0.85746034351E+03  0.00000000000E+00 0.  1.
         22    1    1    2    0    0 -0.34020854057E+03 -0.83216917073E+03 -0.12262093354E+04  0.15204725298E+04  0.00000000000E+00 0.  1.
<mgrwt>
<rscale>  0 0.31492216E+04</rscale>
<asrwt>0</asrwt>
<pdfrwt beam="1">  1        2 0.25262909E+00 0.31492216E+04</pdfrwt>
<pdfrwt beam="2">  1       -2 0.23229313E+00 0.31492216E+04</pdfrwt>
<totfact> 0.73895749E-01</totfact>
</mgrwt>
</event>
<event>
 6    1  0.1817112E-005  0.1970493E+04  0.7818608E-02  0.8620542E-01
          2   -1    0    0  501    0  0.00000000000E+00  0.00000000000E+00  0.17109092763E+04  0.17109092763E+04  0.00000000000E+00 0. -1.
         -2   -1    0    0    0  501 -0.00000000000E+00 -0.00000000000E+00 -0.56736560390E+03  0.56736560390E+03  0.00000000000E+00 0.  1.
         23    2    1    2    0    0 -0.84972282178E+03  0.43610342474E+03  0.30258190597E+03  0.10057059180E+04  0.87598589152E+02 0.  0.
         13    1    3    3    0    0 -0.55885679577E+03  0.26564183498E+03  0.23477040633E+03  0.66181843911E+03  0.00000000000E+00 0.  1.
        -13    1    3    3    0    0 -0.29086602601E+03  0.17046158976E+03  0.67811499646E+02  0.34388747892E+03  0.00000000000E+00 0. -1.
         22    1    1    2    0    0  0.84972282178E+03 -0.43610342474E+03  0.84096176648E+03  0.12725689622E+04  0.00000000000E+00 0. -1.
<mgrwt>
<rscale>  0 0.19704934E+04</rscale>
<asrwt>0</asrwt>
<pdfrwt beam="1">  1        2 0.26321681E+00 0.19704934E+04</pdfrwt>
<pdfrwt beam="2">  1       -2 0.87287017E-01 0.19704934E+04</pdfrwt>
<totfact> 0.10212155E+01</totfact>
</mgrwt>
</event>
<event>
 6    1  0.1817112E-005  0.2265111E+04  0.7818608E-02  0.8491806E-01
          2   -1    0    0  501    0  0.00000000000E+00  0.00000000000E+00  0.18271283613E+04  0.18271283613E+04  0.00000000000E+00 0. -1.
         -2   -1    0    0    0  501 -0.00000000000E+00 -0.00000000000E+00 -0.70202053605E+03  0.70202053605E+03  0.00000000000E+00 0.  1.
         23    2    1    2    0    0 -0.12614737377E+03  0.41563269867E+03 -0.60215396959E+03  0.74811071471E+03  0.91741693087E+02 0.  0.
         11    1    3    3    0    0 -0.71577276788E+02  0.28610930003E+03 -0.47192365576E+03  0.55650137015E+03  0.00000000000E+00 0.  1.
        -11    1    3    3    0    0 -0.54570096980E+02  0.12952339864E+03 -0.13023031384E+03  0.19160934456E+03  0.00000000000E+00 0. -1.
         22    1    1    2    0    0  0.12614737377E+03 -0.41563269867E+03  0.17272617948E+04  0.17810381826E+04  0.00000000000E+00 0. -1.
<mgrwt>
<rscale>  0 0.22651107E+04</rscale>
<asrwt>0</asrwt>
<pdfrwt beam="1">  1        2 0.28109667E+00 0.22651107E+04</pdfrwt>
<pdfrwt beam="2">  1       -2 0.10800316E+00 0.22651107E+04</pdfrwt>
<totfact> 0.52046024E+00</totfact>
</mgrwt>
</event>
<event>
 6    1  0.1817112E-005  0.8606947E+03  0.7818608E-02  0.9476094E-01
          2   -1    0    0  501    0  0.00000000000E+00  0.00000000000E+00  0.12703777225E+04  0.12703777225E+04  0.00000000000E+00 0. -1.
         -2   -1    0    0    0  501 -0.00000000000E+00 -0.00000000000E+00 -0.14578249102E+03  0.14578249102E+03  0.00000000000E+00 0.  1.
         23    2    1    2    0    0  0.36119578653E+03  0.21846573702E+03  0.48117389088E+03  0.64662743581E+03  0.91700888856E+02 0.  0.
         11    1    3    3    0    0  0.46457002570E+02  0.62294495615E+02  0.11817558935E+03  0.14143665434E+03  0.00000000000E+00 0.  1.
        -11    1    3    3    0    0  0.31473878396E+03  0.15617124140E+03  0.36299830153E+03  0.50519078147E+03  0.00000000000E+00 0. -1.
         22    1    1    2    0    0 -0.36119578653E+03 -0.21846573702E+03  0.64342134063E+03  0.76953277775E+03  0.00000000000E+00 0.  1.
<mgrwt>
<rscale>  0 0.86069467E+03</rscale>
<asrwt>0</asrwt>
<pdfrwt beam="1">  1        2 0.19544272E+00 0.86069467E+03</pdfrwt>
<pdfrwt beam="2">  1       -2 0.22428076E-01 0.86069467E+03</pdfrwt>
<totfact> 0.30097425E+02</totfact>
</mgrwt>
</event>
<event>
 6    1  0.1817112E-005  0.4777785E+04  0.7818608E-02  0.7863731E-01
         -2   -1    0    0    0  501 -0.00000000000E+00  0.00000000000E+00  0.19515026652E+04  0.19515026652E+04  0.00000000000E+00 0.  1.
          2   -1    0    0  501    0  0.00000000000E+00 -0.00000000000E+00 -0.29243145375E+04  0.29243145375E+04  0.00000000000E+00 0. -1.
         23    2    1    2    0    0  0.12589609208E+04  0.73559407012E+03  0.14433830134E+04  0.20537472245E+04  0.91879827314E+02 0.  0.
         11    1    3    3    0    0  0.35984190358E+03  0.19739074530E+03  0.46334941061E+03  0.61898463488E+03  0.00000000000E+00 0.  1.
        -11    1    3    3    0    0  0.89911901727E+03  0.53820332482E+03  0.98003360275E+03  0.14347625896E+04  0.00000000000E+00 0. -1.
         22    1    1    2    0    0 -0.12589609208E+04 -0.73559407012E+03 -0.24161948857E+04  0.28220699782E+04  0.00000000000E+00 0. -1.
<mgrwt>
<rscale>  0 0.47777851E+04</rscale>
<asrwt>0</asrwt>
<pdfrwt beam="1">  1        2 0.44989454E+00 0.47777851E+04</pdfrwt>
<pdfrwt beam="2">  1       -2 0.30023118E+00 0.47777851E+04</pdfrwt>
<totfact> 0.45541854E-02</totfact>
</mgrwt>
</event>
<event>
 6    1  0.1817112E-005  0.3066104E+04  0.7818608E-02  0.8225102E-01
         -1   -1    0    0    0  501 -0.00000000000E+00  0.00000000000E+00  0.60764750637E+03  0.60764750637E+03  0.00000000000E+00 0.  1.
          1   -1    0    0  501    0  0.00000000000E+00 -0.00000000000E+00 -0.38677823248E+04  0.38677823248E+04  0.00000000000E+00 0. -1.
         23    2    1    2    0    0  0.72666466363E+03  0.11508442505E+03  0.32934710268E+03  0.81132469890E+03  0.92153647460E+02 0.  0.
         11    1    3    3    0    0  0.33696124555E+03  0.93163490049E+02  0.18180777946E+03  0.39405124736E+03  0.00000000000E+00 0.  1.
        -11    1    3    3    0    0  0.38970341809E+03  0.21920934997E+02  0.14753932323E+03  0.41727345154E+03  0.00000000000E+00 0. -1.
         22    1    1    2    0    0 -0.72666466363E+03 -0.11508442505E+03 -0.35894819211E+04  0.36641051323E+04  0.00000000000E+00 0. -1.
<mgrwt>
<rscale>  0 0.30661039E+04</rscale>
<asrwt>0</asrwt>
<pdfrwt beam="1">  1        1 0.59504342E+00 0.30661039E+04</pdfrwt>
<pdfrwt beam="2">  1       -1 0.93484235E-01 0.30661039E+04</pdfrwt>
<totfact> 0.11721812E-01</totfact>
</mgrwt>
</event>
<event>
 6    1  0.1817112E-005  0.4905992E+04  0.7818608E-02  0.7843175E-01
         -2   -1    0    0    0  501 -0.00000000000E+00  0.00000000000E+00  0.13319089468E+04  0.13319089468E+04  0.00000000000E+00 0.  1.
          2   -1    0    0  501    0  0.00000000000E+00 -0.00000000000E+00 -0.45177177709E+04  0.45177177709E+04  0.00000000000E+00 0. -1.
         23    2    1    2    0    0  0.20315391402E+04  0.10915714091E+04 -0.60002437237E+03  0.23848091683E+04  0.92769080658E+02 0.  0.
         13    1    3    3    0    0  0.17637699459E+04  0.91174046518E+03 -0.52179769942E+03  0.20529071916E+04  0.00000000000E+00 0.  1.
        -13    1    3    3    0    0  0.26776919427E+03  0.17983094392E+03 -0.78226672948E+02  0.33190197672E+03  0.00000000000E+00 0. -1.
         22    1    1    2    0    0 -0.20315391402E+04 -0.10915714091E+04 -0.25857844517E+04  0.34648175493E+04  0.00000000000E+00 0. -1.
<mgrwt>
<rscale>  0 0.49059917E+04</rscale>
<asrwt>0</asrwt>
<pdfrwt beam="1">  1        2 0.69503350E+00 0.49059917E+04</pdfrwt>
<pdfrwt beam="2">  1       -2 0.20490907E+00 0.49059917E+04</pdfrwt>
<totfact> 0.10608316E-02</totfact>
</mgrwt>
</event>
<event>
 6    1  0.1817112E-005  0.3558660E+04  0.7818608E-02  0.8100027E-01
         -2   -1    0    0    0  501 -0.00000000000E+00  0.00000000000E+00  0.84701929627E+03  0.84701929627E+03  0.00000000000E+00 0.  1.
          2   -1    0    0  501    0  0.00000000000E+00 -0.00000000000E+00 -0.37378317016E+04  0.37378317016E+04  0.00000000000E+00 0. -1.
         23    2    1    2    0    0 -0.86110904042E+03 -0.14742710249E+04 -0.80624388400E+03  0.18903362448E+04  0.91422556316E+02 0.  0.
         11    1    3    3    0    0 -0.54116265066E+03 -0.94555292569E+03 -0.56153535903E+03  0.12256628040E+04  0.00000000000E+00 0. -1.
        -11    1    3    3    0    0 -0.31994638976E+03 -0.52871809917E+03 -0.24470852497E+03  0.66467344080E+03  0.00000000000E+00 0.  1.
         22    1    1    2    0    0  0.86110904042E+03  0.14742710249E+04 -0.20845685214E+04  0.26945147531E+04  0.00000000000E+00 0. -1.
<mgrwt>
<rscale>  0 0.35586602E+04</rscale>
<asrwt>0</asrwt>
<pdfrwt beam="1">  1        2 0.57505103E+00 0.35586602E+04</pdfrwt>
<pdfrwt beam="2">  1       -2 0.13031066E+00 0.35586602E+04</pdfrwt>
<totfact> 0.19272104E-01</totfact>
</mgrwt>
</event>
<event>
 6    1  0.1817112E-005  0.4967691E+04  0.7818608E-02  0.7833511E-01
         -2   -1    0    0    0  501 -0.00000000000E+00  0.00000000000E+00  0.17986019120E+04  0.17986019120E+04  0.00000000000E+00 0.  1.
          2   -1    0    0  501    0  0.00000000000E+00 -0.00000000000E+00 -0.34301575026E+04  0.34301575026E+04  0.00000000000E+00 0. -1.
         23    2    1    2    0    0  0.22742233552E+04  0.93259969867E+03 -0.44605698470E+03  0.24997960561E+04  0.90440152916E+02 0.  0.
         13    1    3    3    0    0  0.11377245845E+04  0.46387779070E+03 -0.26885355497E+03  0.12577289330E+04  0.00000000000E+00 0.  1.
        -13    1    3    3    0    0  0.11364987707E+04  0.46872190797E+03 -0.17720342973E+03  0.12420671231E+04  0.00000000000E+00 0. -1.
         22    1    1    2    0    0 -0.22742233552E+04 -0.93259969867E+03 -0.11854986058E+04  0.27289633585E+04  0.00000000000E+00 0. -1.
<mgrwt>
<rscale>  0 0.49676907E+04</rscale>
<asrwt>0</asrwt>
<pdfrwt beam="1">  1        2 0.52771653E+00 0.49676907E+04</pdfrwt>
<pdfrwt beam="2">  1       -2 0.27670799E+00 0.49676907E+04</pdfrwt>
<totfact> 0.29214438E-02</totfact>
</mgrwt>
</event>
<event>
 6    1  0.1817112E-005  0.9530497E+03  0.7818608E-02  0.9361593E-01
          2   -1    0    0  501    0  0.00000000000E+00  0.00000000000E+00  0.64387396732E+03  0.64387396732E+03  0.00000000000E+00 0. -1.
         -2   -1    0    0    0  501 -0.00000000000E+00 -0.00000000000E+00 -0.35267139361E+03  0.35267139361E+03  0.00000000000E+00 0.  1.
         23    2    1    2    0    0 -0.32662442149E+03 -0.23803993639E+03  0.40221807444E+03  0.57741415781E+03  0.91001133006E+02 0.  0.
         11    1    3    3    0    0 -0.19586485748E+03 -0.17021086267E+03  0.30717544107E+03  0.40210885561E+03  0.00000000000E+00 0.  1.
        -11    1    3    3    0    0 -0.13075956401E+03 -0.67829073726E+02  0.95042633367E+02  0.17530530220E+03  0.00000000000E+00 0. -1.
         22    1    1    2    0    0  0.32662442149E+03  0.23803993639E+03 -0.11101550072E+03  0.41913120312E+03  0.00000000000E+00 0.  1.
<mgrwt>
<rscale>  0 0.95304969E+03</rscale>
<asrwt>0</asrwt>
<pdfrwt beam="1">  1        2 0.99057533E-01 0.95304969E+03</pdfrwt>
<pdfrwt beam="2">  1       -2 0.54257138E-01 0.95304969E+03</pdfrwt>
<totfact> 0.14565373E+02</totfact>
</mgrwt>
</event>
<event>
 6    1  0.1817112E-005  0.1906474E+04  0.7818608E-02  0.8651641E-01
          2   -1    0    0  501    0  0.00000000000E+00  0.00000000000E+00  0.17486000094E+04  0.17486000094E+04  0.00000000000E+00 0.  1.
         -2   -1    0    0    0  501 -0.00000000000E+00 -0.00000000000E+00 -0.51965036038E+03  0.51965036038E+03  0.00000000000E+00 0. -1.
         23    2    1    2    0    0  0.49589310992E+03  0.74639449022E+03  0.23669828695E+03  0.93124719962E+03  0.90446427503E+02 0.  0.
         13    1    3    3    0    0  0.37248719669E+03  0.49139750315E+03  0.14438454151E+03  0.63329701849E+03  0.00000000000E+00 0.  1.
        -13    1    3    3    0    0  0.12340591323E+03  0.25499698707E+03  0.92313745447E+02  0.29795018113E+03  0.00000000000E+00 0. -1.
         22    1    1    2    0    0 -0.49589310992E+03 -0.74639449022E+03  0.99225136205E+03  0.13370031702E+04  0.00000000000E+00 0.  1.
<mgrwt>
<rscale>  0 0.19064738E+04</rscale>
<asrwt>0</asrwt>
<pdfrwt beam="1">  1        2 0.26901538E+00 0.19064738E+04</pdfrwt>
<pdfrwt beam="2">  1       -2 0.79946210E-01 0.19064738E+04</pdfrwt>
<totfact> 0.11940982E+01</totfact>
</mgrwt>
</event>
<event>
 6    1  0.1817112E-005  0.1766312E+04  0.7818608E-02  0.8724423E-01
          2   -1    0    0  501    0  0.00000000000E+00  0.00000000000E+00  0.87278355256E+03  0.87278355256E+03  0.00000000000E+00 0. -1.
         -2   -1    0    0    0  501 -0.00000000000E+00 -0.00000000000E+00 -0.89365124946E+03  0.89365124946E+03  0.00000000000E+00 0.  1.
         23    2    1    2    0    0 -0.15829068556E+03  0.79943573691E+03 -0.34420766047E+03  0.88967818206E+03  0.94312859790E+02 0.  0.
         13    1    3    3    0    0 -0.70237276579E+02  0.54241738835E+03 -0.20224403185E+03  0.58314024610E+03  0.00000000000E+00 0. -1.
        -13    1    3    3    0    0 -0.88053408981E+02  0.25701834856E+03 -0.14196362862E+03  0.30653793596E+03  0.00000000000E+00 0.  1.
         22    1    1    2    0    0  0.15829068556E+03 -0.79943573691E+03  0.32333996357E+03  0.87675661995E+03  0.00000000000E+00 0. -1.
<mgrwt>
<rscale>  0 0.17663115E+04</rscale>
<asrwt>0</asrwt>
<pdfrwt beam="1">  1        2 0.13427439E+00 0.17663115E+04</pdfrwt>
<pdfrwt beam="2">  1       -2 0.13748481E+00 0.17663115E+04</pdfrwt>
<totfact> 0.10903872E+01</totfact>
</mgrwt>
</event>
<event>
 6    1  0.1817112E-005  0.2969626E+04  0.7818608E-02  0.8252458E-01
          2   -1    0    0  501    0  0.00000000000E+00  0.00000000000E+00  0.22741026140E+04  0.22741026140E+04  0.00000000000E+00 0. -1.
         -2   -1    0    0    0  501 -0.00000000000E+00 -0.00000000000E+00 -0.96946768814E+03  0.96946768814E+03  0.00000000000E+00 0.  1.
         23    2    1    2    0    0 -0.80264371728E+03  0.51934680380E+03 -0.58655621704E+03  0.11244756892E+04  0.80245500990E+02 0.  0.
         13    1    3    3    0    0 -0.56344783722E+03  0.34120258196E+03 -0.44020141808E+03  0.79225624370E+03  0.00000000000E+00 0. -1.
        -13    1    3    3    0    0 -0.23919588006E+03  0.17814422184E+03 -0.14635479895E+03  0.33221944553E+03  0.00000000000E+00 0.  1.
         22    1    1    2    0    0  0.80264371728E+03 -0.51934680380E+03  0.18911911429E+04  0.21190946129E+04  0.00000000000E+00 0. -1.
<mgrwt>
<rscale>  0 0.29696256E+04</rscale>
<asrwt>0</asrwt>
<pdfrwt beam="1">  1        2 0.34986194E+00 0.29696256E+04</pdfrwt>
<pdfrwt beam="2">  1       -2 0.14914888E+00 0.29696256E+04</pdfrwt>
<totfact> 0.12240118E+00</totfact>
</mgrwt>
</event>
<event>
 6    1  0.1817112E-005  0.3374366E+04  0.7818608E-02  0.8144227E-01
          2   -1    0    0  501    0  0.00000000000E+00  0.00000000000E+00  0.14795943156E+04  0.14795943156E+04  0.00000000000E+00 0. -1.
         -2   -1    0    0    0  501 -0.00000000000E+00 -0.00000000000E+00 -0.19238963853E+04  0.19238963853E+04  0.00000000000E+00 0.  1.
         23    2    1    2    0    0  0.77294316495E+03  0.12071891046E+04 -0.11174728642E+04  0.18198538773E+04  0.91519735516E+02 0.  0.
         13    1    3    3    0    0  0.55093881165E+03  0.79233851098E+03 -0.72279671774E+03  0.12057234282E+04  0.00000000000E+00 0.  1.
        -13    1    3    3    0    0  0.22200435330E+03  0.41485059361E+03 -0.39467614646E+03  0.61413044908E+03  0.00000000000E+00 0. -1.
         22    1    1    2    0    0 -0.77294316495E+03 -0.12071891046E+04  0.67317079452E+03  0.15836368236E+04  0.00000000000E+00 0. -1.
<mgrwt>
<rscale>  0 0.33743658E+04</rscale>
<asrwt>0</asrwt>
<pdfrwt beam="1">  1        2 0.22762989E+00 0.33743658E+04</pdfrwt>
<pdfrwt beam="2">  1       -2 0.29598406E+00 0.33743658E+04</pdfrwt>
<totfact> 0.36395302E-01</totfact>
</mgrwt>
</event>
<event>
 6    1  0.1817112E-005  0.3155263E+04  0.7818608E-02  0.8200733E-01
         -2   -1    0    0    0  501 -0.00000000000E+00  0.00000000000E+00  0.69402611771E+03  0.69402611771E+03  0.00000000000E+00 0.  1.
          2   -1    0    0  501    0  0.00000000000E+00 -0.00000000000E+00 -0.35862063607E+04  0.35862063607E+04  0.00000000000E+00 0. -1.
         23    2    1    2    0    0 -0.15454445419E+04  0.29946953238E+03 -0.13335005651E+04  0.20649304287E+04  0.87367530475E+02 0.  0.
         13    1    3    3    0    0 -0.11276176564E+04  0.18893807569E+03 -0.10013578624E+04  0.15198476055E+04  0.00000000000E+00 0. -1.
        -13    1    3    3    0    0 -0.41782688550E+03  0.11053145668E+03 -0.33214270276E+03  0.54508282322E+03  0.00000000000E+00 0.  1.
         22    1    1    2    0    0  0.15454445419E+04 -0.29946953238E+03 -0.15586796779E+04  0.22153020497E+04  0.00000000000E+00 0.  1.
<mgrwt>
<rscale>  0 0.31552628E+04</rscale>
<asrwt>0</asrwt>
<pdfrwt beam="1">  1        2 0.55172406E+00 0.31552628E+04</pdfrwt>
<pdfrwt beam="2">  1       -2 0.10677325E+00 0.31552628E+04</pdfrwt>
<totfact> 0.42095184E-01</totfact>
</mgrwt>
</event>
<event>
 6    1  0.1817112E-005  0.3121649E+04  0.7818608E-02  0.8209822E-01
         -1   -1    0    0    0  501 -0.00000000000E+00  0.00000000000E+00  0.92321667004E+03  0.92321667004E+03  0.00000000000E+00 0.  1.
          1   -1    0    0  501    0  0.00000000000E+00 -0.00000000000E+00 -0.26387881182E+04  0.26387881182E+04  0.00000000000E+00 0. -1.
         23    2    1    2    0    0 -0.13309320199E+04  0.38586880685E+03 -0.42356486887E+02  0.13894663917E+04  0.92455416904E+02 0.  0.
         13    1    3    3    0    0 -0.74491974743E+03  0.19516579524E+03 -0.64909084155E+02  0.77279253810E+03  0.00000000000E+00 0.  1.
        -13    1    3    3    0    0 -0.58601227247E+03  0.19070301161E+03  0.22552597268E+02  0.61667385364E+03  0.00000000000E+00 0. -1.
         22    1    1    2    0    0  0.13309320199E+04 -0.38586880685E+03 -0.16732149613E+04  0.21725383965E+04  0.00000000000E+00 0. -1.
<mgrwt>
<rscale>  0 0.31216490E+04</rscale>
<asrwt>0</asrwt>
<pdfrwt beam="1">  1        1 0.40596739E+00 0.31216490E+04</pdfrwt>
<pdfrwt beam="2">  1       -1 0.14203334E+00 0.31216490E+04</pdfrwt>
<totfact> 0.36822655E-01</totfact>
</mgrwt>
</event>
<event>
 6    1  0.1817112E-005  0.3040118E+04  0.7818608E-02  0.8232367E-01
          2   -1    0    0  501    0  0.00000000000E+00  0.00000000000E+00  0.31976606309E+04  0.31976606309E+04  0.00000000000E+00 0. -1.
         -2   -1    0    0    0  501 -0.00000000000E+00 -0.00000000000E+00 -0.72258412644E+03  0.72258412644E+03  0.00000000000E+00 0.  1.
         23    2    1    2    0    0 -0.41124017925E+03  0.74808670961E+03 -0.38104327239E+03  0.93927639290E+03  0.91071162778E+02 0.  0.
         13    1    3    3    0    0 -0.16095380616E+03  0.31331158506E+03 -0.20538851798E+03  0.40774344920E+03  0.00000000000E+00 0. -1.
        -13    1    3    3    0    0 -0.25028637310E+03  0.43477512455E+03 -0.17565475441E+03  0.53153294369E+03  0.00000000000E+00 0.  1.
         22    1    1    2    0    0  0.41124017925E+03 -0.74808670961E+03  0.28561197769E+04  0.29809683645E+04  0.00000000000E+00 0. -1.
<mgrwt>
<rscale>  0 0.30401176E+04</rscale>
<asrwt>0</asrwt>
<pdfrwt beam="1">  1        2 0.49194778E+00 0.30401176E+04</pdfrwt>
<pdfrwt beam="2">  1       -2 0.11116679E+00 0.30401176E+04</pdfrwt>
<totfact> 0.71050062E-01</totfact>
</mgrwt>
</event>
<event>
 6    1  0.1817112E-005  0.3782048E+04  0.7818608E-02  0.8050018E-01
         -1   -1    0    0    0  501 -0.00000000000E+00  0.00000000000E+00  0.20903734041E+04  0.20903734041E+04  0.00000000000E+00 0.  1.
          1   -1    0    0  501    0  0.00000000000E+00 -0.00000000000E+00 -0.17106855639E+04  0.17106855639E+04  0.00000000000E+00 0. -1.
         23    2    1    2    0    0  0.87258707846E+03  0.16093917693E+04  0.66207118324E+03  0.19486846998E+04  0.86508560561E+02 0.  0.
         11    1    3    3    0    0  0.44962170625E+03  0.79377902638E+03  0.28753994030E+03  0.95651661706E+03  0.00000000000E+00 0. -1.
        -11    1    3    3    0    0  0.42296537221E+03  0.81561274295E+03  0.37453124294E+03  0.99216808278E+03  0.00000000000E+00 0.  1.
         22    1    1    2    0    0 -0.87258707846E+03 -0.16093917693E+04 -0.28238334307E+03  0.18523742681E+04  0.00000000000E+00 0. -1.
<mgrwt>
<rscale>  0 0.37820479E+04</rscale>
<asrwt>0</asrwt>
<pdfrwt beam="1">  1        1 0.26318239E+00 0.37820479E+04</pdfrwt>
<pdfrwt beam="2">  1       -1 0.32159591E+00 0.37820479E+04</pdfrwt>
<totfact> 0.89218888E-02</totfact>
</mgrwt>
</event>
<event>
 6    1  0.1817112E-005  0.3211415E+04  0.7818608E-02  0.8185809E-01
          2   -1    0    0  501    0  0.00000000000E+00  0.00000000000E+00  0.14369325809E+04  0.14369325809E+04  0.00000000000E+00 0. -1.
         -2   -1    0    0    0  501 -0.00000000000E+00 -0.00000000000E+00 -0.17943063980E+04  0.17943063980E+04  0.00000000000E+00 0.  1.
         23    2    1    2    0    0  0.11010088709E+04 -0.11502795317E+04  0.19159791847E+02  0.15950418350E+04  0.91803176565E+02 0.  0.
         11    1    3    3    0    0  0.75474904794E+03 -0.84856814094E+03  0.15375294386E+02  0.11357598403E+04  0.00000000000E+00 0. -1.
        -11    1    3    3    0    0  0.34625982293E+03 -0.30171139072E+03  0.37844974610E+01  0.45928199473E+03  0.00000000000E+00 0.  1.
         22    1    1    2    0    0 -0.11010088709E+04  0.11502795317E+04 -0.37653360894E+03  0.16361971438E+04  0.00000000000E+00 0.  1.
<mgrwt>
<rscale>  0 0.32114155E+04</rscale>
<asrwt>0</asrwt>
<pdfrwt beam="1">  1        2 0.22106655E+00 0.32114155E+04</pdfrwt>
<pdfrwt beam="2">  1       -2 0.27604714E+00 0.32114155E+04</pdfrwt>
<totfact> 0.51621525E-01</totfact>
</mgrwt>
</event>
<event>
 6    1  0.1817112E-005  0.3438158E+04  0.7818608E-02  0.8128604E-01
         -2   -1    0    0    0  501 -0.00000000000E+00  0.00000000000E+00  0.27361131627E+04  0.27361131627E+04  0.00000000000E+00 0.  1.
          2   -1    0    0  501    0  0.00000000000E+00 -0.00000000000E+00 -0.10800840900E+04  0.10800840900E+04  0.00000000000E+00 0. -1.
         23    2    1    2    0    0  0.12874619492E+04  0.11241395381E+04  0.63704804036E+03  0.18263303437E+04  0.91675225269E+02 0.  0.
         11    1    3    3    0    0  0.67932573454E+03  0.61238109796E+03  0.29451110531E+03  0.96084902763E+03  0.00000000000E+00 0.  1.
        -11    1    3    3    0    0  0.60813621464E+03  0.51175844010E+03  0.34253693504E+03  0.86548131605E+03  0.00000000000E+00 0. -1.
         22    1    1    2    0    0 -0.12874619492E+04 -0.11241395381E+04  0.10189810323E+04  0.19898669091E+04  0.00000000000E+00 0.  1.
<mgrwt>
<rscale>  0 0.34381578E+04</rscale>
<asrwt>0</asrwt>
<pdfrwt beam="1">  1        2 0.16616678E+00 0.34381578E+04</pdfrwt>
<pdfrwt beam="2">  1       -2 0.42094048E+00 0.34381578E+04</pdfrwt>
<totfact> 0.99952598E-02</totfact>
</mgrwt>
</event>
<event>
 6    1  0.1817112E-005  0.2633256E+04  0.7818608E-02  0.8356992E-01
          1   -1    0    0  501    0  0.00000000000E+00  0.00000000000E+00  0.25178654160E+04  0.25178654160E+04  0.00000000000E+00 0. -1.
         -1   -1    0    0    0  501 -0.00000000000E+00 -0.00000000000E+00 -0.68848382128E+03  0.68848382128E+03  0.00000000000E+00 0.  1.
         23    2    1    2    0    0  0.19965276196E+03  0.66168626840E+03 -0.44688363330E+03  0.82746854851E+03  0.85494291750E+02 0.  0.
         11    1    3    3    0    0  0.10227829156E+02  0.15427045644E+03 -0.10732618116E+03  0.18820970055E+03  0.00000000000E+00 0. -1.
        -11    1    3    3    0    0  0.18942493280E+03  0.50741581197E+03 -0.33955745213E+03  0.63925884796E+03  0.00000000000E+00 0.  1.
         22    1    1    2    0    0 -0.19965276196E+03 -0.66168626840E+03  0.22762652281E+04  0.23788806888E+04  0.00000000000E+00 0. -1.
<mgrwt>
<rscale>  0 0.26332562E+04</rscale>
<asrwt>0</asrwt>
<pdfrwt beam="1">  1        1 0.38736390E+00 0.26332562E+04</pdfrwt>
<pdfrwt beam="2">  1       -1 0.10592059E+00 0.26332562E+04</pdfrwt>
<totfact> 0.96408197E-01</totfact>
</mgrwt>
</event>
<event>
 6    1  0.1817112E-005  0.9180278E+03  0.7818608E-02  0.9403322E-01
         -2   -1    0    0    0  501 -0.00000000000E+00  0.00000000000E+00  0.88305658576E+02  0.88305658576E+02  0.00000000000E+00 0.  1.
          2   -1    0    0  501    0  0.00000000000E+00 -0.00000000000E+00 -0.23859599659E+04  0.23859599659E+04  0.00000000000E+00 0. -1.
         23    2    1    2    0    0  0.45059082055E+03 -0.56148045334E+02 -0.12145682275E+04  0.12998465566E+04  0.90776654696E+02 0.  0.
         11    1    3    3    0    0  0.16434660214E+03 -0.15873450683E+01 -0.33270002367E+03  0.37108170401E+03  0.00000000000E+00 0. -1.
        -11    1    3    3    0    0  0.28624421840E+03 -0.54560700266E+02 -0.88186820380E+03  0.92876485262E+03  0.00000000000E+00 0.  1.
         22    1    1    2    0    0 -0.45059082055E+03  0.56148045334E+02 -0.10830860799E+04  0.11744190679E+04  0.00000000000E+00 0. -1.
<mgrwt>
<rscale>  0 0.91802781E+03</rscale>
<asrwt>0</asrwt>
<pdfrwt beam="1">  1        2 0.36707085E+00 0.91802781E+03</pdfrwt>
<pdfrwt beam="2">  1       -2 0.13585483E-01 0.91802781E+03</pdfrwt>
<totfact> 0.17074090E+02</totfact>
</mgrwt>
</event>
<event>
 6    1  0.1879947E-005  0.3622002E+04  0.7818608E-02  0.8085470E-01
         -2   -1    0    0    0  501 -0.00000000000E+00  0.00000000000E+00  0.13389906547E+04  0.13389906547E+04  0.00000000000E+00 0.  1.
          2   -1    0    0  501    0  0.00000000000E+00 -0.00000000000E+00 -0.24494011623E+04  0.24494011623E+04  0.00000000000E+00 0. -1.
         23    2    1    2    0    0  0.67610851841E+02 -0.42061529845E+03  0.12844614861E+04  0.13559238680E+04  0.84851457735E+02 0.  0.
         13    1    3    3    0    0  0.74214486709E+02 -0.26441377634E+03  0.89732854577E+03  0.93841406331E+03  0.00000000000E+00 0.  1.
        -13    1    3    3    0    0 -0.66036348680E+01 -0.15620152211E+03  0.38713294035E+03  0.41750980469E+03  0.00000000000E+00 0. -1.
         22    1    1    2    0    0 -0.67610851841E+02  0.42061529845E+03 -0.23948719937E+04  0.24324679490E+04  0.00000000000E+00 0. -1.
<mgrwt>
<rscale>  0 0.36220024E+04</rscale>
<asrwt>0</asrwt>
<pdfrwt beam="1">  1        2 0.37683094E+00 0.36220024E+04</pdfrwt>
<pdfrwt beam="2">  1       -2 0.20599857E+00 0.36220024E+04</pdfrwt>
<totfact> 0.36816821E-01</totfact>
</mgrwt>
</event>
<event>
 6    1  0.1817112E-005  0.1569423E+04  0.7818608E-02  0.8839556E-01
         -2   -1    0    0    0  501 -0.00000000000E+00  0.00000000000E+00  0.51819499382E+03  0.51819499382E+03  0.00000000000E+00 0.  1.
          2   -1    0    0  501    0  0.00000000000E+00 -0.00000000000E+00 -0.11883026168E+04  0.11883026168E+04  0.00000000000E+00 0. -1.
         23    2    1    2    0    0 -0.22605962485E+03 -0.20210530766E+03  0.44817494875E+03  0.54783224926E+03  0.85497831976E+02 0.  0.
         11    1    3    3    0    0 -0.13985046413E+03 -0.72962343880E+02  0.19469720127E+03  0.25057664720E+03  0.00000000000E+00 0. -1.
        -11    1    3    3    0    0 -0.86209160713E+02 -0.12914296378E+03  0.25347774749E+03  0.29725560206E+03  0.00000000000E+00 0.  1.
         22    1    1    2    0    0  0.22605962485E+03  0.20210530766E+03 -0.11182825718E+04  0.11586653614E+04  0.00000000000E+00 0. -1.
<mgrwt>
<rscale>  0 0.15694234E+04</rscale>
<asrwt>0</asrwt>
<pdfrwt beam="1">  1        2 0.18281579E+00 0.15694234E+04</pdfrwt>
<pdfrwt beam="2">  1       -2 0.79722307E-01 0.15694234E+04</pdfrwt>
<totfact> 0.25779200E+01</totfact>
</mgrwt>
</event>
<event>
 6    1  0.1817112E-005  0.1021272E+04  0.7818608E-02  0.9285516E-01
         -2   -1    0    0    0  501 -0.00000000000E+00  0.00000000000E+00  0.28284664425E+03  0.28284664425E+03  0.00000000000E+00 0.  1.
          2   -1    0    0  501    0  0.00000000000E+00 -0.00000000000E+00 -0.92187541222E+03  0.92187541222E+03  0.00000000000E+00 0. -1.
         23    2    1    2    0    0  0.17995008410E+03 -0.95996751996E+02 -0.86906360454E+03  0.89729168191E+03  0.90903270156E+02 0.  0.
         11    1    3    3    0    0  0.58606893336E+02 -0.80965494016E+02 -0.34758017144E+03  0.36166580533E+03  0.00000000000E+00 0. -1.
        -11    1    3    3    0    0  0.12134319077E+03 -0.15031257980E+02 -0.52148343310E+03  0.53562587658E+03  0.00000000000E+00 0.  1.
         22    1    1    2    0    0 -0.17995008410E+03  0.95996751996E+02  0.23003483658E+03  0.30743037456E+03  0.00000000000E+00 0.  1.
<mgrwt>
<rscale>  0 0.10212725E+04</rscale>
<asrwt>0</asrwt>
<pdfrwt beam="1">  1        2 0.14182699E+00 0.10212725E+04</pdfrwt>
<pdfrwt beam="2">  1       -2 0.43514869E-01 0.10212725E+04</pdfrwt>
<totfact> 0.14147268E+02</totfact>
</mgrwt>
</event>
<event>
 6    1  0.1817112E-005  0.2476568E+04  0.7818608E-02  0.8411381E-01
         -2   -1    0    0    0  501 -0.00000000000E+00  0.00000000000E+00  0.12190874347E+04  0.12190874347E+04  0.00000000000E+00 0.  1.
          2   -1    0    0  501    0  0.00000000000E+00 -0.00000000000E+00 -0.12577831302E+04  0.12577831302E+04  0.00000000000E+00 0. -1.
         23    2    1    2    0    0  0.52389202899E+03 -0.62741589909E+03  0.90870810490E+03  0.12255962027E+04  0.90675596575E+02 0.  0.
         13    1    3    3    0    0  0.30662609754E+03 -0.35920760270E+03  0.59047299883E+03  0.75611376649E+03  0.00000000000E+00 0.  1.
        -13    1    3    3    0    0  0.21726593145E+03 -0.26820829638E+03  0.31823510608E+03  0.46948243626E+03  0.00000000000E+00 0. -1.
         22    1    1    2    0    0 -0.52389202899E+03  0.62741589909E+03 -0.94740380037E+03  0.12512743622E+04  0.00000000000E+00 0. -1.
<mgrwt>
<rscale>  0 0.24765683E+04</rscale>
<asrwt>0</asrwt>
<pdfrwt beam="1">  1        2 0.19350510E+00 0.24765683E+04</pdfrwt>
<pdfrwt beam="2">  1       -2 0.18755191E+00 0.24765683E+04</pdfrwt>
<totfact> 0.25180482E+00</totfact>
</mgrwt>
</event>
<event>
 6    1  0.1817112E-005  0.2274163E+04  0.7818608E-02  0.8488178E-01
          2   -1    0    0  501    0  0.00000000000E+00  0.00000000000E+00  0.11956865829E+04  0.11956865829E+04  0.00000000000E+00 0. -1.
         -2   -1    0    0    0  501 -0.00000000000E+00 -0.00000000000E+00 -0.10813489160E+04  0.10813489160E+04  0.00000000000E+00 0.  1.
         23    2    1    2    0    0 -0.44009124128E+02  0.10381697713E+04  0.51501527553E+03  0.11633587850E+04  0.91813133955E+02 0.  0.
         13    1    3    3    0    0 -0.48865952727E+00  0.68537445757E+03  0.30209202505E+03  0.74899798229E+03  0.00000000000E+00 0.  1.
        -13    1    3    3    0    0 -0.43520464600E+02  0.35279531372E+03  0.21292325047E+03  0.41436080270E+03  0.00000000000E+00 0. -1.
         22    1    1    2    0    0  0.44009124128E+02 -0.10381697713E+04 -0.40067760870E+03  0.11136767139E+04  0.00000000000E+00 0.  1.
<mgrwt>
<rscale>  0 0.22741630E+04</rscale>
<asrwt>0</asrwt>
<pdfrwt beam="1">  1        2 0.18395178E+00 0.22741630E+04</pdfrwt>
<pdfrwt beam="2">  1       -2 0.16636137E+00 0.22741630E+04</pdfrwt>
<totfact> 0.39180328E+00</totfact>
</mgrwt>
</event>
<event>
 6    1  0.1817112E-005  0.1641922E+04  0.7818608E-02  0.8795200E-01
         -2   -1    0    0    0  501 -0.00000000000E+00  0.00000000000E+00  0.35499676069E+03  0.35499676069E+03  0.00000000000E+00 0.  1.
          2   -1    0    0  501    0  0.00000000000E+00 -0.00000000000E+00 -0.18985428413E+04  0.18985428413E+04  0.00000000000E+00 0. -1.
         23    2    1    2    0    0 -0.46233704559E+03 -0.10625380746E+03 -0.16895268577E+04  0.17571971773E+04  0.90529009474E+02 0.  0.
         13    1    3    3    0    0 -0.17460967768E+03 -0.85652130177E+02 -0.68113249754E+03  0.70835464716E+03  0.00000000000E+00 0. -1.
        -13    1    3    3    0    0 -0.28772736791E+03 -0.20601677284E+02 -0.10083943602E+04  0.10488425301E+04  0.00000000000E+00 0.  1.
         22    1    1    2    0    0  0.46233704559E+03  0.10625380746E+03  0.14598077708E+03  0.49634242475E+03  0.00000000000E+00 0.  1.
<mgrwt>
<rscale>  0 0.16419215E+04</rscale>
<asrwt>0</asrwt>
<pdfrwt beam="1">  1        2 0.29208351E+00 0.16419215E+04</pdfrwt>
<pdfrwt beam="2">  1       -2 0.54614887E-01 0.16419215E+04</pdfrwt>
<totfact> 0.22941066E+01</totfact>
</mgrwt>
</event>
<event>
 6    1  0.1817112E-005  0.1655712E+04  0.7818608E-02  0.8787034E-01
          1   -1    0    0  501    0  0.00000000000E+00  0.00000000000E+00  0.96648633871E+03  0.96648633871E+03  0.00000000000E+00 0. -1.
         -1   -1    0    0    0  501 -0.00000000000E+00 -0.00000000000E+00 -0.70911074087E+03  0.70911074087E+03  0.00000000000E+00 0.  1.
         23    2    1    2    0    0  0.45722316301E+03 -0.55121091934E+03 -0.28622860814E+03  0.77649083938E+03  0.90137168407E+02 0.  0.
         13    1    3    3    0    0  0.33430278507E+03 -0.45971909189E+03 -0.23209772734E+03  0.61397829814E+03  0.00000000000E+00 0. -1.
        -13    1    3    3    0    0  0.12292037794E+03 -0.91491827450E+02 -0.54130880805E+02  0.16251254124E+03  0.00000000000E+00 0.  1.
         22    1    1    2    0    0 -0.45722316301E+03  0.55121091934E+03  0.54360420599E+03  0.89910624020E+03  0.00000000000E+00 0. -1.
<mgrwt>
<rscale>  0 0.16557123E+04</rscale>
<asrwt>0</asrwt>
<pdfrwt beam="1">  1        1 0.14869021E+00 0.16557123E+04</pdfrwt>
<pdfrwt beam="2">  1       -1 0.10909396E+00 0.16557123E+04</pdfrwt>
<totfact> 0.11955941E+01</totfact>
</mgrwt>
</event>
<event>
 6    1  0.1817112E-005  0.6630509E+04  0.7818608E-02  0.7616790E-01
         -2   -1    0    0    0  501 -0.00000000000E+00  0.00000000000E+00  0.33867342954E+04  0.33867342954E+04  0.00000000000E+00 0.  1.
          2   -1    0    0  501    0  0.00000000000E+00 -0.00000000000E+00 -0.32452829672E+04  0.32452829672E+04  0.00000000000E+00 0. -1.
         23    2    1    2    0    0 -0.19634654107E+04 -0.24651174326E+04  0.10979910803E+04  0.33385436142E+04  0.91042164223E+02 0.  0.
         13    1    3    3    0    0 -0.12453932679E+04 -0.15383769206E+04  0.73297985212E+03  0.21106556814E+04  0.00000000000E+00 0.  1.
        -13    1    3    3    0    0 -0.71807214280E+03 -0.92674051200E+03  0.36501122815E+03  0.12278879328E+04  0.00000000000E+00 0. -1.
         22    1    1    2    0    0  0.19634654107E+04  0.24651174326E+04 -0.95653975211E+03  0.32934736485E+04  0.00000000000E+00 0. -1.
<mgrwt>
<rscale>  0 0.66305086E+04</rscale>
<asrwt>0</asrwt>
<pdfrwt beam="1">  1        2 0.49927431E+00 0.66305086E+04</pdfrwt>
<pdfrwt beam="2">  1       -2 0.52103604E+00 0.66305086E+04</pdfrwt>
<totfact> 0.97274268E-04</totfact>
</mgrwt>
</event>
<event>
 6    1  0.1817112E-005  0.2858122E+04  0.7818608E-02  0.8285447E-01
         -1   -1    0    0    0  501 -0.00000000000E+00  0.00000000000E+00  0.85164791072E+03  0.85164791072E+03  0.00000000000E+00 0.  1.
          1   -1    0    0  501    0  0.00000000000E+00 -0.00000000000E+00 -0.23979579172E+04  0.23979579172E+04  0.00000000000E+00 0. -1.
         23    2    1    2    0    0  0.47624813476E+03 -0.34055524972E+03  0.70627101031E+03  0.92217991048E+03  0.93844996209E+02 0.  0.
         11    1    3    3    0    0  0.32927814739E+03 -0.18817527630E+03  0.41633444711E+03  0.56317706346E+03  0.00000000000E+00 0. -1.
        -11    1    3    3    0    0  0.14696998738E+03 -0.15237997342E+03  0.28993656320E+03  0.35900284703E+03  0.00000000000E+00 0.  1.
         22    1    1    2    0    0 -0.47624813476E+03  0.34055524972E+03 -0.22525810168E+04  0.23274259174E+04  0.00000000000E+00 0. -1.
<mgrwt>
<rscale>  0 0.28581224E+04</rscale>
<asrwt>0</asrwt>
<pdfrwt beam="1">  1        1 0.36891660E+00 0.28581224E+04</pdfrwt>
<pdfrwt beam="2">  1       -1 0.13102275E+00 0.28581224E+04</pdfrwt>
<totfact> 0.68237984E-01</totfact>
</mgrwt>
</event>
<event>
 6    1  0.1817112E-005  0.3548262E+04  0.7818608E-02  0.8102447E-01
          2   -1    0    0  501    0  0.00000000000E+00  0.00000000000E+00  0.32173882119E+04  0.32173882119E+04  0.00000000000E+00 0. -1.
         -2   -1    0    0    0  501 -0.00000000000E+00 -0.00000000000E+00 -0.97829066228E+03  0.97829066228E+03  0.00000000000E+00 0.  1.
         23    2    1    2    0    0  0.11482992989E+03  0.57705704841E+03  0.30980169098E+04  0.31545625420E+04  0.85879614692E+02 0.  0.
         11    1    3    3    0    0  0.96747524091E+02  0.27937133249E+03  0.16199984912E+04  0.16467554573E+04  0.00000000000E+00 0.  1.
        -11    1    3    3    0    0  0.18082405801E+02  0.29768571592E+03  0.14780184186E+04  0.15078070847E+04  0.00000000000E+00 0. -1.
         22    1    1    2    0    0 -0.11482992989E+03 -0.57705704841E+03 -0.85891936014E+03  0.10411163322E+04  0.00000000000E+00 0.  1.
<mgrwt>
<rscale>  0 0.35482620E+04</rscale>
<asrwt>0</asrwt>
<pdfrwt beam="1">  1        2 0.49498280E+00 0.35482620E+04</pdfrwt>
<pdfrwt beam="2">  1       -2 0.15050626E+00 0.35482620E+04</pdfrwt>
<totfact> 0.30669454E-01</totfact>
</mgrwt>
</event>
<event>
 6    1  0.1817112E-005  0.1288130E+04  0.7818608E-02  0.9039031E-01
         -2   -1    0    0    0  501 -0.00000000000E+00  0.00000000000E+00  0.19421565932E+03  0.19421565932E+03  0.00000000000E+00 0.  1.
          2   -1    0    0  501    0  0.00000000000E+00 -0.00000000000E+00 -0.21358721000E+04  0.21358721000E+04  0.00000000000E+00 0. -1.
         23    2    1    2    0    0 -0.45681885403E+03 -0.26139863882E+03 -0.31440937437E+03  0.61984048814E+03  0.91303133948E+02 0.  0.
         11    1    3    3    0    0 -0.21444829283E+03 -0.17502338988E+03 -0.16808103731E+03  0.32384022667E+03  0.00000000000E+00 0.  1.
        -11    1    3    3    0    0 -0.24237056120E+03 -0.86375248944E+02 -0.14632833706E+03  0.29600026148E+03  0.00000000000E+00 0. -1.
         22    1    1    2    0    0  0.45681885403E+03  0.26139863882E+03 -0.16272470663E+04  0.17102472712E+04  0.00000000000E+00 0. -1.
<mgrwt>
<rscale>  0 0.12881301E+04</rscale>
<asrwt>0</asrwt>
<pdfrwt beam="1">  1        2 0.32859567E+00 0.12881301E+04</pdfrwt>
<pdfrwt beam="2">  1       -2 0.29879335E-01 0.12881301E+04</pdfrwt>
<totfact> 0.56961808E+01</totfact>
</mgrwt>
</event>
<event>
 6    1  0.1817112E-005  0.1729121E+04  0.7818608E-02  0.8744928E-01
         -2   -1    0    0    0  501 -0.00000000000E+00  0.00000000000E+00  0.51398298740E+03  0.51398298740E+03  0.00000000000E+00 0. -1.
          2   -1    0    0  501    0  0.00000000000E+00 -0.00000000000E+00 -0.14542596154E+04  0.14542596154E+04  0.00000000000E+00 0.  1.
         23    2    1    2    0    0 -0.19379188497E+03  0.30143537115E+03 -0.13640543233E+04  0.14132596187E+04  0.90774309994E+02 0.  0.
         13    1    3    3    0    0 -0.13399528477E+03  0.12550340854E+03 -0.65113497415E+03  0.67652242864E+03  0.00000000000E+00 0.  1.
        -13    1    3    3    0    0 -0.59796600204E+02  0.17593196260E+03 -0.71291934915E+03  0.73673719008E+03  0.00000000000E+00 0. -1.
         22    1    1    2    0    0  0.19379188497E+03 -0.30143537115E+03  0.42377769526E+03  0.55498298411E+03  0.00000000000E+00 0. -1.
<mgrwt>
<rscale>  0 0.17291208E+04</rscale>
<asrwt>0</asrwt>
<pdfrwt beam="1">  1        2 0.22373224E+00 0.17291208E+04</pdfrwt>
<pdfrwt beam="2">  1       -2 0.79074307E-01 0.17291208E+04</pdfrwt>
<totfact> 0.18152106E+01</totfact>
</mgrwt>
</event>
<event>
 6    1  0.1817112E-005  0.4139815E+03  0.7818608E-02  0.1039043E+00
         -2   -1    0    0    0  501 -0.00000000000E+00  0.00000000000E+00  0.18969868182E+03  0.18969868182E+03  0.00000000000E+00 0.  1.
          2   -1    0    0  501    0  0.00000000000E+00 -0.00000000000E+00 -0.22585904267E+03  0.22585904267E+03  0.00000000000E+00 0. -1.
         23    2    1    2    0    0  0.29650297516E+01  0.17219929295E+03 -0.11468302932E+03  0.22627698760E+03  0.91584332782E+02 0.  0.
         13    1    3    3    0    0  0.41784357425E+02  0.91596795424E+02 -0.85766064884E+02  0.13225627903E+03  0.00000000000E+00 0. -1.
        -13    1    3    3    0    0 -0.38819327674E+02  0.80602497523E+02 -0.28916964438E+02  0.94020708571E+02  0.00000000000E+00 0.  1.
         22    1    1    2    0    0 -0.29650297516E+01 -0.17219929295E+03  0.78522668475E+02  0.18928073689E+03  0.00000000000E+00 0.  1.
<mgrwt>
<rscale>  0 0.41398146E+03</rscale>
<asrwt>0</asrwt>
<pdfrwt beam="1">  1        2 0.34747545E-01 0.41398146E+03</pdfrwt>
<pdfrwt beam="2">  1       -2 0.29184413E-01 0.41398146E+03</pdfrwt>
<totfact> 0.16150105E+03</totfact>
</mgrwt>
</event>
<event>
 6    1  0.1817112E-005  0.8381031E+03  0.7818608E-02  0.9506445E-01
         -1   -1    0    0    0  501 -0.00000000000E+00  0.00000000000E+00  0.32379743684E+03  0.32379743684E+03  0.00000000000E+00 0.  1.
          1   -1    0    0  501    0  0.00000000000E+00 -0.00000000000E+00 -0.54232735940E+03  0.54232735940E+03  0.00000000000E+00 0. -1.
         23    2    1    2    0    0 -0.11379987139E+03 -0.41320158689E+02 -0.51962785977E+03  0.54159785740E+03  0.93044936731E+02 0.  0.
         13    1    3    3    0    0 -0.69452668022E+02  0.27774528545E+01 -0.40589968568E+03  0.41180813758E+03  0.00000000000E+00 0. -1.
        -13    1    3    3    0    0 -0.44347203366E+02 -0.44097611544E+02 -0.11372817409E+03  0.12978971982E+03  0.00000000000E+00 0.  1.
         22    1    1    2    0    0  0.11379987139E+03  0.41320158689E+02  0.30109793721E+03  0.32452693884E+03  0.00000000000E+00 0.  1.
<mgrwt>
<rscale>  0 0.83810312E+03</rscale>
<asrwt>0</asrwt>
<pdfrwt beam="1">  1        1 0.83434977E-01 0.83810312E+03</pdfrwt>
<pdfrwt beam="2">  1       -1 0.49814991E-01 0.83810312E+03</pdfrwt>
<totfact> 0.16157521E+02</totfact>
</mgrwt>
</event>
<event>
 6    1  0.1817112E-005  0.1917735E+04  0.7818608E-02  0.8646078E-01
         -2   -1    0    0    0  501 -0.00000000000E+00  0.00000000000E+00  0.38603964001E+04  0.38603964001E+04  0.00000000000E+00 0.  1.
          2   -1    0    0  501    0  0.00000000000E+00 -0.00000000000E+00 -0.23816911810E+03  0.23816911810E+03  0.00000000000E+00 0. -1.
         23    2    1    2    0    0  0.47659326527E+03 -0.80448978045E+03  0.13824745572E+04  0.16714608201E+04  0.90556194823E+02 0.  0.
         13    1    3    3    0    0  0.11372283500E+03 -0.18653224852E+03  0.39451496982E+03  0.45096477063E+03  0.00000000000E+00 0. -1.
        -13    1    3    3    0    0  0.36287043027E+03 -0.61795753193E+03  0.98795958736E+03  0.12204960494E+04  0.00000000000E+00 0.  1.
         22    1    1    2    0    0 -0.47659326527E+03  0.80448978045E+03  0.22397527248E+04  0.24271046982E+04  0.00000000000E+00 0. -1.
<mgrwt>
<rscale>  0 0.19177353E+04</rscale>
<asrwt>0</asrwt>
<pdfrwt beam="1">  1        2 0.36641406E-01 0.19177353E+04</pdfrwt>
<pdfrwt beam="2">  1       -2 0.59390709E+00 0.19177353E+04</pdfrwt>
<totfact> 0.69890189E-02</totfact>
</mgrwt>
</event>
<event>
 6    1  0.1817112E-005  0.3224414E+04  0.7818608E-02  0.8182399E-01
         -2   -1    0    0    0  501 -0.00000000000E+00  0.00000000000E+00  0.11429810386E+04  0.11429810386E+04  0.00000000000E+00 0. -1.
          2   -1    0    0  501    0  0.00000000000E+00 -0.00000000000E+00 -0.22740637171E+04  0.22740637171E+04  0.00000000000E+00 0.  1.
         23    2    1    2    0    0  0.61428964476E+03  0.13831506001E+04 -0.11511833780E+04  0.19034855768E+04  0.87044936297E+02 0.  0.
         11    1    3    3    0    0  0.55752635480E+03  0.11833678287E+04 -0.10012811079E+04  0.16473490557E+04  0.00000000000E+00 0.  1.
        -11    1    3    3    0    0  0.56763289960E+02  0.19978277144E+03 -0.14990227009E+03  0.25613652107E+03  0.00000000000E+00 0. -1.
         22    1    1    2    0    0 -0.61428964476E+03 -0.13831506001E+04  0.20100699485E+02  0.15135591790E+04  0.00000000000E+00 0. -1.
<mgrwt>
<rscale>  0 0.32244142E+04</rscale>
<asrwt>0</asrwt>
<pdfrwt beam="1">  1        2 0.34985596E+00 0.32244142E+04</pdfrwt>
<pdfrwt beam="2">  1       -2 0.17584324E+00 0.32244142E+04</pdfrwt>
<totfact> 0.76384785E-01</totfact>
</mgrwt>
</event>
<event>
 6    1  0.1817112E-005  0.1089594E+04  0.7818608E-02  0.9215394E-01
          2   -1    0    0  501    0  0.00000000000E+00  0.00000000000E+00  0.12447699068E+04  0.12447699068E+04  0.00000000000E+00 0. -1.
         -2   -1    0    0    0  501 -0.00000000000E+00 -0.00000000000E+00 -0.23844069053E+03  0.23844069053E+03  0.00000000000E+00 0.  1.
         23    2    1    2    0    0 -0.23164864792E+03  0.48353390362E+03  0.60180809210E+03  0.81156822825E+03  0.94888763025E+02 0.  0.
         11    1    3    3    0    0 -0.12980932381E+03  0.30991065759E+03  0.43811628104E+03  0.55212403675E+03  0.00000000000E+00 0. -1.
        -11    1    3    3    0    0 -0.10183932411E+03  0.17362324603E+03  0.16369181106E+03  0.25944419150E+03  0.00000000000E+00 0.  1.
         22    1    1    2    0    0  0.23164864792E+03 -0.48353390362E+03  0.40452112414E+03  0.67164236906E+03  0.00000000000E+00 0. -1.
<mgrwt>
<rscale>  0 0.10895940E+04</rscale>
<asrwt>0</asrwt>
<pdfrwt beam="1">  1        2 0.19150306E+00 0.10895940E+04</pdfrwt>
<pdfrwt beam="2">  1       -2 0.36683184E-01 0.10895940E+04</pdfrwt>
<totfact> 0.12374890E+02</totfact>
</mgrwt>
</event>
<event>
 6    1  0.1817112E-005  0.3936873E+04  0.7818608E-02  0.8017404E-01
         -2   -1    0    0    0  501 -0.00000000000E+00  0.00000000000E+00  0.16558682209E+04  0.16558682209E+04  0.00000000000E+00 0.  1.
          2   -1    0    0  501    0  0.00000000000E+00 -0.00000000000E+00 -0.23400067422E+04  0.23400067422E+04  0.00000000000E+00 0. -1.
         23    2    1    2    0    0  0.43395209283E+03  0.13623283445E+03 -0.22850469676E+04  0.23316088613E+04  0.89924602049E+02 0.  0.
         11    1    3    3    0    0  0.18985385965E+03  0.97613196796E+02 -0.11927458070E+04  0.12116993787E+04  0.00000000000E+00 0.  1.
        -11    1    3    3    0    0  0.24409823318E+03  0.38619637655E+02 -0.10923011605E+04  0.11199094826E+04  0.00000000000E+00 0. -1.
         22    1    1    2    0    0 -0.43395209283E+03 -0.13623283445E+03  0.16009084462E+04  0.16642661017E+04  0.00000000000E+00 0.  1.
<mgrwt>
<rscale>  0 0.39368733E+04</rscale>
<asrwt>0</asrwt>
<pdfrwt beam="1">  1        2 0.36000104E+00 0.39368733E+04</pdfrwt>
<pdfrwt beam="2">  1       -2 0.25474896E+00 0.39368733E+04</pdfrwt>
<totfact> 0.20497341E-01</totfact>
</mgrwt>
</event>
<event>
 6    1  0.1817112E-005  0.1708070E+04  0.7818608E-02  0.8756775E-01
         -1   -1    0    0    0  501 -0.00000000000E+00  0.00000000000E+00  0.62567989967E+03  0.62567989967E+03  0.00000000000E+00 0.  1.
          1   -1    0    0  501    0  0.00000000000E+00 -0.00000000000E+00 -0.11657331915E+04  0.11657331915E+04  0.00000000000E+00 0. -1.
         23    2    1    2    0    0 -0.28562178276E+03 -0.71609839884E+02 -0.11092141730E+04  0.11505918363E+04  0.82448288884E+02 0.  0.
         13    1    3    3    0    0 -0.24443507816E+02 -0.32941436952E+02 -0.12372388022E+03  0.13034654533E+03  0.00000000000E+00 0.  1.
        -13    1    3    3    0    0 -0.26117827495E+03 -0.38668402931E+02 -0.98549029274E+03  0.10202452910E+04  0.00000000000E+00 0. -1.
         22    1    1    2    0    0  0.28562178276E+03  0.71609839884E+02  0.56916088118E+03  0.64082125481E+03  0.00000000000E+00 0.  1.
<mgrwt>
<rscale>  0 0.17080701E+04</rscale>
<asrwt>0</asrwt>
<pdfrwt beam="1">  1        1 0.17934357E+00 0.17080701E+04</pdfrwt>
<pdfrwt beam="2">  1       -1 0.96258446E-01 0.17080701E+04</pdfrwt>
<totfact> 0.11195458E+01</totfact>
</mgrwt>
</event>
<event>
 6    1  0.1817112E-005  0.1190193E+04  0.7818608E-02  0.9121485E-01
          2   -1    0    0  501    0  0.00000000000E+00  0.00000000000E+00  0.37512743253E+03  0.37512743253E+03  0.00000000000E+00 0. -1.
         -2   -1    0    0    0  501 -0.00000000000E+00 -0.00000000000E+00 -0.94405137733E+03  0.94405137733E+03  0.00000000000E+00 0.  1.
         23    2    1    2    0    0  0.13008925324E+03 -0.56907982596E+03 -0.17723258331E+03  0.61618721333E+03  0.86603874984E+02 0.  0.
         13    1    3    3    0    0  0.82878845473E+02 -0.24093515465E+03 -0.42405798148E+02  0.25829615461E+03  0.00000000000E+00 0. -1.
        -13    1    3    3    0    0  0.47210407766E+02 -0.32814467132E+03 -0.13482678516E+03  0.35789105872E+03  0.00000000000E+00 0.  1.
         22    1    1    2    0    0 -0.13008925324E+03  0.56907982596E+03 -0.39169136149E+03  0.70299159653E+03  0.00000000000E+00 0.  1.
<mgrwt>
<rscale>  0 0.11901925E+04</rscale>
<asrwt>0</asrwt>
<pdfrwt beam="1">  1        2 0.57711914E-01 0.11901925E+04</pdfrwt>
<pdfrwt beam="2">  1       -2 0.14523867E+00 0.11901925E+04</pdfrwt>
<totfact> 0.27511336E+01</totfact>
</mgrwt>
</event>
<event>
 6    1  0.1817112E-005  0.4020615E+04  0.7818608E-02  0.8000401E-01
         -2   -1    0    0    0  501 -0.00000000000E+00  0.00000000000E+00  0.10142565432E+04  0.10142565432E+04  0.00000000000E+00 0.  1.
          2   -1    0    0  501    0  0.00000000000E+00 -0.00000000000E+00 -0.39845314363E+04  0.39845314363E+04  0.00000000000E+00 0. -1.
         23    2    1    2    0    0 -0.12906489559E+04  0.13135485118E+04 -0.24853269432E+04  0.30944878628E+04  0.88434712677E+02 0.  0.
         13    1    3    3    0    0 -0.20517048376E+03  0.19048758156E+03 -0.33065640275E+03  0.43325985599E+03  0.00000000000E+00 0. -1.
        -13    1    3    3    0    0 -0.10854784722E+04  0.11230609302E+04 -0.21546705405E+04  0.26612280068E+04  0.00000000000E+00 0.  1.
         22    1    1    2    0    0  0.12906489559E+04 -0.13135485118E+04 -0.48494794984E+03  0.19043001167E+04  0.00000000000E+00 0.  1.
<mgrwt>
<rscale>  0 0.40206154E+04</rscale>
<asrwt>0</asrwt>
<pdfrwt beam="1">  1        2 0.61300484E+00 0.40206154E+04</pdfrwt>
<pdfrwt beam="2">  1       -2 0.15603947E+00 0.40206154E+04</pdfrwt>
<totfact> 0.74499209E-02</totfact>
</mgrwt>
</event>
<event>
 6    1  0.1817112E-005  0.1665203E+04  0.7818608E-02  0.8781463E-01
         -2   -1    0    0    0  501 -0.00000000000E+00  0.00000000000E+00  0.74230527307E+03  0.74230527307E+03  0.00000000000E+00 0.  1.
          2   -1    0    0  501    0  0.00000000000E+00 -0.00000000000E+00 -0.93388202889E+03  0.93388202889E+03  0.00000000000E+00 0. -1.
         23    2    1    2    0    0  0.48539079726E+03  0.57402387785E+03  0.25829257244E+03  0.80012220683E+03  0.91503303061E+02 0.  0.
         11    1    3    3    0    0  0.16194395815E+03  0.26101231477E+03  0.10685219778E+03  0.32522402465E+03  0.00000000000E+00 0.  1.
        -11    1    3    3    0    0  0.32344683911E+03  0.31301156308E+03  0.15144037466E+03  0.47489818217E+03  0.00000000000E+00 0. -1.
         22    1    1    2    0    0 -0.48539079726E+03 -0.57402387785E+03 -0.44986932825E+03  0.87606509513E+03  0.00000000000E+00 0. -1.
<mgrwt>
<rscale>  0 0.16652034E+04</rscale>
<asrwt>0</asrwt>
<pdfrwt beam="1">  1        2 0.14367416E+00 0.16652034E+04</pdfrwt>
<pdfrwt beam="2">  1       -2 0.11420081E+00 0.16652034E+04</pdfrwt>
<totfact> 0.15924839E+01</totfact>
</mgrwt>
</event>
<event>
 6    1  0.1817112E-005  0.1442024E+04  0.7818608E-02  0.8923949E-01
         -2   -1    0    0    0  501 -0.00000000000E+00  0.00000000000E+00  0.38846803568E+03  0.38846803568E+03  0.00000000000E+00 0.  1.
          2   -1    0    0  501    0  0.00000000000E+00 -0.00000000000E+00 -0.13382264680E+04  0.13382264680E+04  0.00000000000E+00 0. -1.
         23    2    1    2    0    0  0.46059979539E+03  0.31216423612E+03 -0.10202578160E+04  0.11658301307E+04  0.92925780536E+02 0.  0.
         13    1    3    3    0    0  0.11091255370E+03  0.12562247293E+03 -0.31794254424E+03  0.35940236742E+03  0.00000000000E+00 0. -1.
        -13    1    3    3    0    0  0.34968724169E+03  0.18654176319E+03 -0.70231527172E+03  0.80642776323E+03  0.00000000000E+00 0.  1.
         22    1    1    2    0    0 -0.46059979539E+03 -0.31216423612E+03  0.70499383655E+02  0.56086437301E+03  0.00000000000E+00 0.  1.
<mgrwt>
<rscale>  0 0.14420239E+04</rscale>
<asrwt>0</asrwt>
<pdfrwt beam="1">  1        2 0.20588099E+00 0.14420239E+04</pdfrwt>
<pdfrwt beam="2">  1       -2 0.59764314E-01 0.14420239E+04</pdfrwt>
<totfact> 0.39799139E+01</totfact>
</mgrwt>
</event>
<event>
 6    1  0.1817112E-005  0.3541352E+04  0.7818608E-02  0.8104059E-01
         -2   -1    0    0    0  501 -0.00000000000E+00  0.00000000000E+00  0.10149032175E+04  0.10149032175E+04  0.00000000000E+00 0. -1.
          2   -1    0    0  501    0  0.00000000000E+00 -0.00000000000E+00 -0.30892531225E+04  0.30892531225E+04  0.00000000000E+00 0.  1.
         23    2    1    2    0    0 -0.97931879940E+03 -0.13055138237E+04 -0.24290491616E+03  0.16510720769E+04  0.60037906277E+02 0.  0.
         13    1    3    3    0    0 -0.45439039407E+03 -0.58214197965E+03 -0.13651460612E+03  0.75099677254E+03  0.00000000000E+00 0.  1.
        -13    1    3    3    0    0 -0.52492840534E+03 -0.72337184402E+03 -0.10639031004E+03  0.90007530436E+03  0.00000000000E+00 0. -1.
         22    1    1    2    0    0  0.97931879940E+03  0.13055138237E+04 -0.18314449888E+04  0.24530842631E+04  0.00000000000E+00 0.  1.
<mgrwt>
<rscale>  0 0.35413517E+04</rscale>
<asrwt>0</asrwt>
<pdfrwt beam="1">  1        2 0.47526971E+00 0.35413517E+04</pdfrwt>
<pdfrwt beam="2">  1       -2 0.15613896E+00 0.35413517E+04</pdfrwt>
<totfact> 0.33670636E-01</totfact>
</mgrwt>
</event>
<event>
 6    1  0.1817112E-005  0.4798409E+04  0.7818608E-02  0.7860380E-01
          2   -1    0    0  501    0  0.00000000000E+00  0.00000000000E+00  0.25654974539E+04  0.25654974539E+04  0.00000000000E+00 0. -1.
         -2   -1    0    0    0  501 -0.00000000000E+00 -0.00000000000E+00 -0.22436900462E+04  0.22436900462E+04  0.00000000000E+00 0.  1.
         23    2    1    2    0    0  0.38203510573E+03  0.43696071910E+03  0.24934453858E+04  0.25613225131E+04  0.78851960673E+02 0.  0.
         11    1    3    3    0    0  0.34312719471E+03  0.35316896989E+03  0.21502471681E+04  0.22059074044E+04  0.00000000000E+00 0. -1.
        -11    1    3    3    0    0  0.38907911014E+02  0.83791749219E+02  0.34319821774E+03  0.35541510862E+03  0.00000000000E+00 0.  1.
         22    1    1    2    0    0 -0.38203510573E+03 -0.43696071910E+03 -0.21716379782E+04  0.22478649871E+04  0.00000000000E+00 0.  1.
<mgrwt>
<rscale>  0 0.47984085E+04</rscale>
<asrwt>0</asrwt>
<pdfrwt beam="1">  1        2 0.39469191E+00 0.47984085E+04</pdfrwt>
<pdfrwt beam="2">  1       -2 0.34518309E+00 0.47984085E+04</pdfrwt>
<totfact> 0.39350869E-02</totfact>
</mgrwt>
</event>
<event>
 6    1  0.1817112E-005  0.1966786E+04  0.7818608E-02  0.8622309E-01
          2   -1    0    0  501    0  0.00000000000E+00  0.00000000000E+00  0.19478190900E+04  0.19478190900E+04  0.00000000000E+00 0. -1.
         -2   -1    0    0    0  501 -0.00000000000E+00 -0.00000000000E+00 -0.49648452517E+03  0.49648452517E+03  0.00000000000E+00 0.  1.
         23    2    1    2    0    0 -0.97819236992E+03  0.47727158059E+02  0.65039982474E+03  0.11791417077E+04  0.90647894244E+02 0.  0.
         13    1    3    3    0    0 -0.70057846883E+03  0.68913094059E+02  0.49155775026E+03  0.85859666162E+03  0.00000000000E+00 0. -1.
        -13    1    3    3    0    0 -0.27761390109E+03 -0.21185936000E+02  0.15884207448E+03  0.32054504611E+03  0.00000000000E+00 0.  1.
         22    1    1    2    0    0  0.97819236992E+03 -0.47727158059E+02  0.80093474013E+03  0.12651619075E+04  0.00000000000E+00 0. -1.
<mgrwt>
<rscale>  0 0.19667862E+04</rscale>
<asrwt>0</asrwt>
<pdfrwt beam="1">  1        2 0.29966447E+00 0.19667862E+04</pdfrwt>
<pdfrwt beam="2">  1       -2 0.76382236E-01 0.19667862E+04</pdfrwt>
<totfact> 0.10201437E+01</totfact>
</mgrwt>
</event>
<event>
 6    1  0.1817112E-005  0.2849497E+04  0.7818608E-02  0.8288064E-01
          2   -1    0    0  501    0  0.00000000000E+00  0.00000000000E+00  0.38300694949E+04  0.38300694949E+04  0.00000000000E+00 0. -1.
         -2   -1    0    0    0  501 -0.00000000000E+00 -0.00000000000E+00 -0.52999245982E+03  0.52999245982E+03  0.00000000000E+00 0.  1.
         23    2    1    2    0    0  0.12902121580E+04 -0.60089629767E+03  0.16549317902E+04  0.21846937905E+04  0.91454660155E+02 0.  0.
         13    1    3    3    0    0  0.12805504463E+04 -0.58809204941E+03  0.16261960353E+04  0.21517842014E+04  0.00000000000E+00 0. -1.
        -13    1    3    3    0    0  0.96617116907E+01 -0.12804248263E+02  0.28735754897E+02  0.32909589117E+02  0.00000000000E+00 0.  1.
         22    1    1    2    0    0 -0.12902121580E+04  0.60089629767E+03  0.16451452448E+04  0.21753681642E+04  0.00000000000E+00 0.  1.
<mgrwt>
<rscale>  0 0.28494968E+04</rscale>
<asrwt>0</asrwt>
<pdfrwt beam="1">  1        2 0.58924144E+00 0.28494968E+04</pdfrwt>
<pdfrwt beam="2">  1       -2 0.81537304E-01 0.28494968E+04</pdfrwt>
<totfact> 0.53459334E-01</totfact>
</mgrwt>
</event>
<event>
 6    1  0.1817112E-005  0.5589498E+03  0.7818608E-02  0.9994434E-01
          2   -1    0    0  501    0  0.00000000000E+00  0.00000000000E+00  0.10119521476E+04  0.10119521476E+04  0.00000000000E+00 0.  1.
         -2   -1    0    0    0  501 -0.00000000000E+00 -0.00000000000E+00 -0.77183716294E+02  0.77183716294E+02  0.00000000000E+00 0. -1.
         23    2    1    2    0    0  0.16482202184E+03 -0.11419048583E+03  0.83839588944E+03  0.86666466854E+03  0.89410370303E+02 0.  0.
         11    1    3    3    0    0  0.11133209689E+03 -0.33647640602E+02  0.35088154484E+03  0.36965505276E+03  0.00000000000E+00 0. -1.
        -11    1    3    3    0    0  0.53489924947E+02 -0.80542845228E+02  0.48751434460E+03  0.49700961578E+03  0.00000000000E+00 0.  1.
         22    1    1    2    0    0 -0.16482202184E+03  0.11419048583E+03  0.96372541855E+02  0.22247119535E+03  0.00000000000E+00 0. -1.
<mgrwt>
<rscale>  0 0.55894983E+03</rscale>
<asrwt>0</asrwt>
<pdfrwt beam="1">  1        2 0.15568494E+00 0.55894983E+03</pdfrwt>
<pdfrwt beam="2">  1       -2 0.11874419E-01 0.55894983E+03</pdfrwt>
<totfact> 0.12918237E+03</totfact>
</mgrwt>
</event>
<event>
 6    1  0.1817112E-005  0.1028519E+04  0.7818608E-02  0.9277807E-01
          2   -1    0    0  501    0  0.00000000000E+00  0.00000000000E+00  0.15759371006E+04  0.15759371006E+04  0.00000000000E+00 0. -1.
         -2   -1    0    0    0  501 -0.00000000000E+00 -0.00000000000E+00 -0.16781307963E+03  0.16781307963E+03  0.00000000000E+00 0.  1.
         23    2    1    2    0    0 -0.17840430184E+03 -0.42363115526E+03  0.10849091917E+04  0.11818255621E+04  0.91609248187E+02 0.  0.
         11    1    3    3    0    0 -0.12583751262E+03 -0.22127402587E+03  0.68085669273E+03  0.72688589899E+03  0.00000000000E+00 0. -1.
        -11    1    3    3    0    0 -0.52566789220E+02 -0.20235712939E+03  0.40405249898E+03  0.45493966311E+03  0.00000000000E+00 0.  1.
         22    1    1    2    0    0  0.17840430184E+03  0.42363115526E+03  0.32321482930E+03  0.56192461817E+03  0.00000000000E+00 0. -1.
<mgrwt>
<rscale>  0 0.10285190E+04</rscale>
<asrwt>0</asrwt>
<pdfrwt beam="1">  1        2 0.24245185E+00 0.10285190E+04</pdfrwt>
<pdfrwt beam="2">  1       -2 0.25817398E-01 0.10285190E+04</pdfrwt>
<totfact> 0.15508100E+02</totfact>
</mgrwt>
</event>
<event>
 6    1  0.1817112E-005  0.1024773E+04  0.7818608E-02  0.9281784E-01
          2   -1    0    0  501    0  0.00000000000E+00  0.00000000000E+00  0.11012590138E+04  0.11012590138E+04  0.00000000000E+00 0. -1.
         -2   -1    0    0    0  501 -0.00000000000E+00 -0.00000000000E+00 -0.23839993975E+03  0.23839993975E+03  0.00000000000E+00 0.  1.
         23    2    1    2    0    0  0.17151418741E+03  0.30745206853E+03  0.91403649358E+03  0.98390198708E+03  0.93040408718E+02 0.  0.
         13    1    3    3    0    0  0.99015819973E+02  0.14217627409E+03  0.33146017047E+03  0.37401078878E+03  0.00000000000E+00 0. -1.
        -13    1    3    3    0    0  0.72498367439E+02  0.16527579444E+03  0.58257632311E+03  0.60989119829E+03  0.00000000000E+00 0.  1.
         22    1    1    2    0    0 -0.17151418741E+03 -0.30745206853E+03 -0.51177419525E+02  0.35575696647E+03  0.00000000000E+00 0.  1.
<mgrwt>
<rscale>  0 0.10247733E+04</rscale>
<asrwt>0</asrwt>
<pdfrwt beam="1">  1        2 0.16942446E+00 0.10247733E+04</pdfrwt>
<pdfrwt beam="2">  1       -2 0.36676914E-01 0.10247733E+04</pdfrwt>
<totfact> 0.15164783E+02</totfact>
</mgrwt>
</event>
<event>
 6    1  0.1817112E-005  0.1733138E+04  0.7818608E-02  0.8742687E-01
          2   -1    0    0  501    0  0.00000000000E+00  0.00000000000E+00  0.34230760808E+03  0.34230760808E+03  0.00000000000E+00 0. -1.
         -2   -1    0    0    0  501 -0.00000000000E+00 -0.00000000000E+00 -0.21937628075E+04  0.21937628075E+04  0.00000000000E+00 0.  1.
         23    2    1    2    0    0  0.71252824110E+03 -0.43984475336E+03 -0.61453440421E+03  0.10423726700E+04  0.87911022428E+02 0.  0.
         13    1    3    3    0    0  0.30529782016E+03 -0.16989734026E+03 -0.20673240777E+03  0.40596816826E+03  0.00000000000E+00 0.  1.
        -13    1    3    3    0    0  0.40723042095E+03 -0.26994741310E+03 -0.40780199644E+03  0.63640450178E+03  0.00000000000E+00 0. -1.
         22    1    1    2    0    0 -0.71252824110E+03  0.43984475336E+03 -0.12369207952E+04  0.14936977456E+04  0.00000000000E+00 0.  1.
<mgrwt>
<rscale>  0 0.17331378E+04</rscale>
<asrwt>0</asrwt>
<pdfrwt beam="1">  1        2 0.52662711E-01 0.17331378E+04</pdfrwt>
<pdfrwt beam="2">  1       -2 0.33750196E+00 0.17331378E+04</pdfrwt>
<totfact> 0.16823697E+00</totfact>
</mgrwt>
</event>
<event>
 6    1  0.1817112E-005  0.2289576E+04  0.7818608E-02  0.8482043E-01
          2   -1    0    0  501    0  0.00000000000E+00  0.00000000000E+00  0.21779606864E+04  0.21779606864E+04  0.00000000000E+00 0. -1.
         -2   -1    0    0    0  501 -0.00000000000E+00 -0.00000000000E+00 -0.60172780447E+03  0.60172780447E+03  0.00000000000E+00 0.  1.
         23    2    1    2    0    0 -0.58402630941E+03 -0.42795716581E+03 -0.28433153574E+03  0.78320808322E+03  0.91303962383E+02 0.  0.
         13    1    3    3    0    0 -0.27793515491E+03 -0.25681262198E+03 -0.13083134392E+03  0.40039669540E+03  0.00000000000E+00 0.  1.
        -13    1    3    3    0    0 -0.30609115450E+03 -0.17114454384E+03 -0.15350019182E+03  0.38281138781E+03  0.00000000000E+00 0. -1.
         22    1    1    2    0    0  0.58402630941E+03  0.42795716581E+03  0.18605644176E+04  0.19964804076E+04  0.00000000000E+00 0. -1.
<mgrwt>
<rscale>  0 0.22895759E+04</rscale>
<asrwt>0</asrwt>
<pdfrwt beam="1">  1        2 0.33507087E+00 0.22895759E+04</pdfrwt>
<pdfrwt beam="2">  1       -2 0.92573509E-01 0.22895759E+04</pdfrwt>
<totfact> 0.47723074E+00</totfact>
</mgrwt>
</event>
<event>
 6    1  0.1817112E-005  0.1613396E+04  0.7818608E-02  0.8812361E-01
          2   -1    0    0  501    0  0.00000000000E+00  0.00000000000E+00  0.24198123262E+04  0.24198123262E+04  0.00000000000E+00 0. -1.
         -2   -1    0    0    0  501 -0.00000000000E+00 -0.00000000000E+00 -0.26893051605E+03  0.26893051605E+03  0.00000000000E+00 0.  1.
         23    2    1    2    0    0 -0.16172887913E+03 -0.27230244488E+03  0.23106213042E+04  0.23340294963E+04  0.91749802333E+02 0.  0.
         13    1    3    3    0    0 -0.11979942823E+03 -0.23670745990E+03  0.16575869640E+04  0.16786830754E+04  0.00000000000E+00 0. -1.
        -13    1    3    3    0    0 -0.41929450894E+02 -0.35594984973E+02  0.65303434020E+03  0.65534642082E+03  0.00000000000E+00 0.  1.
         22    1    1    2    0    0  0.16172887913E+03  0.27230244488E+03 -0.15973949408E+03  0.35471334595E+03  0.00000000000E+00 0.  1.
<mgrwt>
<rscale>  0 0.16133956E+04</rscale>
<asrwt>0</asrwt>
<pdfrwt beam="1">  1        2 0.37227880E+00 0.16133956E+04</pdfrwt>
<pdfrwt beam="2">  1       -2 0.41373927E-01 0.16133956E+04</pdfrwt>
<totfact> 0.20565377E+01</totfact>
</mgrwt>
</event>
<event>
 6    1  0.1817112E-005  0.2135065E+04  0.7818608E-02  0.8545952E-01
         -2   -1    0    0    0  501 -0.00000000000E+00  0.00000000000E+00  0.47118039399E+03  0.47118039399E+03  0.00000000000E+00 0.  1.
          2   -1    0    0  501    0  0.00000000000E+00 -0.00000000000E+00 -0.24186604793E+04  0.24186604793E+04  0.00000000000E+00 0. -1.
         23    2    1    2    0    0  0.10080989559E+04  0.82969497205E+01 -0.50807701129E+03  0.11325095005E+04  0.90017636937E+02 0.  0.
         13    1    3    3    0    0  0.26929500605E+03 -0.10464103099E+02 -0.17889994153E+03  0.32347254415E+03  0.00000000000E+00 0.  1.
        -13    1    3    3    0    0  0.73880394988E+03  0.18761052819E+02 -0.32917706976E+03  0.80903695633E+03  0.00000000000E+00 0. -1.
         22    1    1    2    0    0 -0.10080989559E+04 -0.82969497205E+01 -0.14394030740E+04  0.17573313728E+04  0.00000000000E+00 0.  1.
<mgrwt>
<rscale>  0 0.21350648E+04</rscale>
<asrwt>0</asrwt>
<pdfrwt beam="1">  1        2 0.37210162E+00 0.21350648E+04</pdfrwt>
<pdfrwt beam="2">  1       -2 0.72489290E-01 0.21350648E+04</pdfrwt>
<totfact> 0.61369665E+00</totfact>
</mgrwt>
</event>
<event>
 6    1  0.1817112E-005  0.3866160E+04  0.7818608E-02  0.8032104E-01
         -2   -1    0    0    0  501 -0.00000000000E+00  0.00000000000E+00  0.12588408636E+04  0.12588408636E+04  0.00000000000E+00 0. -1.
          2   -1    0    0  501    0  0.00000000000E+00 -0.00000000000E+00 -0.29684437400E+04  0.29684437400E+04  0.00000000000E+00 0.  1.
         23    2    1    2    0    0  0.20974148529E+03  0.14883002062E+04 -0.21826324890E+04  0.26515987184E+04  0.89789681894E+02 0.  0.
         13    1    3    3    0    0  0.16229345902E+03  0.12928521251E+04 -0.19302743627E+04  0.23288977864E+04  0.00000000000E+00 0.  1.
        -13    1    3    3    0    0  0.47448026278E+02  0.19544808109E+03 -0.25235812624E+03  0.32270093195E+03  0.00000000000E+00 0. -1.
         22    1    1    2    0    0 -0.20974148529E+03 -0.14883002062E+04  0.47302961265E+03  0.15756858852E+04  0.00000000000E+00 0. -1.
<mgrwt>
<rscale>  0 0.38661600E+04</rscale>
<asrwt>0</asrwt>
<pdfrwt beam="1">  1        2 0.45668365E+00 0.38661600E+04</pdfrwt>
<pdfrwt beam="2">  1       -2 0.19366782E+00 0.38661600E+04</pdfrwt>
<totfact> 0.21272958E-01</totfact>
</mgrwt>
</event>
<event>
 6    1  0.1817112E-005  0.3637304E+04  0.7818608E-02  0.8082000E-01
         -2   -1    0    0    0  501 -0.00000000000E+00  0.00000000000E+00  0.14666594885E+04  0.14666594885E+04  0.00000000000E+00 0.  1.
          2   -1    0    0  501    0  0.00000000000E+00 -0.00000000000E+00 -0.22551213613E+04  0.22551213613E+04  0.00000000000E+00 0. -1.
         23    2    1    2    0    0 -0.15953922809E+04 -0.71763313758E+03  0.10992527683E+03  0.17552170139E+04  0.91811488815E+02 0.  0.
         11    1    3    3    0    0 -0.70237295300E+03 -0.34873637298E+03  0.83818477908E+02  0.78865097488E+03  0.00000000000E+00 0. -1.
        -11    1    3    3    0    0 -0.89301932787E+03 -0.36889676460E+03  0.26106798921E+02  0.96656603905E+03  0.00000000000E+00 0.  1.
         22    1    1    2    0    0  0.15953922809E+04  0.71763313758E+03 -0.89838714958E+03  0.19665638359E+04  0.00000000000E+00 0. -1.
<mgrwt>
<rscale>  0 0.36373040E+04</rscale>
<asrwt>0</asrwt>
<pdfrwt beam="1">  1        2 0.34694175E+00 0.36373040E+04</pdfrwt>
<pdfrwt beam="2">  1       -2 0.22563992E+00 0.36373040E+04</pdfrwt>
<totfact> 0.35567082E-01</totfact>
</mgrwt>
</event>
<event>
 6    1  0.1817112E-005  0.1658623E+04  0.7818608E-02  0.8785321E-01
         -2   -1    0    0    0  501 -0.00000000000E+00  0.00000000000E+00  0.88424286089E+03  0.88424286089E+03  0.00000000000E+00 0.  1.
          2   -1    0    0  501    0  0.00000000000E+00 -0.00000000000E+00 -0.77779306248E+03  0.77779306248E+03  0.00000000000E+00 0. -1.
         23    2    1    2    0    0  0.30706582489E+02 -0.22493405893E+03 -0.74351110539E+03  0.78227927346E+03  0.87257508399E+02 0.  0.
         13    1    3    3    0    0 -0.20440485215E+02 -0.14294349514E+03 -0.39288684519E+03  0.41858180725E+03  0.00000000000E+00 0. -1.
        -13    1    3    3    0    0  0.51147067704E+02 -0.81990563785E+02 -0.35062426020E+03  0.36369746620E+03  0.00000000000E+00 0.  1.
         22    1    1    2    0    0 -0.30706582489E+02  0.22493405893E+03  0.84996090380E+03  0.87975664991E+03  0.00000000000E+00 0.  1.
<mgrwt>
<rscale>  0 0.16586235E+04</rscale>
<asrwt>0</asrwt>
<pdfrwt beam="1">  1        2 0.11966047E+00 0.16586235E+04</pdfrwt>
<pdfrwt beam="2">  1       -2 0.13603736E+00 0.16586235E+04</pdfrwt>
<totfact> 0.13200891E+01</totfact>
</mgrwt>
</event>
<event>
 6    1  0.1817112E-005  0.2643353E+04  0.7818608E-02  0.8353623E-01
          2   -1    0    0  501    0  0.00000000000E+00  0.00000000000E+00  0.29167391872E+04  0.29167391872E+04  0.00000000000E+00 0. -1.
         -2   -1    0    0    0  501 -0.00000000000E+00 -0.00000000000E+00 -0.59889773123E+03  0.59889773123E+03  0.00000000000E+00 0.  1.
         23    2    1    2    0    0 -0.22264190978E+03 -0.10248177396E+04  0.22267169908E+04  0.24629619982E+04  0.89957924180E+02 0.  0.
         11    1    3    3    0    0 -0.86884868281E+02 -0.23543012221E+03  0.49510263534E+03  0.55507021385E+03  0.00000000000E+00 0. -1.
        -11    1    3    3    0    0 -0.13575704150E+03 -0.78938761740E+03  0.17316143555E+04  0.19078917844E+04  0.00000000000E+00 0.  1.
         22    1    1    2    0    0  0.22264190978E+03  0.10248177396E+04  0.91124465128E+02  0.10526749202E+04  0.00000000000E+00 0.  1.
<mgrwt>
<rscale>  0 0.26433528E+04</rscale>
<asrwt>0</asrwt>
<pdfrwt beam="1">  1        2 0.44872910E+00 0.26433528E+04</pdfrwt>
<pdfrwt beam="2">  1       -2 0.92138114E-01 0.26433528E+04</pdfrwt>
<totfact> 0.17303145E+00</totfact>
</mgrwt>
</event>
<event>
 6    1  0.1817112E-005  0.7436847E+03  0.7818608E-02  0.9645310E-01
          1   -1    0    0  501    0  0.00000000000E+00  0.00000000000E+00  0.42560982164E+03  0.42560982164E+03  0.00000000000E+00 0. -1.
         -1   -1    0    0    0  501 -0.00000000000E+00 -0.00000000000E+00 -0.32486734081E+03  0.32486734081E+03  0.00000000000E+00 0.  1.
         23    2    1    2    0    0 -0.20497293380E+03  0.44292945606E+02 -0.25191049604E+03  0.34018471710E+03  0.91054791827E+02 0.  0.
         13    1    3    3    0    0 -0.69175941109E+02 -0.17646240566E+02 -0.12641655791E+03  0.14518211580E+03  0.00000000000E+00 0. -1.
        -13    1    3    3    0    0 -0.13579699269E+03  0.61939186173E+02 -0.12549393813E+03  0.19500260130E+03  0.00000000000E+00 0.  1.
         22    1    1    2    0    0  0.20497293380E+03 -0.44292945606E+02  0.35265297687E+03  0.41029244536E+03  0.00000000000E+00 0. -1.
<mgrwt>
<rscale>  0 0.74368469E+03</rscale>
<asrwt>0</asrwt>
<pdfrwt beam="1">  1        1 0.65478434E-01 0.74368469E+03</pdfrwt>
<pdfrwt beam="2">  1       -1 0.49979591E-01 0.74368469E+03</pdfrwt>
<totfact> 0.22465762E+02</totfact>
</mgrwt>
</event>
<event>
 6    1  0.1817112E-005  0.1119712E+04  0.7818608E-02  0.9186190E-01
          2   -1    0    0  501    0  0.00000000000E+00  0.00000000000E+00  0.26307168038E+04  0.26307168038E+04  0.00000000000E+00 0. -1.
         -2   -1    0    0    0  501 -0.00000000000E+00 -0.00000000000E+00 -0.11914567406E+03  0.11914567406E+03  0.00000000000E+00 0.  1.
         23    2    1    2    0    0  0.72185845692E+02  0.51687711456E+03  0.79259077478E+03  0.95340312440E+03  0.91676788091E+02 0.  0.
         11    1    3    3    0    0  0.63338614093E+02  0.15145041949E+03  0.25752047933E+03  0.30539451023E+03  0.00000000000E+00 0. -1.
        -11    1    3    3    0    0  0.88472315985E+01  0.36542669507E+03  0.53507029545E+03  0.64800861418E+03  0.00000000000E+00 0.  1.
         22    1    1    2    0    0 -0.72185845692E+02 -0.51687711456E+03  0.17189803550E+04  0.17964593535E+04  0.00000000000E+00 0. -1.
<mgrwt>
<rscale>  0 0.11197116E+04</rscale>
<asrwt>0</asrwt>
<pdfrwt beam="1">  1        2 0.40472562E+00 0.11197116E+04</pdfrwt>
<pdfrwt beam="2">  1       -2 0.18330106E-01 0.11197116E+04</pdfrwt>
<totfact> 0.72824788E+01</totfact>
</mgrwt>
</event>
<event>
 6    1  0.1817112E-005  0.4353711E+04  0.7818608E-02  0.7936760E-01
         -2   -1    0    0    0  501 -0.00000000000E+00  0.00000000000E+00  0.19907405894E+04  0.19907405894E+04  0.00000000000E+00 0.  1.
          2   -1    0    0  501    0  0.00000000000E+00 -0.00000000000E+00 -0.23803698350E+04  0.23803698350E+04  0.00000000000E+00 0. -1.
         23    2    1    2    0    0 -0.56714427944E+03  0.11772326877E+04  0.15518185225E+04  0.20308649520E+04  0.93500224664E+02 0.  0.
         11    1    3    3    0    0 -0.47359364044E+03  0.95516458095E+03  0.12104572363E+04  0.16130210891E+04  0.00000000000E+00 0. -1.
        -11    1    3    3    0    0 -0.93550639000E+02  0.22206810673E+03  0.34136128617E+03  0.41784386292E+03  0.00000000000E+00 0.  1.
         22    1    1    2    0    0  0.56714427944E+03 -0.11772326877E+04 -0.19414477681E+04  0.23402454724E+04  0.00000000000E+00 0. -1.
<mgrwt>
<rscale>  0 0.43537105E+04</rscale>
<asrwt>0</asrwt>
<pdfrwt beam="1">  1        2 0.36621074E+00 0.43537105E+04</pdfrwt>
<pdfrwt beam="2">  1       -2 0.30626778E+00 0.43537105E+04</pdfrwt>
<totfact> 0.91000443E-02</totfact>
</mgrwt>
</event>
<event>
 6    1  0.1817112E-005  0.4101954E+04  0.7818608E-02  0.7984289E-01
          2   -1    0    0  501    0  0.00000000000E+00  0.00000000000E+00  0.13308838552E+04  0.13308838552E+04  0.00000000000E+00 0. -1.
         -2   -1    0    0    0  501 -0.00000000000E+00 -0.00000000000E+00 -0.31606867583E+04  0.31606867583E+04  0.00000000000E+00 0.  1.
         23    2    1    2    0    0  0.12242374549E+04  0.48021764628E+03  0.80652145515E+03  0.15454592009E+04  0.92741308406E+02 0.  0.
         13    1    3    3    0    0  0.10395947757E+04  0.44094313843E+03  0.70250571339E+03  0.13299257221E+04  0.00000000000E+00 0. -1.
        -13    1    3    3    0    0  0.18464267920E+03  0.39274507851E+02  0.10401574177E+03  0.21553347880E+03  0.00000000000E+00 0.  1.
         22    1    1    2    0    0 -0.12242374549E+04 -0.48021764628E+03 -0.26363243583E+04  0.29461114126E+04  0.00000000000E+00 0.  1.
<mgrwt>
<rscale>  0 0.41019542E+04</rscale>
<asrwt>0</asrwt>
<pdfrwt beam="1">  1        2 0.20475137E+00 0.41019542E+04</pdfrwt>
<pdfrwt beam="2">  1       -2 0.48625949E+00 0.41019542E+04</pdfrwt>
<totfact> 0.25018366E-02</totfact>
</mgrwt>
</event>
<event>
 6    1  0.1817112E-005  0.1110403E+04  0.7818608E-02  0.9195111E-01
         -2   -1    0    0    0  501 -0.00000000000E+00  0.00000000000E+00  0.30491696129E+03  0.30491696129E+03  0.00000000000E+00 0.  1.
          2   -1    0    0  501    0  0.00000000000E+00 -0.00000000000E+00 -0.10109268984E+04  0.10109268984E+04  0.00000000000E+00 0. -1.
         23    2    1    2    0    0  0.11894547889E+03 -0.30223883041E+03 -0.88351913765E+03  0.94570084154E+03  0.90816724970E+02 0.  0.
         13    1    3    3    0    0  0.13316785060E+03 -0.28651033476E+03 -0.83352808210E+03  0.89139829033E+03  0.00000000000E+00 0. -1.
        -13    1    3    3    0    0 -0.14222371708E+02 -0.15728495650E+02 -0.49991055553E+02  0.54302551209E+02  0.00000000000E+00 0.  1.
         22    1    1    2    0    0 -0.11894547889E+03  0.30223883041E+03  0.17750920059E+03  0.37014301811E+03  0.00000000000E+00 0. -1.
<mgrwt>
<rscale>  0 0.11104031E+04</rscale>
<asrwt>0</asrwt>
<pdfrwt beam="1">  1        2 0.15552722E+00 0.11104031E+04</pdfrwt>
<pdfrwt beam="2">  1       -2 0.46910302E-01 0.11104031E+04</pdfrwt>
<totfact> 0.10589866E+02</totfact>
</mgrwt>
</event>
<event>
 6    1  0.1817112E-005  0.2557916E+04  0.7818608E-02  0.8382638E-01
         -4   -1    0    0    0  501 -0.00000000000E+00  0.00000000000E+00  0.97956705663E+03  0.97956705663E+03  0.00000000000E+00 0. -1.
          4   -1    0    0  501    0  0.00000000000E+00 -0.00000000000E+00 -0.16698542371E+04  0.16698542371E+04  0.00000000000E+00 0.  1.
         23    2    1    2    0    0  0.53533035685E+03 -0.56566372826E+03  0.70301718558E+03  0.10532223397E+04  0.92141679956E+02 0.  0.
         11    1    3    3    0    0  0.43579351230E+03 -0.50193959556E+03  0.57403103339E+03  0.87827727413E+03  0.00000000000E+00 0.  1.
        -11    1    3    3    0    0  0.99536844546E+02 -0.63724132704E+02  0.12898615219E+03  0.17494506557E+03  0.00000000000E+00 0. -1.
         22    1    1    2    0    0 -0.53533035685E+03  0.56566372826E+03 -0.13933043661E+04  0.15961989541E+04  0.00000000000E+00 0.  1.
<mgrwt>
<rscale>  0 0.25579165E+04</rscale>
<asrwt>0</asrwt>
<pdfrwt beam="1">  1        4 0.25690065E+00 0.25579165E+04</pdfrwt>
<pdfrwt beam="2">  1       -4 0.15070262E+00 0.25579165E+04</pdfrwt>
<totfact> 0.29784630E-02</totfact>
</mgrwt>
</event>
<event>
 6    1  0.1817112E-005  0.2211843E+04  0.7818608E-02  0.8513515E-01
          2   -1    0    0  501    0  0.00000000000E+00  0.00000000000E+00  0.51229734191E+03  0.51229734191E+03  0.00000000000E+00 0. -1.
         -2   -1    0    0    0  501 -0.00000000000E+00 -0.00000000000E+00 -0.23874071976E+04  0.23874071976E+04  0.00000000000E+00 0.  1.
         23    2    1    2    0    0 -0.47386841828E+03 -0.99344806387E+03 -0.82649458348E+03  0.13794794501E+04  0.91541920368E+02 0.  0.
         11    1    3    3    0    0 -0.11394345844E+03 -0.32848284874E+03 -0.23822295328E+03  0.42146680665E+03  0.00000000000E+00 0. -1.
        -11    1    3    3    0    0 -0.35992495984E+03 -0.66496521513E+03 -0.58827163021E+03  0.95801264342E+03  0.00000000000E+00 0.  1.
         22    1    1    2    0    0  0.47386841828E+03  0.99344806387E+03 -0.10486152722E+04  0.15202250894E+04  0.00000000000E+00 0. -1.
<mgrwt>
<rscale>  0 0.22118430E+04</rscale>
<asrwt>0</asrwt>
<pdfrwt beam="1">  1        2 0.78814975E-01 0.22118430E+04</pdfrwt>
<pdfrwt beam="2">  1       -2 0.36729342E+00 0.22118430E+04</pdfrwt>
<totfact> 0.66141315E-01</totfact>
</mgrwt>
</event>
<event>
 6    1  0.1817112E-005  0.1454968E+04  0.7818608E-02  0.8914963E-01
          2   -1    0    0  501    0  0.00000000000E+00  0.00000000000E+00  0.89869172390E+03  0.89869172390E+03  0.00000000000E+00 0.  1.
         -2   -1    0    0    0  501 -0.00000000000E+00 -0.00000000000E+00 -0.58889284540E+03  0.58889284540E+03  0.00000000000E+00 0. -1.
         23    2    1    2    0    0 -0.67048549349E+02  0.53239292603E+03 -0.34255881248E+03  0.64289036863E+03  0.89575389501E+02 0.  0.
         13    1    3    3    0    0 -0.51429123470E+02  0.21815086967E+03 -0.18704245592E+03  0.29192402607E+03  0.00000000000E+00 0. -1.
        -13    1    3    3    0    0 -0.15619425879E+02  0.31424205636E+03 -0.15551635657E+03  0.35096634256E+03  0.00000000000E+00 0.  1.
         22    1    1    2    0    0  0.67048549349E+02 -0.53239292603E+03  0.65235769099E+03  0.84469420067E+03  0.00000000000E+00 0.  1.
<mgrwt>
<rscale>  0 0.14549682E+04</rscale>
<asrwt>0</asrwt>
<pdfrwt beam="1">  1        2 0.13826027E+00 0.14549682E+04</pdfrwt>
<pdfrwt beam="2">  1       -2 0.90598899E-01 0.14549682E+04</pdfrwt>
<totfact> 0.29651634E+01</totfact>
</mgrwt>
</event>
<event>
 6    1  0.1817112E-005  0.1112480E+04  0.7818608E-02  0.9193113E-01
          1   -1    0    0  501    0  0.00000000000E+00  0.00000000000E+00  0.19403521393E+04  0.19403521393E+04  0.00000000000E+00 0. -1.
         -1   -1    0    0    0  501 -0.00000000000E+00 -0.00000000000E+00 -0.15945714106E+03  0.15945714106E+03  0.00000000000E+00 0.  1.
         23    2    1    2    0    0  0.35500558925E+03 -0.36839022292E+03  0.50396813527E+03  0.72420667128E+03  0.93547296093E+02 0.  0.
         13    1    3    3    0    0  0.29127610795E+03 -0.34289629822E+03  0.41724102858E+03  0.61360387738E+03  0.00000000000E+00 0.  1.
        -13    1    3    3    0    0  0.63729481304E+02 -0.25493924695E+02  0.86727106690E+02  0.11060279390E+03  0.00000000000E+00 0. -1.
         22    1    1    2    0    0 -0.35500558925E+03  0.36839022292E+03  0.12769268630E+04  0.13756026091E+04  0.00000000000E+00 0. -1.
<mgrwt>
<rscale>  0 0.11124801E+04</rscale>
<asrwt>0</asrwt>
<pdfrwt beam="1">  1        1 0.29851570E+00 0.11124801E+04</pdfrwt>
<pdfrwt beam="2">  1       -1 0.24531869E-01 0.11124801E+04</pdfrwt>
<totfact> 0.47232363E+01</totfact>
</mgrwt>
</event>
<event>
 6    1  0.1817112E-005  0.1645582E+04  0.7818608E-02  0.8793025E-01
          2   -1    0    0  501    0  0.00000000000E+00  0.00000000000E+00  0.31409409272E+04  0.31409409272E+04  0.00000000000E+00 0. -1.
         -2   -1    0    0    0  501 -0.00000000000E+00 -0.00000000000E+00 -0.21553565676E+03  0.21553565676E+03  0.00000000000E+00 0.  1.
         23    2    1    2    0    0  0.77939636620E+03  0.22788134568E+03  0.12306621601E+04  0.14772366277E+04  0.91159741179E+02 0.  0.
         11    1    3    3    0    0  0.73534981475E+03  0.19296940129E+03  0.11298171120E+04  0.13617867845E+04  0.00000000000E+00 0.  1.
        -11    1    3    3    0    0  0.44046551447E+02  0.34911944393E+02  0.10084504806E+03  0.11544984311E+03  0.00000000000E+00 0. -1.
         22    1    1    2    0    0 -0.77939636620E+03 -0.22788134568E+03  0.16947431104E+04  0.18792399563E+04  0.00000000000E+00 0. -1.
<mgrwt>
<rscale>  0 0.16455817E+04</rscale>
<asrwt>0</asrwt>
<pdfrwt beam="1">  1        2 0.48322165E+00 0.16455817E+04</pdfrwt>
<pdfrwt beam="2">  1       -2 0.33159334E-01 0.16455817E+04</pdfrwt>
<totfact> 0.11572557E+01</totfact>
</mgrwt>
</event>
<event>
 6    1  0.1817112E-005  0.3391402E+04  0.7818608E-02  0.8140020E-01
          2   -1    0    0  501    0  0.00000000000E+00  0.00000000000E+00  0.19092433164E+04  0.19092433164E+04  0.00000000000E+00 0. -1.
         -2   -1    0    0    0  501 -0.00000000000E+00 -0.00000000000E+00 -0.15060422257E+04  0.15060422257E+04  0.00000000000E+00 0.  1.
         23    2    1    2    0    0  0.34720157401E+03 -0.14972295243E+04 -0.51642347715E+03  0.16242091821E+04  0.95483391042E+02 0.  0.
         13    1    3    3    0    0  0.32624554431E+03 -0.13053837787E+04 -0.47426575015E+03  0.14266712889E+04  0.00000000000E+00 0. -1.
        -13    1    3    3    0    0  0.20956029700E+02 -0.19184574562E+03 -0.42157727003E+02  0.19753789317E+03  0.00000000000E+00 0.  1.
         22    1    1    2    0    0 -0.34720157401E+03  0.14972295243E+04  0.91962456790E+03  0.17910763600E+04  0.00000000000E+00 0.  1.
<mgrwt>
<rscale>  0 0.33914015E+04</rscale>
<asrwt>0</asrwt>
<pdfrwt beam="1">  1        2 0.29372974E+00 0.33914015E+04</pdfrwt>
<pdfrwt beam="2">  1       -2 0.23169880E+00 0.33914015E+04</pdfrwt>
<totfact> 0.51907587E-01</totfact>
</mgrwt>
</event>
<event>
 6    1  0.1817112E-005  0.2025565E+04  0.7818608E-02  0.8594760E-01
          2   -1    0    0  501    0  0.00000000000E+00  0.00000000000E+00  0.12839806135E+04  0.12839806135E+04  0.00000000000E+00 0.  1.
         -2   -1    0    0    0  501 -0.00000000000E+00 -0.00000000000E+00 -0.79886633121E+03  0.79886633121E+03  0.00000000000E+00 0. -1.
         23    2    1    2    0    0  0.12467361117E+02  0.98921146326E+03  0.45733215183E+03  0.10931668949E+04  0.84654644857E+02 0.  0.
         13    1    3    3    0    0 -0.49813693428E+01  0.65852299554E+03  0.26232820676E+03  0.70886771527E+03  0.00000000000E+00 0. -1.
        -13    1    3    3    0    0  0.17448730459E+02  0.33068846772E+03  0.19500394507E+03  0.38429917964E+03  0.00000000000E+00 0.  1.
         22    1    1    2    0    0 -0.12467361117E+02 -0.98921146326E+03  0.27782130436E+02  0.98968004977E+03  0.00000000000E+00 0. -1.
<mgrwt>
<rscale>  0 0.20255655E+04</rscale>
<asrwt>0</asrwt>
<pdfrwt beam="1">  1        2 0.19753548E+00 0.20255655E+04</pdfrwt>
<pdfrwt beam="2">  1       -2 0.12290251E+00 0.20255655E+04</pdfrwt>
<totfact> 0.78360903E+00</totfact>
</mgrwt>
</event>
<event>
 6    1  0.1817112E-005  0.3517044E+04  0.7818608E-02  0.8109762E-01
          1   -1    0    0  501    0  0.00000000000E+00  0.00000000000E+00  0.13127267345E+04  0.13127267345E+04  0.00000000000E+00 0. -1.
         -1   -1    0    0    0  501 -0.00000000000E+00 -0.00000000000E+00 -0.23557077071E+04  0.23557077071E+04  0.00000000000E+00 0.  1.
         23    2    1    2    0    0  0.14727453477E+04 -0.51451519668E+03 -0.13660993422E+04  0.20752896812E+04  0.83036746957E+02 0.  0.
         13    1    3    3    0    0  0.50734108473E+03 -0.18616822984E+03 -0.42248737657E+03  0.68596586607E+03  0.00000000000E+00 0. -1.
        -13    1    3    3    0    0  0.96540426297E+03 -0.32834696685E+03 -0.94361196567E+03  0.13893238152E+04  0.00000000000E+00 0.  1.
         22    1    1    2    0    0 -0.14727453477E+04  0.51451519668E+03  0.32311836964E+03  0.15931447604E+04  0.00000000000E+00 0. -1.
<mgrwt>
<rscale>  0 0.35170445E+04</rscale>
<asrwt>0</asrwt>
<pdfrwt beam="1">  1        1 0.20195796E+00 0.35170445E+04</pdfrwt>
<pdfrwt beam="2">  1       -1 0.36241657E+00 0.35170445E+04</pdfrwt>
<totfact> 0.92640149E-02</totfact>
</mgrwt>
</event>
<event>
 6    1  0.1817112E-005  0.3925301E+04  0.7818608E-02  0.8019788E-01
         -2   -1    0    0    0  501 -0.00000000000E+00  0.00000000000E+00  0.89090115597E+03  0.89090115597E+03  0.00000000000E+00 0.  1.
          2   -1    0    0  501    0  0.00000000000E+00 -0.00000000000E+00 -0.43237078792E+04  0.43237078792E+04  0.00000000000E+00 0. -1.
         23    2    1    2    0    0 -0.68943413702E+03  0.15967839018E+04 -0.29223795090E+04  0.34019937425E+04  0.90670671127E+02 0.  0.
         11    1    3    3    0    0 -0.31303634418E+03  0.77603700918E+03 -0.13265709850E+04  0.15684437416E+04  0.00000000000E+00 0. -1.
        -11    1    3    3    0    0 -0.37639779283E+03  0.82074689261E+03 -0.15958085240E+04  0.18335500008E+04  0.00000000000E+00 0.  1.
         22    1    1    2    0    0  0.68943413702E+03 -0.15967839018E+04 -0.51042721416E+03  0.18126152927E+04  0.00000000000E+00 0.  1.
<mgrwt>
<rscale>  0 0.39253007E+04</rscale>
<asrwt>0</asrwt>
<pdfrwt beam="1">  1        2 0.66518583E+00 0.39253007E+04</pdfrwt>
<pdfrwt beam="2">  1       -2 0.13706172E+00 0.39253007E+04</pdfrwt>
<totfact> 0.54069217E-02</totfact>
</mgrwt>
</event>
<event>
 6    1  0.1817112E-005  0.1112930E+04  0.7818608E-02  0.9192680E-01
         -2   -1    0    0    0  501 -0.00000000000E+00  0.00000000000E+00  0.64449352226E+03  0.64449352226E+03  0.00000000000E+00 0.  1.
          2   -1    0    0  501    0  0.00000000000E+00 -0.00000000000E+00 -0.48045999636E+03  0.48045999636E+03  0.00000000000E+00 0. -1.
         23    2    1    2    0    0  0.19377400543E+03  0.12182217643E+02 -0.44061380608E+03  0.48989827089E+03  0.90349422259E+02 0.  0.
         13    1    3    3    0    0  0.34857555461E+02  0.34769273454E+02 -0.15039420759E+03  0.15824780954E+03  0.00000000000E+00 0.  1.
        -13    1    3    3    0    0  0.15891644996E+03 -0.22587055811E+02 -0.29021959850E+03  0.33165046135E+03  0.00000000000E+00 0. -1.
         22    1    1    2    0    0 -0.19377400543E+03 -0.12182217643E+02  0.60464733198E+03  0.63505524774E+03  0.00000000000E+00 0.  1.
<mgrwt>
<rscale>  0 0.11129301E+04</rscale>
<asrwt>0</asrwt>
<pdfrwt beam="1">  1        2 0.73916922E-01 0.11129301E+04</pdfrwt>
<pdfrwt beam="2">  1       -2 0.99152850E-01 0.11129301E+04</pdfrwt>
<totfact> 0.53943808E+01</totfact>
</mgrwt>
</event>
<event>
 6    1  0.1817112E-005  0.3987035E+04  0.7818608E-02  0.8007167E-01
         -2   -1    0    0    0  501 -0.00000000000E+00  0.00000000000E+00  0.20226267820E+04  0.20226267820E+04  0.00000000000E+00 0.  1.
          2   -1    0    0  501    0  0.00000000000E+00 -0.00000000000E+00 -0.19648272853E+04  0.19648272853E+04  0.00000000000E+00 0. -1.
         23    2    1    2    0    0  0.17747513728E+04 -0.61410117621E+03 -0.63702231346E+03  0.19850455082E+04  0.88008815757E+02 0.  0.
         13    1    3    3    0    0  0.10751342751E+04 -0.38755912721E+03 -0.34485236414E+03  0.11937499485E+04  0.00000000000E+00 0.  1.
        -13    1    3    3    0    0  0.69961709778E+03 -0.22654204899E+03 -0.29216994931E+03  0.79129555967E+03  0.00000000000E+00 0. -1.
         22    1    1    2    0    0 -0.17747513728E+04  0.61410117621E+03  0.69482181019E+03  0.20024085592E+04  0.00000000000E+00 0.  1.
<mgrwt>
<rscale>  0 0.39870351E+04</rscale>
<asrwt>0</asrwt>
<pdfrwt beam="1">  1        2 0.30228112E+00 0.39870351E+04</pdfrwt>
<pdfrwt beam="2">  1       -2 0.31117335E+00 0.39870351E+04</pdfrwt>
<totfact> 0.14979386E-01</totfact>
</mgrwt>
</event>
<event>
 6    1  0.1817112E-005  0.2231230E+04  0.7818608E-02  0.8505541E-01
          2   -1    0    0  501    0  0.00000000000E+00  0.00000000000E+00  0.17187113307E+04  0.17187113307E+04  0.00000000000E+00 0. -1.
         -2   -1    0    0    0  501 -0.00000000000E+00 -0.00000000000E+00 -0.72414552375E+03  0.72414552375E+03  0.00000000000E+00 0.  1.
         23    2    1    2    0    0  0.56769355203E+03  0.12189281380E+03  0.15386986821E+04  0.16471091477E+04  0.90780411290E+02 0.  0.
         13    1    3    3    0    0  0.23529409193E+03  0.94295730635E+02  0.70323827294E+03  0.74752863693E+03  0.00000000000E+00 0. -1.
        -13    1    3    3    0    0  0.33239946011E+03  0.27597083167E+02  0.83546040918E+03  0.89958051078E+03  0.00000000000E+00 0.  1.
         22    1    1    2    0    0 -0.56769355203E+03 -0.12189281380E+03 -0.54413287511E+03  0.79574770679E+03  0.00000000000E+00 0.  1.
<mgrwt>
<rscale>  0 0.22312303E+04</rscale>
<asrwt>0</asrwt>
<pdfrwt beam="1">  1        2 0.26441713E+00 0.22312303E+04</pdfrwt>
<pdfrwt beam="2">  1       -2 0.11140700E+00 0.22312303E+04</pdfrwt>
<totfact> 0.55614763E+00</totfact>
</mgrwt>
</event>
<event>
 6    1  0.1817112E-005  0.1734618E+04  0.7818608E-02  0.8741863E-01
         -1   -1    0    0    0  501 -0.00000000000E+00  0.00000000000E+00  0.31973029881E+03  0.31973029881E+03  0.00000000000E+00 0.  1.
          1   -1    0    0  501    0  0.00000000000E+00 -0.00000000000E+00 -0.23526845445E+04  0.23526845445E+04  0.00000000000E+00 0. -1.
         23    2    1    2    0    0  0.64997491728E+03 -0.27665141556E+02 -0.18972903949E+04  0.20078567694E+04  0.92440308448E+02 0.  0.
         13    1    3    3    0    0  0.29542413566E+03 -0.57408423122E+02 -0.83678657855E+03  0.88925976239E+03  0.00000000000E+00 0. -1.
        -13    1    3    3    0    0  0.35455078162E+03  0.29743281566E+02 -0.10605038164E+04  0.11185970070E+04  0.00000000000E+00 0.  1.
         22    1    1    2    0    0 -0.64997491728E+03  0.27665141556E+02 -0.13566385073E+03  0.66455807387E+03  0.00000000000E+00 0.  1.
<mgrwt>
<rscale>  0 0.17346176E+04</rscale>
<asrwt>0</asrwt>
<pdfrwt beam="1">  1        1 0.36195148E+00 0.17346176E+04</pdfrwt>
<pdfrwt beam="2">  1       -1 0.49189276E-01 0.17346176E+04</pdfrwt>
<totfact> 0.67343847E+00</totfact>
</mgrwt>
</event>
<event>
 6    1  0.1817112E-005  0.2527088E+04  0.7818608E-02  0.8393398E-01
         -2   -1    0    0    0  501 -0.00000000000E+00  0.00000000000E+00  0.11317912293E+04  0.11317912293E+04  0.00000000000E+00 0. -1.
          2   -1    0    0  501    0  0.00000000000E+00 -0.00000000000E+00 -0.14106341868E+04  0.14106341868E+04  0.00000000000E+00 0.  1.
         23    2    1    2    0    0 -0.38220616586E+03  0.24705879214E+02 -0.13492702415E+04  0.14055408556E+04  0.91230359619E+02 0.  0.
         11    1    3    3    0    0 -0.17440203162E+03  0.56629538496E+02 -0.64529578114E+03  0.67084246916E+03  0.00000000000E+00 0. -1.
        -11    1    3    3    0    0 -0.20780413424E+03 -0.31923659283E+02 -0.70397446037E+03  0.73469838647E+03  0.00000000000E+00 0.  1.
         22    1    1    2    0    0  0.38220616586E+03 -0.24705879214E+02  0.10704272840E+04  0.11368845605E+04  0.00000000000E+00 0. -1.
<mgrwt>
<rscale>  0 0.25270880E+04</rscale>
<asrwt>0</asrwt>
<pdfrwt beam="1">  1        2 0.21702064E+00 0.25270880E+04</pdfrwt>
<pdfrwt beam="2">  1       -2 0.17412173E+00 0.25270880E+04</pdfrwt>
<totfact> 0.25309622E+00</totfact>
</mgrwt>
</event>
<event>
 6    1  0.1817112E-005  0.8010821E+03  0.7818608E-02  0.9558452E-01
         -2   -1    0    0    0  501 -0.00000000000E+00  0.00000000000E+00  0.59834948123E+03  0.59834948123E+03  0.00000000000E+00 0.  1.
          2   -1    0    0  501    0  0.00000000000E+00 -0.00000000000E+00 -0.26812616013E+03  0.26812616013E+03  0.00000000000E+00 0. -1.
         23    2    1    2    0    0  0.10621063647E+03  0.60572047324E+02  0.57407134410E+03  0.59369087174E+03  0.89225953953E+02 0.  0.
         11    1    3    3    0    0  0.40373954026E+02  0.51749219417E+02  0.14067483011E+03  0.15523351990E+03  0.00000000000E+00 0.  1.
        -11    1    3    3    0    0  0.65836682444E+02  0.88228279073E+01  0.43339651399E+03  0.43845735185E+03  0.00000000000E+00 0. -1.
         22    1    1    2    0    0 -0.10621063647E+03 -0.60572047324E+02 -0.24384802300E+03  0.27278476962E+03  0.00000000000E+00 0. -1.
<mgrwt>
<rscale>  0 0.80108214E+03</rscale>
<asrwt>0</asrwt>
<pdfrwt beam="1">  1        2 0.41250179E-01 0.80108214E+03</pdfrwt>
<pdfrwt beam="2">  1       -2 0.92053766E-01 0.80108214E+03</pdfrwt>
<totfact> 0.12573779E+02</totfact>
</mgrwt>
</event>
<event>
 6    1  0.1817112E-005  0.1346692E+04  0.7818608E-02  0.8993336E-01
          2   -1    0    0  501    0  0.00000000000E+00  0.00000000000E+00  0.16463151239E+04  0.16463151239E+04  0.00000000000E+00 0. -1.
         -2   -1    0    0    0  501 -0.00000000000E+00 -0.00000000000E+00 -0.27539980548E+03  0.27539980548E+03  0.00000000000E+00 0.  1.
         23    2    1    2    0    0  0.62352480928E+02  0.16682777362E+03  0.16107631269E+04  0.16229737216E+04  0.88127817520E+02 0.  0.
         11    1    3    3    0    0  0.66464520907E+02  0.84381979452E+02  0.66547630742E+03  0.67408943526E+03  0.00000000000E+00 0. -1.
        -11    1    3    3    0    0 -0.41120399799E+01  0.82445794171E+02  0.94528681947E+03  0.94888428637E+03  0.00000000000E+00 0.  1.
         22    1    1    2    0    0 -0.62352480928E+02 -0.16682777362E+03 -0.23984780852E+03  0.29874120771E+03  0.00000000000E+00 0.  1.
<mgrwt>
<rscale>  0 0.13466920E+04</rscale>
<asrwt>0</asrwt>
<pdfrwt beam="1">  1        2 0.25327924E+00 0.13466920E+04</pdfrwt>
<pdfrwt beam="2">  1       -2 0.42369202E-01 0.13466920E+04</pdfrwt>
<totfact> 0.54189206E+01</totfact>
</mgrwt>
</event>
<event>
 6    1  0.1817112E-005  0.2676333E+04  0.7818608E-02  0.8342725E-01
          2   -1    0    0  501    0  0.00000000000E+00  0.00000000000E+00  0.86535157536E+03  0.86535157536E+03  0.00000000000E+00 0. -1.
         -2   -1    0    0    0  501 -0.00000000000E+00 -0.00000000000E+00 -0.20693208311E+04  0.20693208311E+04  0.00000000000E+00 0.  1.
         23    2    1    2    0    0  0.31348980468E+03 -0.28602447957E+03 -0.19924004983E+04  0.20392899827E+04  0.94646857261E+02 0.  0.
         13    1    3    3    0    0  0.17400272278E+03 -0.20109402147E+03 -0.10703789535E+04  0.11029174299E+04  0.00000000000E+00 0. -1.
        -13    1    3    3    0    0  0.13948708190E+03 -0.84930458099E+02 -0.92202154478E+03  0.93637255287E+03  0.00000000000E+00 0.  1.
         22    1    1    2    0    0 -0.31348980468E+03  0.28602447957E+03  0.78843124252E+03  0.89538242374E+03  0.00000000000E+00 0. -1.
<mgrwt>
<rscale>  0 0.26763333E+04</rscale>
<asrwt>0</asrwt>
<pdfrwt beam="1">  1        2 0.13313101E+00 0.26763333E+04</pdfrwt>
<pdfrwt beam="2">  1       -2 0.31835705E+00 0.26763333E+04</pdfrwt>
<totfact> 0.66725105E-01</totfact>
</mgrwt>
</event>
<event>
 6    1  0.1817112E-005  0.1815143E+04  0.7818608E-02  0.8698288E-01
         -4   -1    0    0    0  501 -0.00000000000E+00  0.00000000000E+00  0.78296436067E+03  0.78296436067E+03  0.00000000000E+00 0.  1.
          4   -1    0    0  501    0  0.00000000000E+00 -0.00000000000E+00 -0.10520095168E+04  0.10520095168E+04  0.00000000000E+00 0. -1.
         23    2    1    2    0    0 -0.71899117254E+03  0.10783323550E+03  0.41049820590E+03  0.83980781405E+03  0.90510080237E+02 0.  0.
         11    1    3    3    0    0 -0.14956314373E+03 -0.73356304290E+01  0.60053008355E+02  0.16133601349E+03  0.00000000000E+00 0.  1.
        -11    1    3    3    0    0 -0.56942802881E+03  0.11516886593E+03  0.35044519755E+03  0.67847180056E+03  0.00000000000E+00 0. -1.
         22    1    1    2    0    0  0.71899117254E+03 -0.10783323550E+03 -0.67954336203E+03  0.99516606340E+03  0.00000000000E+00 0. -1.
<mgrwt>
<rscale>  0 0.18151429E+04</rscale>
<asrwt>0</asrwt>
<pdfrwt beam="1">  1        4 0.16184762E+00 0.18151429E+04</pdfrwt>
<pdfrwt beam="2">  1       -4 0.12045606E+00 0.18151429E+04</pdfrwt>
<totfact> 0.23987243E-01</totfact>
</mgrwt>
</event>
<event>
 6    1  0.1817112E-005  0.2584509E+04  0.7818608E-02  0.8373482E-01
          2   -1    0    0  501    0  0.00000000000E+00  0.00000000000E+00  0.12799900775E+04  0.12799900775E+04  0.00000000000E+00 0. -1.
         -2   -1    0    0    0  501 -0.00000000000E+00 -0.00000000000E+00 -0.13046367559E+04  0.13046367559E+04  0.00000000000E+00 0.  1.
         23    2    1    2    0    0  0.56012349867E+03  0.64651553097E+03 -0.97900737297E+03  0.13030165179E+04  0.87612464352E+02 0.  0.
         13    1    3    3    0    0  0.44237402228E+03  0.45172294981E+03 -0.71721307192E+03  0.95610825198E+03  0.00000000000E+00 0.  1.
        -13    1    3    3    0    0  0.11774947639E+03  0.19479258117E+03 -0.26179430105E+03  0.34690826587E+03  0.00000000000E+00 0. -1.
         22    1    1    2    0    0 -0.56012349867E+03 -0.64651553097E+03  0.95436069455E+03  0.12816103155E+04  0.00000000000E+00 0. -1.
<mgrwt>
<rscale>  0 0.25845093E+04</rscale>
<asrwt>0</asrwt>
<pdfrwt beam="1">  1        2 0.19692155E+00 0.25845093E+04</pdfrwt>
<pdfrwt beam="2">  1       -2 0.20071335E+00 0.25845093E+04</pdfrwt>
<totfact> 0.19791601E+00</totfact>
</mgrwt>
</event>
<event>
 6    1  0.1817112E-005  0.4416883E+04  0.7818608E-02  0.7925352E-01
          2   -1    0    0  501    0  0.00000000000E+00  0.00000000000E+00  0.37126622259E+04  0.37126622259E+04  0.00000000000E+00 0. -1.
         -2   -1    0    0    0  501 -0.00000000000E+00 -0.00000000000E+00 -0.13136701657E+04  0.13136701657E+04  0.00000000000E+00 0.  1.
         23    2    1    2    0    0 -0.36128858416E+03  0.17861230760E+04 -0.21795118145E+03  0.18374208197E+04  0.88585933672E+02 0.  0.
         11    1    3    3    0    0 -0.26061731815E+03  0.13467154101E+04 -0.20062912240E+03  0.13862957214E+04  0.00000000000E+00 0.  1.
        -11    1    3    3    0    0 -0.10067126601E+03  0.43940766586E+03 -0.17322059052E+02  0.45112509833E+03  0.00000000000E+00 0. -1.
         22    1    1    2    0    0  0.36128858416E+03 -0.17861230760E+04  0.26169432416E+04  0.31889115719E+04  0.00000000000E+00 0. -1.
<mgrwt>
<rscale>  0 0.44168829E+04</rscale>
<asrwt>0</asrwt>
<pdfrwt beam="1">  1        2 0.57117880E+00 0.44168829E+04</pdfrwt>
<pdfrwt beam="2">  1       -2 0.20210310E+00 0.44168829E+04</pdfrwt>
<totfact> 0.55989658E-02</totfact>
</mgrwt>
</event>
<event>
 6    1  0.1817112E-005  0.1080278E+04  0.7818608E-02  0.9224630E-01
         -2   -1    0    0    0  501 -0.00000000000E+00  0.00000000000E+00  0.78905463745E+03  0.78905463745E+03  0.00000000000E+00 0.  1.
          2   -1    0    0  501    0  0.00000000000E+00 -0.00000000000E+00 -0.36974655885E+03  0.36974655885E+03  0.00000000000E+00 0. -1.
         23    2    1    2    0    0 -0.15148155371E+03 -0.27210384552E+03 -0.25734885755E+03  0.41391746504E+03  0.90067027936E+02 0.  0.
         11    1    3    3    0    0 -0.10221399507E+03 -0.13626387053E+03 -0.18782969835E+03  0.25356564985E+03  0.00000000000E+00 0.  1.
        -11    1    3    3    0    0 -0.49267558639E+02 -0.13583997499E+03 -0.69519159200E+02  0.16035181519E+03  0.00000000000E+00 0. -1.
         22    1    1    2    0    0  0.15148155371E+03  0.27210384552E+03  0.67665693615E+03  0.74488373126E+03  0.00000000000E+00 0.  1.
<mgrwt>
<rscale>  0 0.10802782E+04</rscale>
<asrwt>0</asrwt>
<pdfrwt beam="1">  1        2 0.56884086E-01 0.10802782E+04</pdfrwt>
<pdfrwt beam="2">  1       -2 0.12139302E+00 0.10802782E+04</pdfrwt>
<totfact> 0.44540576E+01</totfact>
</mgrwt>
</event>
<event>
 6    1  0.1817112E-005  0.2532610E+04  0.7818608E-02  0.8391459E-01
         -2   -1    0    0    0  501 -0.00000000000E+00  0.00000000000E+00  0.74855095286E+03  0.74855095286E+03  0.00000000000E+00 0.  1.
          2   -1    0    0  501    0  0.00000000000E+00 -0.00000000000E+00 -0.21421758883E+04  0.21421758883E+04  0.00000000000E+00 0. -1.
         23    2    1    2    0    0  0.33298438764E+03  0.57941052521E+03 -0.19232054450E+04  0.20380541752E+04  0.91380952031E+02 0.  0.
         13    1    3    3    0    0  0.15177149001E+02  0.50126926123E+02 -0.22776682161E+03  0.23371088892E+03  0.00000000000E+00 0.  1.
        -13    1    3    3    0    0  0.31780723863E+03  0.52928359908E+03 -0.16954386234E+04  0.18043432863E+04  0.00000000000E+00 0. -1.
         22    1    1    2    0    0 -0.33298438764E+03 -0.57941052521E+03  0.52958050955E+03  0.85267266593E+03  0.00000000000E+00 0.  1.
<mgrwt>
<rscale>  0 0.25326096E+04</rscale>
<asrwt>0</asrwt>
<pdfrwt beam="1">  1        2 0.32956552E+00 0.25326096E+04</pdfrwt>
<pdfrwt beam="2">  1       -2 0.11516169E+00 0.25326096E+04</pdfrwt>
<totfact> 0.29084730E+00</totfact>
</mgrwt>
</event>
<event>
 6    1  0.1817112E-005  0.1210636E+04  0.7818608E-02  0.9103598E-01
         -2   -1    0    0    0  501 -0.00000000000E+00  0.00000000000E+00  0.21659760843E+03  0.21659760843E+03  0.00000000000E+00 0.  1.
          2   -1    0    0  501    0  0.00000000000E+00 -0.00000000000E+00 -0.16916606983E+04  0.16916606983E+04  0.00000000000E+00 0. -1.
         23    2    1    2    0    0  0.53355411130E+03 -0.10933885101E+03 -0.33720283415E+03  0.64676675481E+03  0.89255306489E+02 0.  0.
         13    1    3    3    0    0  0.18334671205E+03 -0.65703951952E+02 -0.82382898090E+02  0.21147096259E+03  0.00000000000E+00 0.  1.
        -13    1    3    3    0    0  0.35020739926E+03 -0.43634899059E+02 -0.25481993606E+03  0.43529579222E+03  0.00000000000E+00 0. -1.
         22    1    1    2    0    0 -0.53355411130E+03  0.10933885101E+03 -0.11378602557E+04  0.12614915519E+04  0.00000000000E+00 0. -1.
<mgrwt>
<rscale>  0 0.12106356E+04</rscale>
<asrwt>0</asrwt>
<pdfrwt beam="1">  1        2 0.26025549E+00 0.12106356E+04</pdfrwt>
<pdfrwt beam="2">  1       -2 0.33322710E-01 0.12106356E+04</pdfrwt>
<totfact> 0.82217949E+01</totfact>
</mgrwt>
</event>
<event>
 6    1  0.1817112E-005  0.1085481E+04  0.7818608E-02  0.9219460E-01
          2   -1    0    0  501    0  0.00000000000E+00  0.00000000000E+00  0.23602437760E+03  0.23602437760E+03  0.00000000000E+00 0. -1.
         -2   -1    0    0    0  501 -0.00000000000E+00 -0.00000000000E+00 -0.12480371486E+04  0.12480371486E+04  0.00000000000E+00 0.  1.
         23    2    1    2    0    0  0.44539857655E+03  0.12593167804E+03 -0.13171835048E+03  0.48949782972E+03  0.89552900152E+02 0.  0.
         13    1    3    3    0    0  0.87458222046E+02 -0.10996810989E+02 -0.21624465725E+02  0.90760608048E+02  0.00000000000E+00 0. -1.
        -13    1    3    3    0    0  0.35794035450E+03  0.13692848903E+03 -0.11009388475E+03  0.39873722168E+03  0.00000000000E+00 0.  1.
         22    1    1    2    0    0 -0.44539857655E+03 -0.12593167804E+03 -0.88029442048E+03  0.99456369642E+03  0.00000000000E+00 0.  1.
<mgrwt>
<rscale>  0 0.10854809E+04</rscale>
<asrwt>0</asrwt>
<pdfrwt beam="1">  1        2 0.36311443E-01 0.10854809E+04</pdfrwt>
<pdfrwt beam="2">  1       -2 0.19200571E+00 0.10854809E+04</pdfrwt>
<totfact> 0.21431325E+01</totfact>
</mgrwt>
</event>
<event>
 6    1  0.1817112E-005  0.3815274E+04  0.7818608E-02  0.8042885E-01
          2   -1    0    0  501    0  0.00000000000E+00  0.00000000000E+00  0.12154832803E+04  0.12154832803E+04  0.00000000000E+00 0. -1.
         -2   -1    0    0    0  501 -0.00000000000E+00 -0.00000000000E+00 -0.29939363015E+04  0.29939363015E+04  0.00000000000E+00 0.  1.
         23    2    1    2    0    0  0.18610043771E+04  0.36882322701E+03 -0.10982121438E+04  0.21939554874E+04  0.89458948671E+02 0.  0.
         13    1    3    3    0    0  0.62525115346E+03  0.14197616720E+03 -0.32700790611E+03  0.71974329286E+03  0.00000000000E+00 0.  1.
        -13    1    3    3    0    0  0.12357532236E+04  0.22684705980E+03 -0.77120423765E+03  0.14742121945E+04  0.00000000000E+00 0. -1.
         22    1    1    2    0    0 -0.18610043771E+04 -0.36882322701E+03 -0.68024087744E+03  0.20154640944E+04  0.00000000000E+00 0. -1.
<mgrwt>
<rscale>  0 0.38152743E+04</rscale>
<asrwt>0</asrwt>
<pdfrwt beam="1">  1        2 0.18699743E+00 0.38152743E+04</pdfrwt>
<pdfrwt beam="2">  1       -2 0.46060558E+00 0.38152743E+04</pdfrwt>
<totfact> 0.43854085E-02</totfact>
</mgrwt>
</event>
<event>
 6    1  0.1817112E-005  0.4674273E+04  0.7818608E-02  0.7880817E-01
          2   -1    0    0  501    0  0.00000000000E+00  0.00000000000E+00  0.15540334917E+04  0.15540334917E+04  0.00000000000E+00 0. -1.
         -2   -1    0    0    0  501 -0.00000000000E+00 -0.00000000000E+00 -0.35148573535E+04  0.35148573535E+04  0.00000000000E+00 0.  1.
         23    2    1    2    0    0  0.19131905650E+04 -0.12830820659E+04 -0.55877525272E+03  0.23721635643E+04  0.91282347361E+02 0.  0.
         11    1    3    3    0    0  0.10425885102E+04 -0.70417743609E+03 -0.35170321192E+03  0.13063505702E+04  0.00000000000E+00 0. -1.
        -11    1    3    3    0    0  0.87060205480E+03 -0.57890462978E+03 -0.20707204080E+03  0.10658129940E+04  0.00000000000E+00 0.  1.
         22    1    1    2    0    0 -0.19131905650E+04  0.12830820659E+04 -0.14020486091E+04  0.26967272810E+04  0.00000000000E+00 0. -1.
<mgrwt>
<rscale>  0 0.46742726E+04</rscale>
<asrwt>0</asrwt>
<pdfrwt beam="1">  1        2 0.23908208E+00 0.46742726E+04</pdfrwt>
<pdfrwt beam="2">  1       -2 0.54074728E+00 0.46742726E+04</pdfrwt>
<totfact> 0.85031470E-03</totfact>
</mgrwt>
</event>
<event>
 6    1  0.1817112E-005  0.1322355E+04  0.7818608E-02  0.9012023E-01
          2   -1    0    0  501    0  0.00000000000E+00  0.00000000000E+00  0.21430206186E+04  0.21430206186E+04  0.00000000000E+00 0.  1.
         -2   -1    0    0    0  501 -0.00000000000E+00 -0.00000000000E+00 -0.20399033058E+03  0.20399033058E+03  0.00000000000E+00 0. -1.
         23    2    1    2    0    0  0.61343958691E+03 -0.79161534871E+02  0.57557055347E+03  0.84981452814E+03  0.91261135352E+02 0.  0.
         11    1    3    3    0    0  0.23621791679E+03 -0.25219044931E+02  0.28237874873E+03  0.36901580207E+03  0.00000000000E+00 0. -1.
        -11    1    3    3    0    0  0.37722167012E+03 -0.53942489940E+02  0.29319180474E+03  0.48079872608E+03  0.00000000000E+00 0.  1.
         22    1    1    2    0    0 -0.61343958691E+03  0.79161534871E+02  0.13634597345E+04  0.14971964210E+04  0.00000000000E+00 0. -1.
<mgrwt>
<rscale>  0 0.13223547E+04</rscale>
<asrwt>0</asrwt>
<pdfrwt beam="1">  1        2 0.32969546E+00 0.13223547E+04</pdfrwt>
<pdfrwt beam="2">  1       -2 0.31383129E-01 0.13223547E+04</pdfrwt>
<totfact> 0.51348018E+01</totfact>
</mgrwt>
</event>
<event>
 6    1  0.1817112E-005  0.9659573E+03  0.7818608E-02  0.9346691E-01
         -2   -1    0    0    0  501 -0.00000000000E+00  0.00000000000E+00  0.18598194160E+03  0.18598194160E+03  0.00000000000E+00 0.  1.
          2   -1    0    0  501    0  0.00000000000E+00 -0.00000000000E+00 -0.12542527788E+04  0.12542527788E+04  0.00000000000E+00 0. -1.
         23    2    1    2    0    0 -0.41564095465E+03  0.11568953988E+03 -0.22915661082E+03  0.49670191348E+03  0.89769514561E+02 0.  0.
         13    1    3    3    0    0 -0.27078603946E+03  0.89270773144E+02 -0.10414347469E+03  0.30354606475E+03  0.00000000000E+00 0.  1.
        -13    1    3    3    0    0 -0.14485491519E+03  0.26418766740E+02 -0.12501313614E+03  0.19315584873E+03  0.00000000000E+00 0. -1.
         22    1    1    2    0    0  0.41564095465E+03 -0.11568953988E+03 -0.83911422641E+03  0.94353280694E+03  0.00000000000E+00 0. -1.
<mgrwt>
<rscale>  0 0.96595728E+03</rscale>
<asrwt>0</asrwt>
<pdfrwt beam="1">  1        2 0.19296197E+00 0.96595728E+03</pdfrwt>
<pdfrwt beam="2">  1       -2 0.28612606E-01 0.96595728E+03</pdfrwt>
<totfact> 0.19665025E+02</totfact>
</mgrwt>
</event>
<event>
 6    1  0.1817112E-005  0.2383694E+04  0.7818608E-02  0.8445634E-01
          2   -1    0    0  501    0  0.00000000000E+00  0.00000000000E+00  0.29876693877E+04  0.29876693877E+04  0.00000000000E+00 0.  1.
         -2   -1    0    0    0  501 -0.00000000000E+00 -0.00000000000E+00 -0.47545391844E+03  0.47545391844E+03  0.00000000000E+00 0. -1.
         23    2    1    2    0    0 -0.10865209006E+03 -0.56258735614E+01  0.29797277446E+04  0.29831184576E+04  0.91549839718E+02 0.  0.
         11    1    3    3    0    0 -0.31440248641E+02 -0.40655416065E+02  0.15718522802E+04  0.15726922594E+04  0.00000000000E+00 0. -1.
        -11    1    3    3    0    0 -0.77211841419E+02  0.35029542503E+02  0.14078754643E+04  0.14104261981E+04  0.00000000000E+00 0.  1.
         22    1    1    2    0    0  0.10865209006E+03  0.56258735614E+01 -0.46751227528E+03  0.48000484858E+03  0.00000000000E+00 0. -1.
<mgrwt>
<rscale>  0 0.23836939E+04</rscale>
<asrwt>0</asrwt>
<pdfrwt beam="1">  1        2 0.45964143E+00 0.23836939E+04</pdfrwt>
<pdfrwt beam="2">  1       -2 0.73146758E-01 0.23836939E+04</pdfrwt>
<totfact> 0.26948369E+00</totfact>
</mgrwt>
</event>
<event>
 6    1  0.1817112E-005  0.1226527E+04  0.7818608E-02  0.9089949E-01
          2   -1    0    0  501    0  0.00000000000E+00  0.00000000000E+00  0.67674429441E+03  0.67674429441E+03  0.00000000000E+00 0. -1.
         -2   -1    0    0    0  501 -0.00000000000E+00 -0.00000000000E+00 -0.55573723505E+03  0.55573723505E+03  0.00000000000E+00 0.  1.
         23    2    1    2    0    0  0.23610406768E+03  0.56078520087E+03  0.18664016383E+02  0.61547320640E+03  0.90740013248E+02 0.  0.
         13    1    3    3    0    0  0.10181369797E+03  0.35313548507E+03  0.54064778502E+00  0.36752005688E+03  0.00000000000E+00 0.  1.
        -13    1    3    3    0    0  0.13429036971E+03  0.20764971579E+03  0.18123368598E+02  0.24795314952E+03  0.00000000000E+00 0. -1.
         22    1    1    2    0    0 -0.23610406768E+03 -0.56078520087E+03  0.10234304298E+03  0.61700832306E+03  0.00000000000E+00 0.  1.
<mgrwt>
<rscale>  0 0.12265268E+04</rscale>
<asrwt>0</asrwt>
<pdfrwt beam="1">  1        2 0.10411451E+00 0.12265268E+04</pdfrwt>
<pdfrwt beam="2">  1       -2 0.85498037E-01 0.12265268E+04</pdfrwt>
<totfact> 0.50099448E+01</totfact>
</mgrwt>
</event>
<event>
 6    1  0.1817112E-005  0.4684511E+04  0.7818608E-02  0.7879107E-01
          2   -1    0    0  501    0  0.00000000000E+00  0.00000000000E+00  0.18083828707E+04  0.18083828707E+04  0.00000000000E+00 0. -1.
         -2   -1    0    0    0  501 -0.00000000000E+00 -0.00000000000E+00 -0.30337380262E+04  0.30337380262E+04  0.00000000000E+00 0.  1.
         23    2    1    2    0    0  0.94635976044E+03  0.12383018420E+03 -0.28228456159E+04  0.29812322700E+04  0.91420816605E+02 0.  0.
         11    1    3    3    0    0  0.18370352124E+03  0.23768494026E+02 -0.44298313154E+03  0.48015203826E+03  0.00000000000E+00 0. -1.
        -11    1    3    3    0    0  0.76265623920E+03  0.10006169018E+03 -0.23798624844E+04  0.25010802317E+04  0.00000000000E+00 0.  1.
         22    1    1    2    0    0 -0.94635976044E+03 -0.12383018420E+03  0.15974904604E+04  0.18608886269E+04  0.00000000000E+00 0. -1.
<mgrwt>
<rscale>  0 0.46845106E+04</rscale>
<asrwt>0</asrwt>
<pdfrwt beam="1">  1        2 0.27821275E+00 0.46845106E+04</pdfrwt>
<pdfrwt beam="2">  1       -2 0.46672892E+00 0.46845106E+04</pdfrwt>
<totfact> 0.17212153E-02</totfact>
</mgrwt>
</event>
<event>
 6    1  0.1817112E-005  0.6214402E+04  0.7818608E-02  0.7664372E-01
         -2   -1    0    0    0  501 -0.00000000000E+00  0.00000000000E+00  0.26889951387E+04  0.26889951387E+04  0.00000000000E+00 0.  1.
          2   -1    0    0  501    0  0.00000000000E+00 -0.00000000000E+00 -0.35904480692E+04  0.35904480692E+04  0.00000000000E+00 0. -1.
         23    2    1    2    0    0  0.11128859292E+04 -0.28830128326E+04 -0.13127684945E+03  0.30945649874E+04  0.93918931915E+02 0.  0.
         13    1    3    3    0    0  0.10749110898E+04 -0.27275304228E+04 -0.12739994861E+03  0.29344653355E+04  0.00000000000E+00 0.  1.
        -13    1    3    3    0    0  0.37974839330E+02 -0.15548240972E+03 -0.38769008452E+01  0.16009965182E+03  0.00000000000E+00 0. -1.
         22    1    1    2    0    0 -0.11128859292E+04  0.28830128326E+04 -0.77017608097E+03  0.31848782205E+04  0.00000000000E+00 0.  1.
<mgrwt>
<rscale>  0 0.62144018E+04</rscale>
<asrwt>0</asrwt>
<pdfrwt beam="1">  1        2 0.55237663E+00 0.62144018E+04</pdfrwt>
<pdfrwt beam="2">  1       -2 0.41369156E+00 0.62144018E+04</pdfrwt>
<totfact> 0.28008678E-03</totfact>
</mgrwt>
</event>
<event>
 6    1  0.1817112E-005  0.8274842E+03  0.7818608E-02  0.9521065E-01
         -1   -1    0    0    0  501 -0.00000000000E+00  0.00000000000E+00  0.50631511914E+02  0.50631511914E+02  0.00000000000E+00 0.  1.
          1   -1    0    0  501    0  0.00000000000E+00 -0.00000000000E+00 -0.33809484337E+04  0.33809484337E+04  0.00000000000E+00 0. -1.
         23    2    1    2    0    0  0.71780575675E+02  0.97944246937E+02 -0.33038219833E+04  0.33072919401E+04  0.90524873924E+02 0.  0.
         11    1    3    3    0    0  0.48906628957E+00  0.53382792213E+02 -0.20282021229E+04  0.20289045845E+04  0.00000000000E+00 0. -1.
        -11    1    3    3    0    0  0.71291509386E+02  0.44561454724E+02 -0.12756198604E+04  0.12783873556E+04  0.00000000000E+00 0.  1.
         22    1    1    2    0    0 -0.71780575675E+02 -0.97944246937E+02 -0.26494938432E+02  0.12428800551E+03  0.00000000000E+00 0.  1.
<mgrwt>
<rscale>  0 0.82748421E+03</rscale>
<asrwt>0</asrwt>
<pdfrwt beam="1">  1        1 0.52014599E+00 0.82748421E+03</pdfrwt>
<pdfrwt beam="2">  1       -1 0.77894623E-02 0.82748421E+03</pdfrwt>
<totfact> 0.30662613E+01</totfact>
</mgrwt>
</event>
<event>
 6    1  0.1817112E-005  0.2332841E+04  0.7818608E-02  0.8465084E-01
         -2   -1    0    0    0  501 -0.00000000000E+00  0.00000000000E+00  0.15470894355E+04  0.15470894355E+04  0.00000000000E+00 0.  1.
          2   -1    0    0  501    0  0.00000000000E+00 -0.00000000000E+00 -0.87941737210E+03  0.87941737210E+03  0.00000000000E+00 0. -1.
         23    2    1    2    0    0  0.38585221064E+03  0.20843111144E+03  0.14563256344E+04  0.15241211297E+04  0.98668171480E+02 0.  0.
         13    1    3    3    0    0  0.11060770336E+03  0.10111508665E+03  0.39595626976E+03  0.42336708936E+03  0.00000000000E+00 0. -1.
        -13    1    3    3    0    0  0.27524450728E+03  0.10731602479E+03  0.10603693646E+04  0.11007540404E+04  0.00000000000E+00 0.  1.
         22    1    1    2    0    0 -0.38585221064E+03 -0.20843111144E+03 -0.78865357097E+03  0.90238567789E+03  0.00000000000E+00 0. -1.
<mgrwt>
<rscale>  0 0.23328415E+04</rscale>
<asrwt>0</asrwt>
<pdfrwt beam="1">  1        2 0.13529498E+00 0.23328415E+04</pdfrwt>
<pdfrwt beam="2">  1       -2 0.23801376E+00 0.23328415E+04</pdfrwt>
<totfact> 0.20862790E+00</totfact>
</mgrwt>
</event>
<event>
 6    1  0.1817112E-005  0.3217300E+04  0.7818608E-02  0.8184263E-01
         -2   -1    0    0    0  501 -0.00000000000E+00  0.00000000000E+00  0.10142262798E+04  0.10142262798E+04  0.00000000000E+00 0. -1.
          2   -1    0    0  501    0  0.00000000000E+00 -0.00000000000E+00 -0.25514565751E+04  0.25514565751E+04  0.00000000000E+00 0.  1.
         23    2    1    2    0    0 -0.14811071124E+04  0.61908650461E+03 -0.86162197169E+03  0.18240189994E+04  0.87786726183E+02 0.  0.
         11    1    3    3    0    0 -0.54177263512E+03  0.26427185652E+03 -0.29578811112E+03  0.67145201541E+03  0.00000000000E+00 0. -1.
        -11    1    3    3    0    0 -0.93933447730E+03  0.35481464809E+03 -0.56583386056E+03  0.11525669840E+04  0.00000000000E+00 0.  1.
         22    1    1    2    0    0  0.14811071124E+04 -0.61908650461E+03 -0.67560832365E+03  0.17416638555E+04  0.00000000000E+00 0. -1.
<mgrwt>
<rscale>  0 0.32172997E+04</rscale>
<asrwt>0</asrwt>
<pdfrwt beam="1">  1        2 0.39253178E+00 0.32172997E+04</pdfrwt>
<pdfrwt beam="2">  1       -2 0.15603481E+00 0.32172997E+04</pdfrwt>
<totfact> 0.73651679E-01</totfact>
</mgrwt>
</event>
<event>
 6    1  0.1817112E-005  0.3090333E+04  0.7818608E-02  0.8218396E-01
         -2   -1    0    0    0  501 -0.00000000000E+00  0.00000000000E+00  0.92825416916E+03  0.92825416916E+03  0.00000000000E+00 0.  1.
          2   -1    0    0  501    0  0.00000000000E+00 -0.00000000000E+00 -0.25720745936E+04  0.25720745936E+04  0.00000000000E+00 0. -1.
         23    2    1    2    0    0 -0.36990940159E+03  0.31020686916E+03 -0.24836021927E+04  0.25316726394E+04  0.89583672174E+02 0.  0.
         11    1    3    3    0    0 -0.81468575258E+02  0.11841299077E+03 -0.66086904946E+03  0.67631846469E+03  0.00000000000E+00 0. -1.
        -11    1    3    3    0    0 -0.28844082634E+03  0.19179387840E+03 -0.18227331433E+04  0.18553541747E+04  0.00000000000E+00 0.  1.
         22    1    1    2    0    0  0.36990940159E+03 -0.31020686916E+03  0.83978176827E+03  0.96865612339E+03  0.00000000000E+00 0.  1.
<mgrwt>
<rscale>  0 0.30903326E+04</rscale>
<asrwt>0</asrwt>
<pdfrwt beam="1">  1        2 0.39570377E+00 0.30903326E+04</pdfrwt>
<pdfrwt beam="2">  1       -2 0.14280834E+00 0.30903326E+04</pdfrwt>
<totfact> 0.91548334E-01</totfact>
</mgrwt>
</event>
<event>
 6    1  0.1817112E-005  0.3632700E+04  0.7818608E-02  0.8083042E-01
         -2   -1    0    0    0  501 -0.00000000000E+00  0.00000000000E+00  0.21990088076E+04  0.21990088076E+04  0.00000000000E+00 0.  1.
          2   -1    0    0  501    0  0.00000000000E+00 -0.00000000000E+00 -0.15002792192E+04  0.15002792192E+04  0.00000000000E+00 0. -1.
         23    2    1    2    0    0  0.15073606998E+04 -0.93527330125E+03 -0.41641044283E+02  0.17770442595E+04  0.96332217969E+02 0.  0.
         13    1    3    3    0    0  0.52753799579E+03 -0.32224378658E+03 -0.60245937484E+02  0.62110141521E+03  0.00000000000E+00 0. -1.
        -13    1    3    3    0    0  0.97982270404E+03 -0.61302951467E+03  0.18604893201E+02  0.11559428443E+04  0.00000000000E+00 0.  1.
         22    1    1    2    0    0 -0.15073606998E+04  0.93527330125E+03  0.74037063266E+03  0.19222437674E+04  0.00000000000E+00 0.  1.
<mgrwt>
<rscale>  0 0.36326999E+04</rscale>
<asrwt>0</asrwt>
<pdfrwt beam="1">  1        2 0.23081219E+00 0.36326999E+04</pdfrwt>
<pdfrwt beam="2">  1       -2 0.33830905E+00 0.36326999E+04</pdfrwt>
<totfact> 0.18997964E-01</totfact>
</mgrwt>
</event>
<event>
 6    1  0.1817112E-005  0.1722602E+04  0.7818608E-02  0.8748577E-01
          2   -1    0    0  501    0  0.00000000000E+00  0.00000000000E+00  0.22772922700E+04  0.22772922700E+04  0.00000000000E+00 0. -1.
         -2   -1    0    0    0  501 -0.00000000000E+00 -0.00000000000E+00 -0.32575512232E+03  0.32575512232E+03  0.00000000000E+00 0.  1.
         23    2    1    2    0    0 -0.80742665505E+03  0.12560035704E+03  0.13777623799E+04  0.16045832031E+04  0.93513781033E+02 0.  0.
         13    1    3    3    0    0 -0.33481106795E+03  0.39848651282E+02  0.48302464013E+03  0.58906635382E+03  0.00000000000E+00 0. -1.
        -13    1    3    3    0    0 -0.47261558710E+03  0.85751705762E+02  0.89473773979E+03  0.10155168493E+04  0.00000000000E+00 0.  1.
         22    1    1    2    0    0  0.80742665505E+03 -0.12560035704E+03  0.57377476774E+03  0.99846418918E+03  0.00000000000E+00 0.  1.
<mgrwt>
<rscale>  0 0.17226022E+04</rscale>
<asrwt>0</asrwt>
<pdfrwt beam="1">  1        2 0.35035265E+00 0.17226022E+04</pdfrwt>
<pdfrwt beam="2">  1       -2 0.50116174E-01 0.17226022E+04</pdfrwt>
<totfact> 0.16718653E+01</totfact>
</mgrwt>
</event>
<event>
 6    1  0.1817112E-005  0.4781581E+04  0.7818608E-02  0.7863113E-01
         -2   -1    0    0    0  501 -0.00000000000E+00  0.00000000000E+00  0.19237555632E+04  0.19237555632E+04  0.00000000000E+00 0.  1.
          2   -1    0    0  501    0  0.00000000000E+00 -0.00000000000E+00 -0.29712091614E+04  0.29712091614E+04  0.00000000000E+00 0. -1.
         23    2    1    2    0    0 -0.21662827343E+04 -0.73197041212E+02 -0.15545986435E+04  0.26689065967E+04  0.90259556007E+02 0.  0.
         13    1    3    3    0    0 -0.62184092278E+03  0.42415858954E+01 -0.48569154783E+03  0.78905031775E+03  0.00000000000E+00 0.  1.
        -13    1    3    3    0    0 -0.15444418116E+04 -0.77438627107E+02 -0.10689070957E+04  0.18798562789E+04  0.00000000000E+00 0. -1.
         22    1    1    2    0    0  0.21662827343E+04  0.73197041212E+02  0.50714504536E+03  0.22260581279E+04  0.00000000000E+00 0.  1.
<mgrwt>
<rscale>  0 0.47815814E+04</rscale>
<asrwt>0</asrwt>
<pdfrwt beam="1">  1        2 0.45710910E+00 0.47815814E+04</pdfrwt>
<pdfrwt beam="2">  1       -2 0.29596240E+00 0.47815814E+04</pdfrwt>
<totfact> 0.45209791E-02</totfact>
</mgrwt>
</event>
<event>
 6    1  0.1817112E-005  0.1596794E+04  0.7818608E-02  0.8822520E-01
         -2   -1    0    0    0  501 -0.00000000000E+00  0.00000000000E+00  0.35195710160E+03  0.35195710160E+03  0.00000000000E+00 0. -1.
          2   -1    0    0  501    0  0.00000000000E+00 -0.00000000000E+00 -0.18111235622E+04  0.18111235622E+04  0.00000000000E+00 0.  1.
         23    2    1    2    0    0 -0.38223355713E+03 -0.47489369962E+03 -0.14250356631E+04  0.15525141813E+04  0.89146643784E+02 0.  0.
         11    1    3    3    0    0 -0.22581632719E+03 -0.23387678302E+03 -0.84037510551E+03  0.90106696822E+03  0.00000000000E+00 0.  1.
        -11    1    3    3    0    0 -0.15641722994E+03 -0.24101691660E+03 -0.58466055757E+03  0.65144721312E+03  0.00000000000E+00 0. -1.
         22    1    1    2    0    0  0.38223355713E+03  0.47489369962E+03 -0.34130797496E+02  0.61056648243E+03  0.00000000000E+00 0. -1.
<mgrwt>
<rscale>  0 0.15967940E+04</rscale>
<asrwt>0</asrwt>
<pdfrwt beam="1">  1        2 0.27863439E+00 0.15967940E+04</pdfrwt>
<pdfrwt beam="2">  1       -2 0.54147248E-01 0.15967940E+04</pdfrwt>
<totfact> 0.26204123E+01</totfact>
</mgrwt>
</event>
<event>
 6    1  0.1817112E-005  0.3348998E+04  0.7818608E-02  0.8150538E-01
         -1   -1    0    0    0  501 -0.00000000000E+00  0.00000000000E+00  0.18118321483E+04  0.18118321483E+04  0.00000000000E+00 0.  1.
          1   -1    0    0  501    0  0.00000000000E+00 -0.00000000000E+00 -0.15475757688E+04  0.15475757688E+04  0.00000000000E+00 0. -1.
         23    2    1    2    0    0  0.39341115787E+03  0.66479430805E+03  0.16211620193E+04  0.17980249640E+04  0.89463215868E+02 0.  0.
         11    1    3    3    0    0  0.24561194058E+03  0.47581013748E+03  0.10543500056E+04  0.11825288354E+04  0.00000000000E+00 0.  1.
        -11    1    3    3    0    0  0.14779921729E+03  0.18898417057E+03  0.56681201369E+03  0.61549612852E+03  0.00000000000E+00 0. -1.
         22    1    1    2    0    0 -0.39341115787E+03 -0.66479430805E+03 -0.13569056398E+04  0.15613829532E+04  0.00000000000E+00 0. -1.
<mgrwt>
<rscale>  0 0.33489984E+04</rscale>
<asrwt>0</asrwt>
<pdfrwt beam="1">  1        1 0.23808858E+00 0.33489984E+04</pdfrwt>
<pdfrwt beam="2">  1       -1 0.27874340E+00 0.33489984E+04</pdfrwt>
<totfact> 0.22719049E-01</totfact>
</mgrwt>
</event>
<event>
 6    1  0.1817112E-005  0.2360603E+04  0.7818608E-02  0.8454402E-01
          2   -1    0    0  501    0  0.00000000000E+00  0.00000000000E+00  0.41236124663E+03  0.41236124663E+03  0.00000000000E+00 0. -1.
         -2   -1    0    0    0  501 -0.00000000000E+00 -0.00000000000E+00 -0.33783760098E+04  0.33783760098E+04  0.00000000000E+00 0.  1.
         23    2    1    2    0    0  0.59287128465E+03  0.93511488517E+03 -0.83650843241E+03  0.13905844652E+04  0.89680480862E+02 0.  0.
         13    1    3    3    0    0  0.11494444925E+03  0.18599010262E+03 -0.12216014214E+03  0.25045487621E+03  0.00000000000E+00 0.  1.
        -13    1    3    3    0    0  0.47792683541E+03  0.74912478254E+03 -0.71434829026E+03  0.11401295890E+04  0.00000000000E+00 0. -1.
         22    1    1    2    0    0 -0.59287128465E+03 -0.93511488517E+03 -0.21295063307E+04  0.24001527912E+04  0.00000000000E+00 0. -1.
<mgrwt>
<rscale>  0 0.23606028E+04</rscale>
<asrwt>0</asrwt>
<pdfrwt beam="1">  1        2 0.63440189E-01 0.23606028E+04</pdfrwt>
<pdfrwt beam="2">  1       -2 0.51975018E+00 0.23606028E+04</pdfrwt>
<totfact> 0.86294234E-02</totfact>
</mgrwt>
</event>
<event>
 6    1  0.3031770E-005  0.2268998E+04  0.7818608E-02  0.8490246E-01
          2   -1    0    0  501    0  0.00000000000E+00  0.00000000000E+00  0.17396077682E+04  0.17396077682E+04  0.00000000000E+00 0.  1.
         -2   -1    0    0    0  501 -0.00000000000E+00 -0.00000000000E+00 -0.73987280262E+03  0.73987280262E+03  0.00000000000E+00 0. -1.
         23    2    1    2    0    0 -0.38309642986E+03  0.43061700681E+03 -0.56593084885E+03  0.81109712461E+03  0.73531889312E+02 0.  0.
         11    1    3    3    0    0 -0.18315151528E+03  0.19171198278E+03 -0.30998385500E+03  0.40790679358E+03  0.00000000000E+00 0. -1.
        -11    1    3    3    0    0 -0.19994491458E+03  0.23890502403E+03 -0.25594699386E+03  0.40319033103E+03  0.00000000000E+00 0.  1.
         22    1    1    2    0    0  0.38309642986E+03 -0.43061700681E+03  0.15656658145E+04  0.16683834463E+04  0.00000000000E+00 0.  1.
<mgrwt>
<rscale>  0 0.22689984E+04</rscale>
<asrwt>0</asrwt>
<pdfrwt beam="1">  1        2 0.26763196E+00 0.22689984E+04</pdfrwt>
<pdfrwt beam="2">  1       -2 0.11382659E+00 0.22689984E+04</pdfrwt>
<totfact> 0.51229615E+00</totfact>
</mgrwt>
</event>
<event>
 6    1  0.1817112E-005  0.5028354E+04  0.7818608E-02  0.7824148E-01
         -2   -1    0    0    0  501 -0.00000000000E+00  0.00000000000E+00  0.21398781009E+04  0.21398781009E+04  0.00000000000E+00 0.  1.
          2   -1    0    0  501    0  0.00000000000E+00 -0.00000000000E+00 -0.29539473476E+04  0.29539473476E+04  0.00000000000E+00 0. -1.
         23    2    1    2    0    0 -0.75917064030E+03  0.96711086467E+03 -0.26277910157E+04  0.29026544965E+04  0.92054432067E+02 0.  0.
         13    1    3    3    0    0 -0.37203051419E+03  0.49447779839E+03 -0.14264017704E+04  0.15548430812E+04  0.00000000000E+00 0. -1.
        -13    1    3    3    0    0 -0.38714012611E+03  0.47263306628E+03 -0.12013892454E+04  0.13478114154E+04  0.00000000000E+00 0.  1.
         22    1    1    2    0    0  0.75917064030E+03 -0.96711086467E+03  0.18137217690E+04  0.21911709520E+04  0.00000000000E+00 0.  1.
<mgrwt>
<rscale>  0 0.50283545E+04</rscale>
<asrwt>0</asrwt>
<pdfrwt beam="1">  1        2 0.45445344E+00 0.50283545E+04</pdfrwt>
<pdfrwt beam="2">  1       -2 0.32921202E+00 0.50283545E+04</pdfrwt>
<totfact> 0.28359817E-02</totfact>
</mgrwt>
</event>
<event>
 6    1  0.1817112E-005  0.2067308E+04  0.7818608E-02  0.8575783E-01
          2   -1    0    0  501    0  0.00000000000E+00  0.00000000000E+00  0.26348801019E+04  0.26348801019E+04  0.00000000000E+00 0. -1.
         -2   -1    0    0    0  501 -0.00000000000E+00 -0.00000000000E+00 -0.40549894666E+03  0.40549894666E+03  0.00000000000E+00 0.  1.
         23    2    1    2    0    0 -0.52395108199E+03 -0.40571798103E+03  0.22796779840E+04  0.23758028021E+04  0.91517360797E+02 0.  0.
         13    1    3    3    0    0 -0.18359975527E+03 -0.19877350472E+03  0.93503094810E+03  0.97339747802E+03  0.00000000000E+00 0.  1.
        -13    1    3    3    0    0 -0.34035132672E+03 -0.20694447631E+03  0.13446470359E+04  0.14024053240E+04  0.00000000000E+00 0. -1.
         22    1    1    2    0    0  0.52395108199E+03  0.40571798103E+03 -0.50296828697E+02  0.66457624651E+03  0.00000000000E+00 0.  1.
<mgrwt>
<rscale>  0 0.20673085E+04</rscale>
<asrwt>0</asrwt>
<pdfrwt beam="1">  1        2 0.40536616E+00 0.20673085E+04</pdfrwt>
<pdfrwt beam="2">  1       -2 0.62384455E-01 0.20673085E+04</pdfrwt>
<totfact> 0.63984883E+00</totfact>
</mgrwt>
</event>
<event>
 6    1  0.1817112E-005  0.1902589E+04  0.7818608E-02  0.8653569E-01
          1   -1    0    0  501    0  0.00000000000E+00  0.00000000000E+00  0.81499443815E+03  0.81499443815E+03  0.00000000000E+00 0. -1.
         -1   -1    0    0    0  501 -0.00000000000E+00 -0.00000000000E+00 -0.11103890414E+04  0.11103890414E+04  0.00000000000E+00 0.  1.
         23    2    1    2    0    0 -0.83003769542E+03  0.38373001052E+03 -0.40482139343E+03  0.10044135999E+04  0.93568276085E+02 0.  0.
         13    1    3    3    0    0 -0.36700611889E+02  0.74765895037E+01 -0.36352834220E+02  0.52195429488E+02  0.00000000000E+00 0. -1.
        -13    1    3    3    0    0 -0.79333708353E+03  0.37625342102E+03 -0.36846855921E+03  0.95221817041E+03  0.00000000000E+00 0.  1.
         22    1    1    2    0    0  0.83003769542E+03 -0.38373001052E+03  0.10942679019E+03  0.92096987964E+03  0.00000000000E+00 0. -1.
<mgrwt>
<rscale>  0 0.19025887E+04</rscale>
<asrwt>0</asrwt>
<pdfrwt beam="1">  1        1 0.12538376E+00 0.19025887E+04</pdfrwt>
<pdfrwt beam="2">  1       -1 0.17082908E+00 0.19025887E+04</pdfrwt>
<totfact> 0.48696262E+00</totfact>
</mgrwt>
</event>
<event>
 6    1  0.1817112E-005  0.3509774E+03  0.7818608E-02  0.1062215E+00
         -2   -1    0    0    0  501 -0.00000000000E+00  0.00000000000E+00  0.35885133672E+03  0.35885133672E+03  0.00000000000E+00 0.  1.
          2   -1    0    0  501    0  0.00000000000E+00 -0.00000000000E+00 -0.85819078376E+02  0.85819078376E+02  0.00000000000E+00 0. -1.
         23    2    1    2    0    0 -0.16474860592E+02  0.11411929819E+03 -0.23538081518E+01  0.14612038433E+03  0.89727314981E+02 0.  0.
         13    1    3    3    0    0  0.34926467209E+02  0.33131577283E+02 -0.12289104228E+02  0.49684822710E+02  0.00000000000E+00 0.  1.
        -13    1    3    3    0    0 -0.51401327801E+02  0.80987720904E+02  0.99352960763E+01  0.96435561620E+02  0.00000000000E+00 0. -1.
         22    1    1    2    0    0  0.16474860592E+02 -0.11411929819E+03  0.27538606650E+03  0.29855003077E+03  0.00000000000E+00 0.  1.
<mgrwt>
<rscale>  0 0.35097744E+03</rscale>
<asrwt>0</asrwt>
<pdfrwt beam="1">  1        2 0.13202935E-01 0.35097744E+03</pdfrwt>
<pdfrwt beam="2">  1       -2 0.55207897E-01 0.35097744E+03</pdfrwt>
<totfact> 0.14356265E+03</totfact>
</mgrwt>
</event>
<event>
 6    1  0.1817112E-005  0.1647388E+04  0.7818608E-02  0.8791953E-01
         -2   -1    0    0    0  501 -0.00000000000E+00  0.00000000000E+00  0.29078850455E+04  0.29078850455E+04  0.00000000000E+00 0.  1.
          2   -1    0    0  501    0  0.00000000000E+00 -0.00000000000E+00 -0.23332126208E+03  0.23332126208E+03  0.00000000000E+00 0. -1.
         23    2    1    2    0    0  0.37120376454E+03  0.71905950066E+03  0.10763755163E+04  0.13498256843E+04  0.92770284009E+02 0.  0.
         11    1    3    3    0    0  0.33773836496E+03  0.66286416886E+03  0.10256806018E+04  0.12670741125E+04  0.00000000000E+00 0. -1.
        -11    1    3    3    0    0  0.33465399582E+02  0.56195331804E+02  0.50694914441E+02  0.82751571804E+02  0.00000000000E+00 0.  1.
         22    1    1    2    0    0 -0.37120376454E+03 -0.71905950066E+03  0.15981882671E+04  0.17913806232E+04  0.00000000000E+00 0. -1.
<mgrwt>
<rscale>  0 0.16473875E+04</rscale>
<asrwt>0</asrwt>
<pdfrwt beam="1">  1        2 0.35895581E-01 0.16473875E+04</pdfrwt>
<pdfrwt beam="2">  1       -2 0.44736691E+00 0.16473875E+04</pdfrwt>
<totfact> 0.50500788E-01</totfact>
</mgrwt>
</event>
<event>
 6    1  0.1817112E-005  0.2032620E+04  0.7818608E-02  0.8591520E-01
          2   -1    0    0  501    0  0.00000000000E+00  0.00000000000E+00  0.12971593484E+04  0.12971593484E+04  0.00000000000E+00 0.  1.
         -2   -1    0    0    0  501 -0.00000000000E+00 -0.00000000000E+00 -0.79626797794E+03  0.79626797794E+03  0.00000000000E+00 0. -1.
         23    2    1    2    0    0 -0.68271427255E+03 -0.74810354030E+03  0.18715495117E+03  0.10331498977E+04  0.81326812321E+02 0.  0.
         13    1    3    3    0    0 -0.57185645324E+03 -0.59941539621E+03  0.12667781875E+03  0.83807272363E+03  0.00000000000E+00 0. -1.
        -13    1    3    3    0    0 -0.11085781930E+03 -0.14868814409E+03  0.60477132421E+02  0.19507717406E+03  0.00000000000E+00 0.  1.
         22    1    1    2    0    0  0.68271427255E+03  0.74810354030E+03  0.31373641932E+03  0.10602774287E+04  0.00000000000E+00 0. -1.
<mgrwt>
<rscale>  0 0.20326204E+04</rscale>
<asrwt>0</asrwt>
<pdfrwt beam="1">  1        2 0.19956298E+00 0.20326204E+04</pdfrwt>
<pdfrwt beam="2">  1       -2 0.12250277E+00 0.20326204E+04</pdfrwt>
<totfact> 0.77567504E+00</totfact>
</mgrwt>
</event>
<event>
 6    1  0.1817112E-005  0.2462718E+04  0.7818608E-02  0.8416389E-01
          2   -1    0    0  501    0  0.00000000000E+00  0.00000000000E+00  0.18164402190E+04  0.18164402190E+04  0.00000000000E+00 0. -1.
         -2   -1    0    0    0  501 -0.00000000000E+00 -0.00000000000E+00 -0.83473413255E+03  0.83473413255E+03  0.00000000000E+00 0.  1.
         23    2    1    2    0    0 -0.76087886685E+02  0.10420716009E+04 -0.20646246428E+03  0.10689458305E+04  0.91191290731E+02 0.  0.
         11    1    3    3    0    0 -0.88845822336E+01  0.15239301233E+03 -0.63584709341E+02  0.16536499409E+03  0.00000000000E+00 0. -1.
        -11    1    3    3    0    0 -0.67203304451E+02  0.88967858855E+03 -0.14287775494E+03  0.90358083640E+03  0.00000000000E+00 0.  1.
         22    1    1    2    0    0  0.76087886685E+02 -0.10420716009E+04  0.11881685507E+04  0.15822285210E+04  0.00000000000E+00 0. -1.
<mgrwt>
<rscale>  0 0.24627177E+04</rscale>
<asrwt>0</asrwt>
<pdfrwt beam="1">  1        2 0.27945234E+00 0.24627177E+04</pdfrwt>
<pdfrwt beam="2">  1       -2 0.12842064E+00 0.24627177E+04</pdfrwt>
<totfact> 0.33863294E+00</totfact>
</mgrwt>
</event>
<event>
 6    1  0.1817112E-005  0.2536002E+04  0.7818608E-02  0.8390271E-01
          2   -1    0    0  501    0  0.00000000000E+00  0.00000000000E+00  0.18818802994E+04  0.18818802994E+04  0.00000000000E+00 0. -1.
         -2   -1    0    0    0  501 -0.00000000000E+00 -0.00000000000E+00 -0.85437261959E+03  0.85437261959E+03  0.00000000000E+00 0.  1.
         23    2    1    2    0    0 -0.19699132080E+03  0.63452620921E+03 -0.64870215700E+03  0.93316986277E+03  0.92533311050E+02 0.  0.
         11    1    3    3    0    0 -0.46886563591E+02  0.85264001772E+02 -0.60863555096E+02  0.11477226225E+03  0.00000000000E+00 0. -1.
        -11    1    3    3    0    0 -0.15010475721E+03  0.54926220744E+03 -0.58783860190E+03  0.81839760052E+03  0.00000000000E+00 0.  1.
         22    1    1    2    0    0  0.19699132080E+03 -0.63452620921E+03  0.16762098368E+04  0.18030830562E+04  0.00000000000E+00 0. -1.
<mgrwt>
<rscale>  0 0.25360024E+04</rscale>
<asrwt>0</asrwt>
<pdfrwt beam="1">  1        2 0.28952005E+00 0.25360024E+04</pdfrwt>
<pdfrwt beam="2">  1       -2 0.13144194E+00 0.25360024E+04</pdfrwt>
<totfact> 0.29186837E+00</totfact>
</mgrwt>
</event>
<event>
 6    1  0.1817112E-005  0.2585720E+04  0.7818608E-02  0.8373068E-01
          2   -1    0    0  501    0  0.00000000000E+00  0.00000000000E+00  0.26178696581E+04  0.26178696581E+04  0.00000000000E+00 0. -1.
         -2   -1    0    0    0  501 -0.00000000000E+00 -0.00000000000E+00 -0.63849104780E+03  0.63849104780E+03  0.00000000000E+00 0.  1.
         23    2    1    2    0    0 -0.78687903790E+03 -0.57987828108E+03 -0.71590798511E+02  0.98437634040E+03  0.91837334185E+02 0.  0.
         13    1    3    3    0    0 -0.43001793742E+03 -0.37211656871E+03 -0.50374153154E+02  0.57089729594E+03  0.00000000000E+00 0. -1.
        -13    1    3    3    0    0 -0.35686110048E+03 -0.20776171238E+03 -0.21216645357E+02  0.41347904446E+03  0.00000000000E+00 0.  1.
         22    1    1    2    0    0  0.78687903790E+03  0.57987828108E+03  0.20509694088E+04  0.22719843655E+04  0.00000000000E+00 0. -1.
<mgrwt>
<rscale>  0 0.25857195E+04</rscale>
<asrwt>0</asrwt>
<pdfrwt beam="1">  1        2 0.40274917E+00 0.25857195E+04</pdfrwt>
<pdfrwt beam="2">  1       -2 0.98229394E-01 0.25857195E+04</pdfrwt>
<totfact> 0.22661548E+00</totfact>
</mgrwt>
</event>
<event>
 6    1  0.1817112E-005  0.1180033E+04  0.7818608E-02  0.9130515E-01
          2   -1    0    0  501    0  0.00000000000E+00  0.00000000000E+00  0.52805926260E+03  0.52805926260E+03  0.00000000000E+00 0. -1.
         -2   -1    0    0    0  501 -0.00000000000E+00 -0.00000000000E+00 -0.65924358035E+03  0.65924358035E+03  0.00000000000E+00 0.  1.
         23    2    1    2    0    0  0.51368429351E+03 -0.21938058486E+03  0.11341729290E+03  0.57752473384E+03  0.93123259466E+02 0.  0.
         13    1    3    3    0    0  0.14466152690E+03 -0.29174718170E+02  0.16425443852E+01  0.14758326294E+03  0.00000000000E+00 0. -1.
        -13    1    3    3    0    0  0.36902276661E+03 -0.19020586669E+03  0.11177474851E+03  0.42994147091E+03  0.00000000000E+00 0.  1.
         22    1    1    2    0    0 -0.51368429351E+03  0.21938058486E+03 -0.24460161065E+03  0.60977810911E+03  0.00000000000E+00 0. -1.
<mgrwt>
<rscale>  0 0.11800334E+04</rscale>
<asrwt>0</asrwt>
<pdfrwt beam="1">  1        2 0.81239887E-01 0.11800334E+04</pdfrwt>
<pdfrwt beam="2">  1       -2 0.10142209E+00 0.11800334E+04</pdfrwt>
<totfact> 0.45593566E+01</totfact>
</mgrwt>
</event>
<event>
 6    1  0.1817112E-005  0.2482895E+04  0.7818608E-02  0.8409105E-01
         -1   -1    0    0    0  501 -0.00000000000E+00  0.00000000000E+00  0.47172108593E+03  0.47172108593E+03  0.00000000000E+00 0.  1.
          1   -1    0    0  501    0  0.00000000000E+00 -0.00000000000E+00 -0.32671685524E+04  0.32671685524E+04  0.00000000000E+00 0. -1.
         23    2    1    2    0    0  0.56592703798E+03 -0.34440755306E+03  0.17826247757E+03  0.69227827386E+03  0.92637587557E+02 0.  0.
         11    1    3    3    0    0  0.43932385603E+03 -0.23294916164E+03  0.16121494613E+03  0.52274374337E+03  0.00000000000E+00 0. -1.
        -11    1    3    3    0    0  0.12660318195E+03 -0.11145839142E+03  0.17047531441E+02  0.16953453049E+03  0.00000000000E+00 0.  1.
         22    1    1    2    0    0 -0.56592703798E+03  0.34440755306E+03 -0.29737099441E+04  0.30466113645E+04  0.00000000000E+00 0. -1.
<mgrwt>
<rscale>  0 0.24828953E+04</rscale>
<asrwt>0</asrwt>
<pdfrwt beam="1">  1        1 0.50264130E+00 0.24828953E+04</pdfrwt>
<pdfrwt beam="2">  1       -1 0.72572476E-01 0.24828953E+04</pdfrwt>
<totfact> 0.64474969E-01</totfact>
</mgrwt>
</event>
<event>
 6    1  0.1817112E-005  0.3308942E+04  0.7818608E-02  0.8160624E-01
         -2   -1    0    0    0  501 -0.00000000000E+00  0.00000000000E+00  0.17810121930E+04  0.17810121930E+04  0.00000000000E+00 0.  1.
          2   -1    0    0  501    0  0.00000000000E+00 -0.00000000000E+00 -0.15369208824E+04  0.15369208824E+04  0.00000000000E+00 0. -1.
         23    2    1    2    0    0 -0.33871207361E+03 -0.62291237620E+03 -0.13753224970E+04  0.15500963247E+04  0.92417249504E+02 0.  0.
         13    1    3    3    0    0 -0.15426538084E+03 -0.37692436432E+03 -0.76088478392E+03  0.86302690488E+03  0.00000000000E+00 0.  1.
        -13    1    3    3    0    0 -0.18444669277E+03 -0.24598801187E+03 -0.61443771304E+03  0.68706941983E+03  0.00000000000E+00 0. -1.
         22    1    1    2    0    0  0.33871207361E+03  0.62291237620E+03  0.16194138075E+04  0.17678367507E+04  0.00000000000E+00 0.  1.
<mgrwt>
<rscale>  0 0.33089423E+04</rscale>
<asrwt>0</asrwt>
<pdfrwt beam="1">  1        2 0.23644937E+00 0.33089423E+04</pdfrwt>
<pdfrwt beam="2">  1       -2 0.27400188E+00 0.33089423E+04</pdfrwt>
<totfact> 0.46264017E-01</totfact>
</mgrwt>
</event>
<event>
 6    1  0.1817112E-005  0.4991356E+03  0.7818608E-02  0.1014005E+00
         -1   -1    0    0    0  501 -0.00000000000E+00  0.00000000000E+00  0.11283256918E+03  0.11283256918E+03  0.00000000000E+00 0.  1.
          1   -1    0    0  501    0  0.00000000000E+00 -0.00000000000E+00 -0.55200452198E+03  0.55200452198E+03  0.00000000000E+00 0. -1.
         23    2    1    2    0    0  0.21723074299E+03  0.74921460544E+02 -0.32771729653E+03  0.40944609416E+03  0.86284741551E+02 0.  0.
         13    1    3    3    0    0  0.82484804421E+02 -0.11733557391E+02 -0.88577497793E+02  0.12160342283E+03  0.00000000000E+00 0. -1.
        -13    1    3    3    0    0  0.13474593857E+03  0.86655017935E+02 -0.23913979874E+03  0.28784267132E+03  0.00000000000E+00 0.  1.
         22    1    1    2    0    0 -0.21723074299E+03 -0.74921460544E+02 -0.11145465627E+03  0.25539099701E+03  0.00000000000E+00 0.  1.
<mgrwt>
<rscale>  0 0.49913561E+03</rscale>
<asrwt>0</asrwt>
<pdfrwt beam="1">  1        1 0.84923773E-01 0.49913561E+03</pdfrwt>
<pdfrwt beam="2">  1       -1 0.17358857E-01 0.49913561E+03</pdfrwt>
<totfact> 0.10035249E+03</totfact>
</mgrwt>
</event>
<event>
 6    1  0.1817112E-005  0.4033195E+04  0.7818608E-02  0.7997883E-01
         -2   -1    0    0    0  501 -0.00000000000E+00  0.00000000000E+00  0.89954455849E+03  0.89954455849E+03  0.00000000000E+00 0.  1.
          2   -1    0    0  501    0  0.00000000000E+00 -0.00000000000E+00 -0.45208054225E+04  0.45208054225E+04  0.00000000000E+00 0. -1.
         23    2    1    2    0    0  0.14822744498E+04 -0.38574208759E+03 -0.50777315492E+02  0.15352132687E+04  0.91470990147E+02 0.  0.
         11    1    3    3    0    0  0.17788594049E+03 -0.51248480151E+02 -0.35716317951E+02  0.18853506281E+03  0.00000000000E+00 0. -1.
        -11    1    3    3    0    0  0.13043885093E+04 -0.33449360744E+03 -0.15060997541E+02  0.13466782059E+04  0.00000000000E+00 0.  1.
         22    1    1    2    0    0 -0.14822744498E+04  0.38574208759E+03 -0.35704835485E+04  0.38851367122E+04  0.00000000000E+00 0. -1.
<mgrwt>
<rscale>  0 0.40331952E+04</rscale>
<asrwt>0</asrwt>
<pdfrwt beam="1">  1        2 0.69550852E+00 0.40331952E+04</pdfrwt>
<pdfrwt beam="2">  1       -2 0.13839147E+00 0.40331952E+04</pdfrwt>
<totfact> 0.33934796E-02</totfact>
</mgrwt>
</event>
<event>
 6    1  0.1817112E-005  0.9341019E+03  0.7818608E-02  0.9383928E-01
          2   -1    0    0  501    0  0.00000000000E+00  0.00000000000E+00  0.29634041079E+04  0.29634041079E+04  0.00000000000E+00 0. -1.
         -2   -1    0    0    0  501 -0.00000000000E+00 -0.00000000000E+00 -0.73610145841E+02  0.73610145841E+02  0.00000000000E+00 0.  1.
         23    2    1    2    0    0  0.36298783435E+03  0.28465261652E+03  0.15584718007E+04  0.16280408766E+04  0.94315759809E+02 0.  0.
         13    1    3    3    0    0  0.11880109182E+03  0.59459849293E+02  0.56890800713E+03  0.58421356854E+03  0.00000000000E+00 0.  1.
        -13    1    3    3    0    0  0.24418674252E+03  0.22519276723E+03  0.98956379353E+03  0.10438273081E+04  0.00000000000E+00 0. -1.
         22    1    1    2    0    0 -0.36298783435E+03 -0.28465261652E+03  0.13313221614E+04  0.14089733771E+04  0.00000000000E+00 0.  1.
<mgrwt>
<rscale>  0 0.93410194E+03</rscale>
<asrwt>0</asrwt>
<pdfrwt beam="1">  1        2 0.45590823E+00 0.93410194E+03</pdfrwt>
<pdfrwt beam="2">  1       -2 0.11324640E-01 0.93410194E+03</pdfrwt>
<totfact> 0.10607745E+02</totfact>
</mgrwt>
</event>
<event>
 6    1  0.1817112E-005  0.5774921E+03  0.7818608E-02  0.9953235E-01
         -2   -1    0    0    0  501 -0.00000000000E+00  0.00000000000E+00  0.27025641229E+03  0.27025641229E+03  0.00000000000E+00 0.  1.
          2   -1    0    0  501    0  0.00000000000E+00 -0.00000000000E+00 -0.30850071145E+03  0.30850071145E+03  0.00000000000E+00 0. -1.
         23    2    1    2    0    0  0.19175464047E+03 -0.14717757471E+03 -0.16399348349E+03  0.30627971551E+03  0.92099516104E+02 0.  0.
         11    1    3    3    0    0  0.20025481112E+02 -0.63555606456E+02 -0.30737760667E+02  0.73383546770E+02  0.00000000000E+00 0. -1.
        -11    1    3    3    0    0  0.17172915936E+03 -0.83621968250E+02 -0.13325572282E+03  0.23289616874E+03  0.00000000000E+00 0.  1.
         22    1    1    2    0    0 -0.19175464047E+03  0.14717757471E+03  0.12574918433E+03  0.27247740824E+03  0.00000000000E+00 0.  1.
<mgrwt>
<rscale>  0 0.57749215E+03</rscale>
<asrwt>0</asrwt>
<pdfrwt beam="1">  1        2 0.47461648E-01 0.57749215E+03</pdfrwt>
<pdfrwt beam="2">  1       -2 0.41577909E-01 0.57749215E+03</pdfrwt>
<totfact> 0.58748345E+02</totfact>
</mgrwt>
</event>
<event>
 6    1  0.1817112E-005  0.2243604E+04  0.7818608E-02  0.8500495E-01
          2   -1    0    0  501    0  0.00000000000E+00  0.00000000000E+00  0.32128605345E+04  0.32128605345E+04  0.00000000000E+00 0. -1.
         -2   -1    0    0    0  501 -0.00000000000E+00 -0.00000000000E+00 -0.39168815320E+03  0.39168815320E+03  0.00000000000E+00 0.  1.
         23    2    1    2    0    0  0.86907226788E+03 -0.68899367725E+03  0.11628018311E+04  0.16095068897E+04  0.91681161864E+02 0.  0.
         11    1    3    3    0    0  0.82029608610E+03 -0.67086529613E+03  0.11225664685E+04  0.15437297012E+04  0.00000000000E+00 0. -1.
        -11    1    3    3    0    0  0.48776181776E+02 -0.18128381117E+02  0.40235362645E+02  0.65777188430E+02  0.00000000000E+00 0.  1.
         22    1    1    2    0    0 -0.86907226788E+03  0.68899367725E+03  0.16583705502E+04  0.19950417980E+04  0.00000000000E+00 0.  1.
<mgrwt>
<rscale>  0 0.22436037E+04</rscale>
<asrwt>0</asrwt>
<pdfrwt beam="1">  1        2 0.49428622E+00 0.22436037E+04</pdfrwt>
<pdfrwt beam="2">  1       -2 0.60259718E-01 0.22436037E+04</pdfrwt>
<totfact> 0.29782200E+00</totfact>
</mgrwt>
</event>
<event>
 6    1  0.1817112E-005  0.1719632E+04  0.7818608E-02  0.8750246E-01
          4   -1    0    0  501    0  0.00000000000E+00  0.00000000000E+00  0.11449097443E+04  0.11449097443E+04  0.00000000000E+00 0. -1.
         -4   -1    0    0    0  501 -0.00000000000E+00 -0.00000000000E+00 -0.64571335215E+03  0.64571335215E+03  0.00000000000E+00 0.  1.
         23    2    1    2    0    0 -0.26527587717E+03 -0.45190691233E+03  0.95743351947E+03  0.10945107397E+04  0.81753695045E+02 0.  0.
         13    1    3    3    0    0 -0.11207448868E+03 -0.17597857270E+03  0.30213932928E+03  0.36717478585E+03  0.00000000000E+00 0.  1.
        -13    1    3    3    0    0 -0.15320138849E+03 -0.27592833963E+03  0.65529419019E+03  0.72733595383E+03  0.00000000000E+00 0. -1.
         22    1    1    2    0    0  0.26527587717E+03  0.45190691233E+03 -0.45823712731E+03  0.69611235678E+03  0.00000000000E+00 0.  1.
<mgrwt>
<rscale>  0 0.17196319E+04</rscale>
<asrwt>0</asrwt>
<pdfrwt beam="1">  1        4 0.17613996E+00 0.17196319E+04</pdfrwt>
<pdfrwt beam="2">  1       -4 0.99340516E-01 0.17196319E+04</pdfrwt>
<totfact> 0.30500892E-01</totfact>
</mgrwt>
</event>
<event>
 6    1  0.1817112E-005  0.1979089E+04  0.7818608E-02  0.8616460E-01
          2   -1    0    0  501    0  0.00000000000E+00  0.00000000000E+00  0.72745911530E+03  0.72745911530E+03  0.00000000000E+00 0. -1.
         -2   -1    0    0    0  501 -0.00000000000E+00 -0.00000000000E+00 -0.13460522806E+04  0.13460522806E+04  0.00000000000E+00 0.  1.
         23    2    1    2    0    0 -0.19482682078E+03 -0.53684810559E+03  0.53387721923E+03  0.78729548642E+03  0.92983434910E+02 0.  0.
         11    1    3    3    0    0 -0.16241044366E+03 -0.31814435969E+03  0.34266029952E+03  0.49498390547E+03  0.00000000000E+00 0.  1.
        -11    1    3    3    0    0 -0.32416377123E+02 -0.21870374590E+03  0.19121691970E+03  0.29231158095E+03  0.00000000000E+00 0. -1.
         22    1    1    2    0    0  0.19482682078E+03  0.53684810559E+03 -0.11524703845E+04  0.12862159095E+04  0.00000000000E+00 0.  1.
<mgrwt>
<rscale>  0 0.19790887E+04</rscale>
<asrwt>0</asrwt>
<pdfrwt beam="1">  1        2 0.11191679E+00 0.19790887E+04</pdfrwt>
<pdfrwt beam="2">  1       -2 0.20708497E+00 0.19790887E+04</pdfrwt>
<totfact> 0.43384137E+00</totfact>
</mgrwt>
</event>
<event>
 6    1  0.1817112E-005  0.2407862E+04  0.7818608E-02  0.8436566E-01
          2   -1    0    0  501    0  0.00000000000E+00  0.00000000000E+00  0.23252624692E+04  0.23252624692E+04  0.00000000000E+00 0. -1.
         -2   -1    0    0    0  501 -0.00000000000E+00 -0.00000000000E+00 -0.62334898824E+03  0.62334898824E+03  0.00000000000E+00 0.  1.
         23    2    1    2    0    0 -0.11084202565E+04  0.45924155299E+03  0.76225500638E+03  0.14246507237E+04  0.95387214770E+02 0.  0.
         11    1    3    3    0    0 -0.65298949260E+03  0.29193119863E+03  0.40356272028E+03  0.82126851357E+03  0.00000000000E+00 0. -1.
        -11    1    3    3    0    0 -0.45543076394E+03  0.16731035436E+03  0.35869228610E+03  0.60338221015E+03  0.00000000000E+00 0.  1.
         22    1    1    2    0    0  0.11084202565E+04 -0.45924155299E+03  0.93965847462E+03  0.15239607338E+04  0.00000000000E+00 0. -1.
<mgrwt>
<rscale>  0 0.24078621E+04</rscale>
<asrwt>0</asrwt>
<pdfrwt beam="1">  1        2 0.35773268E+00 0.24078621E+04</pdfrwt>
<pdfrwt beam="2">  1       -2 0.95899846E-01 0.24078621E+04</pdfrwt>
<totfact> 0.35928788E+00</totfact>
</mgrwt>
</event>
<event>
 6    1  0.1817112E-005  0.1667143E+04  0.7818608E-02  0.8780329E-01
         -2   -1    0    0    0  501 -0.00000000000E+00  0.00000000000E+00  0.70045939140E+03  0.70045939140E+03  0.00000000000E+00 0.  1.
          2   -1    0    0  501    0  0.00000000000E+00 -0.00000000000E+00 -0.99197979327E+03  0.99197979327E+03  0.00000000000E+00 0. -1.
         23    2    1    2    0    0  0.44577158620E+03 -0.60323549530E+03 -0.50965235448E+03  0.91129456387E+03  0.90038268886E+02 0.  0.
         11    1    3    3    0    0  0.32809902050E+03 -0.45003534876E+03 -0.42405893909E+03  0.70000483299E+03  0.00000000000E+00 0.  1.
        -11    1    3    3    0    0  0.11767256570E+03 -0.15320014654E+03 -0.85593415385E+02  0.21128973088E+03  0.00000000000E+00 0. -1.
         22    1    1    2    0    0 -0.44577158620E+03  0.60323549530E+03  0.21813195261E+03  0.78114462080E+03  0.00000000000E+00 0.  1.
<mgrwt>
<rscale>  0 0.16671431E+04</rscale>
<asrwt>0</asrwt>
<pdfrwt beam="1">  1        2 0.15261227E+00 0.16671431E+04</pdfrwt>
<pdfrwt beam="2">  1       -2 0.10776298E+00 0.16671431E+04</pdfrwt>
<totfact> 0.16793648E+01</totfact>
</mgrwt>
</event>
<event>
 6    1  0.1817112E-005  0.2024211E+04  0.7818608E-02  0.8595384E-01
         -2   -1    0    0    0  501 -0.00000000000E+00  0.00000000000E+00  0.39711012740E+03  0.39711012740E+03  0.00000000000E+00 0.  1.
          2   -1    0    0  501    0  0.00000000000E+00 -0.00000000000E+00 -0.25795293953E+04  0.25795293953E+04  0.00000000000E+00 0. -1.
         23    2    1    2    0    0  0.43646601558E+03 -0.85103543193E+03 -0.61521617948E+03  0.11406413175E+04  0.88361634893E+02 0.  0.
         13    1    3    3    0    0  0.21928379315E+03 -0.34454869570E+03 -0.28779918161E+03  0.49962741576E+03  0.00000000000E+00 0. -1.
        -13    1    3    3    0    0  0.21718222243E+03 -0.50648673623E+03 -0.32741699787E+03  0.64101390173E+03  0.00000000000E+00 0.  1.
         22    1    1    2    0    0 -0.43646601558E+03  0.85103543193E+03 -0.15672030884E+04  0.18359982052E+04  0.00000000000E+00 0. -1.
<mgrwt>
<rscale>  0 0.20242107E+04</rscale>
<asrwt>0</asrwt>
<pdfrwt beam="1">  1        2 0.39685068E+00 0.20242107E+04</pdfrwt>
<pdfrwt beam="2">  1       -2 0.61093865E-01 0.20242107E+04</pdfrwt>
<totfact> 0.72358166E+00</totfact>
</mgrwt>
</event>
<event>
 6    1  0.1817112E-005  0.6040820E+03  0.7818608E-02  0.9896973E-01
          2   -1    0    0  501    0  0.00000000000E+00  0.00000000000E+00  0.18202962075E+03  0.18202962075E+03  0.00000000000E+00 0. -1.
         -2   -1    0    0    0  501 -0.00000000000E+00 -0.00000000000E+00 -0.50117535088E+03  0.50117535088E+03  0.00000000000E+00 0.  1.
         23    2    1    2    0    0 -0.35733892379E+02  0.23677102117E+03 -0.35839533606E+03  0.44055716287E+03  0.91137090768E+02 0.  0.
         13    1    3    3    0    0 -0.21758685845E+02  0.95517448694E+02 -0.22656733491E+03  0.24683958488E+03  0.00000000000E+00 0.  1.
        -13    1    3    3    0    0 -0.13975206534E+02  0.14125357248E+03 -0.13182800115E+03  0.19371757799E+03  0.00000000000E+00 0. -1.
         22    1    1    2    0    0  0.35733892379E+02 -0.23677102117E+03  0.39249605936E+02  0.24264780876E+03  0.00000000000E+00 0. -1.
<mgrwt>
<rscale>  0 0.60408198E+03</rscale>
<asrwt>0</asrwt>
<pdfrwt beam="1">  1        2 0.28004557E-01 0.60408198E+03</pdfrwt>
<pdfrwt beam="2">  1       -2 0.77103899E-01 0.60408198E+03</pdfrwt>
<totfact> 0.29206596E+02</totfact>
</mgrwt>
</event>
<event>
 6    1  0.2535878E-005  0.2757711E+04  0.7818608E-02  0.8316519E-01
         -1   -1    0    0    0  501 -0.00000000000E+00  0.00000000000E+00  0.73162819441E+03  0.73162819441E+03  0.00000000000E+00 0.  1.
          1   -1    0    0  501    0  0.00000000000E+00 -0.00000000000E+00 -0.25986465286E+04  0.25986465286E+04  0.00000000000E+00 0. -1.
         23    2    1    2    0    0  0.39545741013E+03 -0.39547855483E+03  0.58560279898E+03  0.81469521255E+03  0.89486315250E+02 0.  0.
         13    1    3    3    0    0  0.17324908422E+03 -0.17044113792E+03  0.31917651086E+03  0.40117212236E+03  0.00000000000E+00 0. -1.
        -13    1    3    3    0    0  0.22220832591E+03 -0.22503741691E+03  0.26642628813E+03  0.41352309019E+03  0.00000000000E+00 0.  1.
         22    1    1    2    0    0 -0.39545741013E+03  0.39547855483E+03 -0.24526211332E+04  0.25155795105E+04  0.00000000000E+00 0. -1.
<mgrwt>
<rscale>  0 0.27577114E+04</rscale>
<asrwt>0</asrwt>
<pdfrwt beam="1">  1        1 0.39979178E+00 0.27577114E+04</pdfrwt>
<pdfrwt beam="2">  1       -1 0.11255818E+00 0.27577114E+04</pdfrwt>
<totfact> 0.72565168E-01</totfact>
</mgrwt>
</event>
<event>
 6    1  0.1817112E-005  0.4278689E+04  0.7818608E-02  0.7950570E-01
         -2   -1    0    0    0  501 -0.00000000000E+00  0.00000000000E+00  0.29737724722E+04  0.29737724722E+04  0.00000000000E+00 0.  1.
          2   -1    0    0  501    0  0.00000000000E+00 -0.00000000000E+00 -0.15390538119E+04  0.15390538119E+04  0.00000000000E+00 0. -1.
         23    2    1    2    0    0  0.10010083620E+04  0.56382842802E+03  0.26199304504E+04  0.28621757382E+04  0.89967515688E+02 0.  0.
         13    1    3    3    0    0  0.70572809199E+03  0.35987350434E+03  0.17381003160E+04  0.19101187888E+04  0.00000000000E+00 0. -1.
        -13    1    3    3    0    0  0.29528027002E+03  0.20395492368E+03  0.88183013444E+03  0.95205694933E+03  0.00000000000E+00 0.  1.
         22    1    1    2    0    0 -0.10010083620E+04 -0.56382842802E+03 -0.11852117902E+04  0.16506505459E+04  0.00000000000E+00 0. -1.
<mgrwt>
<rscale>  0 0.42786895E+04</rscale>
<asrwt>0</asrwt>
<pdfrwt beam="1">  1        2 0.23677751E+00 0.42786895E+04</pdfrwt>
<pdfrwt beam="2">  1       -2 0.45750346E+00 0.42786895E+04</pdfrwt>
<totfact> 0.28848659E-02</totfact>
</mgrwt>
</event>
<event>
 6    1  0.1817112E-005  0.1532181E+04  0.7818608E-02  0.8863331E-01
          1   -1    0    0  501    0  0.00000000000E+00  0.00000000000E+00  0.82286380203E+03  0.82286380203E+03  0.00000000000E+00 0. -1.
         -1   -1    0    0    0  501 -0.00000000000E+00 -0.00000000000E+00 -0.71323424099E+03  0.71323424099E+03  0.00000000000E+00 0.  1.
         23    2    1    2    0    0 -0.60869268899E+01 -0.28336499283E+03 -0.65571134873E+03  0.71996111947E+03  0.89743361067E+02 0.  0.
         13    1    3    3    0    0  0.20235733470E+02 -0.10427027455E+02 -0.59933411269E+02  0.64111009951E+02  0.00000000000E+00 0. -1.
        -13    1    3    3    0    0 -0.26322660360E+02 -0.27293796537E+03 -0.59577793746E+03  0.65585010951E+03  0.00000000000E+00 0.  1.
         22    1    1    2    0    0  0.60869268899E+01  0.28336499283E+03  0.76534090976E+03  0.81613692356E+03  0.00000000000E+00 0. -1.
<mgrwt>
<rscale>  0 0.15321810E+04</rscale>
<asrwt>0</asrwt>
<pdfrwt beam="1">  1        1 0.12659443E+00 0.15321810E+04</pdfrwt>
<pdfrwt beam="2">  1       -1 0.10972834E+00 0.15321810E+04</pdfrwt>
<totfact> 0.15650539E+01</totfact>
</mgrwt>
</event>
<event>
 6    1  0.1817112E-005  0.1979385E+04  0.7818608E-02  0.8616320E-01
         -2   -1    0    0    0  501 -0.00000000000E+00  0.00000000000E+00  0.58214281466E+03  0.58214281466E+03  0.00000000000E+00 0.  1.
          2   -1    0    0  501    0  0.00000000000E+00 -0.00000000000E+00 -0.16825617953E+04  0.16825617953E+04  0.00000000000E+00 0. -1.
         23    2    1    2    0    0 -0.89889191257E+03  0.45033672086E+02 -0.10165066104E+04  0.13607820535E+04  0.91691909085E+02 0.  0.
         11    1    3    3    0    0 -0.34073755383E+03 -0.27425791659E+02 -0.38467102423E+03  0.51461252562E+03  0.00000000000E+00 0.  1.
        -11    1    3    3    0    0 -0.55815435873E+03  0.72459463745E+02 -0.63183558612E+03  0.84616952790E+03  0.00000000000E+00 0. -1.
         22    1    1    2    0    0  0.89889191257E+03 -0.45033672086E+02 -0.83912370252E+02  0.90392255641E+03  0.00000000000E+00 0.  1.
<mgrwt>
<rscale>  0 0.19793850E+04</rscale>
<asrwt>0</asrwt>
<pdfrwt beam="1">  1        2 0.25885565E+00 0.19793850E+04</pdfrwt>
<pdfrwt beam="2">  1       -2 0.89560436E-01 0.19793850E+04</pdfrwt>
<totfact> 0.99750251E+00</totfact>
</mgrwt>
</event>
<event>
 6    1  0.1817112E-005  0.3038068E+04  0.7818608E-02  0.8232943E-01
         -2   -1    0    0    0  501 -0.00000000000E+00  0.00000000000E+00  0.11353485751E+04  0.11353485751E+04  0.00000000000E+00 0.  1.
          2   -1    0    0  501    0  0.00000000000E+00 -0.00000000000E+00 -0.20323843252E+04  0.20323843252E+04  0.00000000000E+00 0. -1.
         23    2    1    2    0    0 -0.64843407597E+03  0.64686699573E+03 -0.17107404792E+04  0.19425720752E+04  0.89719668872E+02 0.  0.
         13    1    3    3    0    0 -0.43205501773E+03  0.38720960257E+03 -0.11436426579E+04  0.12823889206E+04  0.00000000000E+00 0. -1.
        -13    1    3    3    0    0 -0.21637905824E+03  0.25965739317E+03 -0.56709782138E+03  0.66018315465E+03  0.00000000000E+00 0.  1.
         22    1    1    2    0    0  0.64843407597E+03 -0.64686699573E+03  0.81370472916E+03  0.12251608251E+04  0.00000000000E+00 0.  1.
<mgrwt>
<rscale>  0 0.30380682E+04</rscale>
<asrwt>0</asrwt>
<pdfrwt beam="1">  1        2 0.31267451E+00 0.30380682E+04</pdfrwt>
<pdfrwt beam="2">  1       -2 0.17466901E+00 0.30380682E+04</pdfrwt>
<totfact> 0.10804824E+00</totfact>
</mgrwt>
</event>
<event>
 6    1  0.1818935E-005  0.2443408E+04  0.7818608E-02  0.8423429E-01
          2   -1    0    0  501    0  0.00000000000E+00  0.00000000000E+00  0.16483412812E+04  0.16483412812E+04  0.00000000000E+00 0. -1.
         -2   -1    0    0    0  501 -0.00000000000E+00 -0.00000000000E+00 -0.90549240136E+03  0.90549240136E+03  0.00000000000E+00 0.  1.
         23    2    1    2    0    0  0.99993912128E+03 -0.61639110907E+03  0.27365813608E+02  0.11784311002E+04  0.90192707436E+02 0.  0.
         13    1    3    3    0    0  0.60565866265E+03 -0.41691693129E+03  0.40143434045E+02  0.73637873308E+03  0.00000000000E+00 0. -1.
        -13    1    3    3    0    0  0.39428045863E+03 -0.19947417778E+03 -0.12777620437E+02  0.44205236708E+03  0.00000000000E+00 0.  1.
         22    1    1    2    0    0 -0.99993912128E+03  0.61639110907E+03  0.71548306626E+03  0.13754025824E+04  0.00000000000E+00 0.  1.
<mgrwt>
<rscale>  0 0.24434079E+04</rscale>
<asrwt>0</asrwt>
<pdfrwt beam="1">  1        2 0.25359097E+00 0.24434079E+04</pdfrwt>
<pdfrwt beam="2">  1       -2 0.13930652E+00 0.24434079E+04</pdfrwt>
<totfact> 0.34167666E+00</totfact>
</mgrwt>
</event>
<event>
 6    1  0.1817112E-005  0.7974554E+03  0.7818608E-02  0.9563708E-01
          2   -1    0    0  501    0  0.00000000000E+00  0.00000000000E+00  0.59817151164E+03  0.59817151164E+03  0.00000000000E+00 0. -1.
         -2   -1    0    0    0  501 -0.00000000000E+00 -0.00000000000E+00 -0.26578292069E+03  0.26578292069E+03  0.00000000000E+00 0.  1.
         23    2    1    2    0    0  0.22794729635E+03  0.26592266632E+02 -0.17752491949E+03  0.30477744185E+03  0.93311700578E+02 0.  0.
         13    1    3    3    0    0  0.16150229639E+03 -0.15572706958E+01 -0.71745453546E+02  0.17672811586E+03  0.00000000000E+00 0. -1.
        -13    1    3    3    0    0  0.66444999954E+02  0.28149537328E+02 -0.10577946594E+03  0.12804932599E+03  0.00000000000E+00 0.  1.
         22    1    1    2    0    0 -0.22794729635E+03 -0.26592266632E+02  0.50991351044E+03  0.55917699048E+03  0.00000000000E+00 0. -1.
<mgrwt>
<rscale>  0 0.79745538E+03</rscale>
<asrwt>0</asrwt>
<pdfrwt beam="1">  1        2 0.92026386E-01 0.79745538E+03</pdfrwt>
<pdfrwt beam="2">  1       -2 0.40889680E-01 0.79745538E+03</pdfrwt>
<totfact> 0.28368835E+02</totfact>
</mgrwt>
</event>
<event>
 6    1  0.1817112E-005  0.1479398E+04  0.7818608E-02  0.8898270E-01
         -2   -1    0    0    0  501 -0.00000000000E+00  0.00000000000E+00  0.51828413438E+03  0.51828413438E+03  0.00000000000E+00 0.  1.
          2   -1    0    0  501    0  0.00000000000E+00 -0.00000000000E+00 -0.10557039788E+04  0.10557039788E+04  0.00000000000E+00 0. -1.
         23    2    1    2    0    0 -0.67494016280E+01 -0.70057371896E+03 -0.51275807307E+03  0.87294796237E+03  0.90929716715E+02 0.  0.
         13    1    3    3    0    0 -0.44255368420E+02 -0.24806168883E+03 -0.16832694579E+03  0.30302986615E+03  0.00000000000E+00 0.  1.
        -13    1    3    3    0    0  0.37505966792E+02 -0.45251203013E+03 -0.34443112728E+03  0.56991809622E+03  0.00000000000E+00 0. -1.
         22    1    1    2    0    0  0.67494016280E+01  0.70057371896E+03 -0.24661771377E+02  0.70104015084E+03  0.00000000000E+00 0. -1.
<mgrwt>
<rscale>  0 0.14793980E+04</rscale>
<asrwt>0</asrwt>
<pdfrwt beam="1">  1        2 0.16241599E+00 0.14793980E+04</pdfrwt>
<pdfrwt beam="2">  1       -2 0.79736022E-01 0.14793980E+04</pdfrwt>
<totfact> 0.31292411E+01</totfact>
</mgrwt>
</event>
<event>
 6    1  0.1817112E-005  0.3218319E+04  0.7818608E-02  0.8183996E-01
         -2   -1    0    0    0  501 -0.00000000000E+00  0.00000000000E+00  0.84386527805E+03  0.84386527805E+03  0.00000000000E+00 0.  1.
          2   -1    0    0  501    0  0.00000000000E+00 -0.00000000000E+00 -0.30684923585E+04  0.30684923585E+04  0.00000000000E+00 0. -1.
         23    2    1    2    0    0 -0.14537117724E+04  0.49296586833E+03 -0.16949326018E+04  0.22885135845E+04  0.90579452799E+02 0.  0.
         11    1    3    3    0    0 -0.46736690644E+03  0.17546024862E+03 -0.49351370610E+03  0.70197856249E+03  0.00000000000E+00 0.  1.
        -11    1    3    3    0    0 -0.98634486599E+03  0.31750561971E+03 -0.12014188957E+04  0.15865350220E+04  0.00000000000E+00 0. -1.
         22    1    1    2    0    0  0.14537117724E+04 -0.49296586833E+03 -0.52969447868E+03  0.16238440520E+04  0.00000000000E+00 0. -1.
<mgrwt>
<rscale>  0 0.32183189E+04</rscale>
<asrwt>0</asrwt>
<pdfrwt beam="1">  1        2 0.47207574E+00 0.32183189E+04</pdfrwt>
<pdfrwt beam="2">  1       -2 0.12982543E+00 0.32183189E+04</pdfrwt>
<totfact> 0.57702496E-01</totfact>
</mgrwt>
</event>
<event>
 6    1  0.1817112E-005  0.7855943E+04  0.7818608E-02  0.7495074E-01
          2   -1    0    0  501    0  0.00000000000E+00  0.00000000000E+00  0.27961222276E+04  0.27961222276E+04  0.00000000000E+00 0. -1.
         -2   -1    0    0    0  501 -0.00000000000E+00 -0.00000000000E+00 -0.55179848556E+04  0.55179848556E+04  0.00000000000E+00 0.  1.
         23    2    1    2    0    0  0.24292429015E+04 -0.56898492570E+03 -0.45711304323E+04  0.52085062826E+04  0.91320021233E+02 0.  0.
         11    1    3    3    0    0  0.12275770580E+03 -0.13931772417E+02 -0.25585592180E+03  0.28412286310E+03  0.00000000000E+00 0.  1.
        -11    1    3    3    0    0  0.23064851957E+04 -0.55505315329E+03 -0.43152745105E+04  0.49243834195E+04  0.00000000000E+00 0. -1.
         22    1    1    2    0    0 -0.24292429015E+04  0.56898492570E+03  0.18492678043E+04  0.31056008005E+04  0.00000000000E+00 0. -1.
<mgrwt>
<rscale>  0 0.78559430E+04</rscale>
<asrwt>0</asrwt>
<pdfrwt beam="1">  1        2 0.43017265E+00 0.78559430E+04</pdfrwt>
<pdfrwt beam="2">  1       -2 0.84892074E+00 0.78559430E+04</pdfrwt>
<totfact> 0.45440613E-05</totfact>
</mgrwt>
</event>
<event>
 6    1  0.1817112E-005  0.4976557E+04  0.7818608E-02  0.7832134E-01
          2   -1    0    0  501    0  0.00000000000E+00  0.00000000000E+00  0.29004901579E+04  0.29004901579E+04  0.00000000000E+00 0. -1.
         -2   -1    0    0    0  501 -0.00000000000E+00 -0.00000000000E+00 -0.21346497817E+04  0.21346497817E+04  0.00000000000E+00 0.  1.
         23    2    1    2    0    0  0.23836378646E+04  0.47770246186E+03  0.91568592047E+03  0.25994916073E+04  0.94587526455E+02 0.  0.
         11    1    3    3    0    0  0.10779654996E+04  0.17320141829E+03  0.43365890289E+03  0.11747631223E+04  0.00000000000E+00 0. -1.
        -11    1    3    3    0    0  0.13056723650E+04  0.30450104358E+03  0.48202701758E+03  0.14247284850E+04  0.00000000000E+00 0.  1.
         22    1    1    2    0    0 -0.23836378646E+04 -0.47770246186E+03 -0.14984554434E+03  0.24356483323E+04  0.00000000000E+00 0.  1.
<mgrwt>
<rscale>  0 0.49765573E+04</rscale>
<asrwt>0</asrwt>
<pdfrwt beam="1">  1        2 0.44622925E+00 0.49765573E+04</pdfrwt>
<pdfrwt beam="2">  1       -2 0.32840766E+00 0.49765573E+04</pdfrwt>
<totfact> 0.31089154E-02</totfact>
</mgrwt>
</event>
<event>
 6    1  0.1817112E-005  0.2564305E+04  0.7818608E-02  0.8380428E-01
          1   -1    0    0  501    0  0.00000000000E+00  0.00000000000E+00  0.25751351506E+04  0.25751351506E+04  0.00000000000E+00 0. -1.
         -1   -1    0    0    0  501 -0.00000000000E+00 -0.00000000000E+00 -0.63838032166E+03  0.63838032166E+03  0.00000000000E+00 0.  1.
         23    2    1    2    0    0 -0.34000792758E+03 -0.10719216485E+04  0.20224391391E+03  0.11463556996E+04  0.92775954774E+02 0.  0.
         13    1    3    3    0    0 -0.81935403305E+02 -0.29773054124E+03  0.15488271816E+02  0.30918727669E+03  0.00000000000E+00 0.  1.
        -13    1    3    3    0    0 -0.25807252427E+03 -0.77419110731E+03  0.18675564209E+03  0.83716842288E+03  0.00000000000E+00 0. -1.
         22    1    1    2    0    0  0.34000792758E+03  0.10719216485E+04  0.17345109151E+04  0.20671597727E+04  0.00000000000E+00 0. -1.
<mgrwt>
<rscale>  0 0.25643054E+04</rscale>
<asrwt>0</asrwt>
<pdfrwt beam="1">  1        1 0.39617463E+00 0.25643054E+04</pdfrwt>
<pdfrwt beam="2">  1       -1 0.98212358E-01 0.25643054E+04</pdfrwt>
<totfact> 0.10533965E+00</totfact>
</mgrwt>
</event>
<event>
 6    1  0.1817112E-005  0.3100241E+04  0.7818608E-02  0.8215672E-01
          2   -1    0    0  501    0  0.00000000000E+00  0.00000000000E+00  0.32567781500E+04  0.32567781500E+04  0.00000000000E+00 0. -1.
         -2   -1    0    0    0  501 -0.00000000000E+00 -0.00000000000E+00 -0.73780704111E+03  0.73780704111E+03  0.00000000000E+00 0.  1.
         23    2    1    2    0    0  0.33547442554E+03  0.10717371464E+04 -0.11381223688E+03  0.11322938456E+04  0.89289004332E+02 0.  0.
         11    1    3    3    0    0  0.12851627237E+03  0.38422772729E+03 -0.83526790745E+02  0.41367149220E+03  0.00000000000E+00 0. -1.
        -11    1    3    3    0    0  0.20695815317E+03  0.68750941908E+03 -0.30285446135E+02  0.71862235335E+03  0.00000000000E+00 0.  1.
         22    1    1    2    0    0 -0.33547442554E+03 -0.10717371464E+04  0.26327833458E+04  0.28622913456E+04  0.00000000000E+00 0. -1.
<mgrwt>
<rscale>  0 0.31002412E+04</rscale>
<asrwt>0</asrwt>
<pdfrwt beam="1">  1        2 0.50104279E+00 0.31002412E+04</pdfrwt>
<pdfrwt beam="2">  1       -2 0.11350878E+00 0.31002412E+04</pdfrwt>
<totfact> 0.61446480E-01</totfact>
</mgrwt>
</event>
<event>
 6    1  0.1817112E-005  0.3799042E+04  0.7818608E-02  0.8046361E-01
         -1   -1    0    0    0  501 -0.00000000000E+00  0.00000000000E+00  0.17541932277E+04  0.17541932277E+04  0.00000000000E+00 0.  1.
          1   -1    0    0  501    0  0.00000000000E+00 -0.00000000000E+00 -0.20568881180E+04  0.20568881180E+04  0.00000000000E+00 0. -1.
         23    2    1    2    0    0  0.46001891214E+03  0.71092621818E+03  0.15530300484E+04  0.17712900488E+04  0.92372174736E+02 0.  0.
         11    1    3    3    0    0  0.21654061173E+03  0.39666824387E+03  0.89135654224E+03  0.99937581400E+03  0.00000000000E+00 0.  1.
        -11    1    3    3    0    0  0.24347830040E+03  0.31425797432E+03  0.66167350613E+03  0.77191423481E+03  0.00000000000E+00 0. -1.
         22    1    1    2    0    0 -0.46001891214E+03 -0.71092621818E+03 -0.18557249386E+04  0.20397912969E+04  0.00000000000E+00 0. -1.
<mgrwt>
<rscale>  0 0.37990416E+04</rscale>
<asrwt>0</asrwt>
<pdfrwt beam="1">  1        1 0.31644432E+00 0.37990416E+04</pdfrwt>
<pdfrwt beam="2">  1       -1 0.26987588E+00 0.37990416E+04</pdfrwt>
<totfact> 0.11230744E-01</totfact>
</mgrwt>
</event>
<event>
 6    1  0.1817112E-005  0.6975532E+03  0.7818608E-02  0.9721426E-01
         -1   -1    0    0    0  501 -0.00000000000E+00  0.00000000000E+00  0.30873959831E+03  0.30873959831E+03  0.00000000000E+00 0.  1.
          1   -1    0    0  501    0  0.00000000000E+00 -0.00000000000E+00 -0.39400560222E+03  0.39400560222E+03  0.00000000000E+00 0. -1.
         23    2    1    2    0    0 -0.21158891583E+03 -0.13416486171E+03 -0.28201564456E+03  0.38418515828E+03  0.72769036316E+02 0.  0.
         13    1    3    3    0    0 -0.12331014316E+03 -0.45236866758E+02 -0.17871182471E+03  0.22178746992E+03  0.00000000000E+00 0. -1.
        -13    1    3    3    0    0 -0.88278772672E+02 -0.88927994954E+02 -0.10330381984E+03  0.16239768836E+03  0.00000000000E+00 0.  1.
         22    1    1    2    0    0  0.21158891583E+03  0.13416486171E+03  0.19674964065E+03  0.31856004225E+03  0.00000000000E+00 0.  1.
<mgrwt>
<rscale>  0 0.69755324E+03</rscale>
<asrwt>0</asrwt>
<pdfrwt beam="1">  1        1 0.60616246E-01 0.69755324E+03</pdfrwt>
<pdfrwt beam="2">  1       -1 0.47498400E-01 0.69755324E+03</pdfrwt>
<totfact> 0.27450341E+02</totfact>
</mgrwt>
</event>
<event>
 6    1  0.1817112E-005  0.1771879E+04  0.7818608E-02  0.8721399E-01
          2   -1    0    0  501    0  0.00000000000E+00  0.00000000000E+00  0.31770311283E+04  0.31770311283E+04  0.00000000000E+00 0. -1.
         -2   -1    0    0    0  501 -0.00000000000E+00 -0.00000000000E+00 -0.24705089212E+03  0.24705089212E+03  0.00000000000E+00 0.  1.
         23    2    1    2    0    0  0.62129832592E+03 -0.57080185828E+03  0.96214702173E+03  0.12830089411E+04  0.92513135445E+02 0.  0.
         13    1    3    3    0    0  0.34792712587E+03 -0.30153385792E+03  0.45765302703E+03  0.64917042873E+03  0.00000000000E+00 0. -1.
        -13    1    3    3    0    0  0.27337120005E+03 -0.26926800036E+03  0.50449399470E+03  0.63383851234E+03  0.00000000000E+00 0.  1.
         22    1    1    2    0    0 -0.62129832592E+03  0.57080185828E+03  0.19678332145E+04  0.21410730794E+04  0.00000000000E+00 0. -1.
<mgrwt>
<rscale>  0 0.17718785E+04</rscale>
<asrwt>0</asrwt>
<pdfrwt beam="1">  1        2 0.48877399E+00 0.17718785E+04</pdfrwt>
<pdfrwt beam="2">  1       -2 0.38007832E-01 0.17718785E+04</pdfrwt>
<totfact> 0.83445951E+00</totfact>
</mgrwt>
</event>
<event>
 6    1  0.1817112E-005  0.1679094E+04  0.7818608E-02  0.8773379E-01
         -2   -1    0    0    0  501 -0.00000000000E+00  0.00000000000E+00  0.50769750503E+03  0.50769750503E+03  0.00000000000E+00 0.  1.
          2   -1    0    0  501    0  0.00000000000E+00 -0.00000000000E+00 -0.13883051564E+04  0.13883051564E+04  0.00000000000E+00 0. -1.
         23    2    1    2    0    0  0.20824392819E+03 -0.78496449455E+02 -0.13528140195E+04  0.13739815122E+04  0.90510764116E+02 0.  0.
         11    1    3    3    0    0  0.16517392524E+03 -0.65105064196E+02 -0.80659785605E+03  0.82590628787E+03  0.00000000000E+00 0. -1.
        -11    1    3    3    0    0  0.43070002948E+02 -0.13391385259E+02 -0.54621616341E+03  0.54807522433E+03  0.00000000000E+00 0.  1.
         22    1    1    2    0    0 -0.20824392819E+03  0.78496449455E+02  0.47220636808E+03  0.52202114925E+03  0.00000000000E+00 0.  1.
<mgrwt>
<rscale>  0 0.16790939E+04</rscale>
<asrwt>0</asrwt>
<pdfrwt beam="1">  1        2 0.21358540E+00 0.16790939E+04</pdfrwt>
<pdfrwt beam="2">  1       -2 0.78107311E-01 0.16790939E+04</pdfrwt>
<totfact> 0.20431234E+01</totfact>
</mgrwt>
</event>
<event>
 6    1  0.1817112E-005  0.1318238E+04  0.7818608E-02  0.9015226E-01
          2   -1    0    0  501    0  0.00000000000E+00  0.00000000000E+00  0.60115859559E+03  0.60115859559E+03  0.00000000000E+00 0. -1.
         -2   -1    0    0    0  501 -0.00000000000E+00 -0.00000000000E+00 -0.72266788678E+03  0.72266788678E+03  0.00000000000E+00 0.  1.
         23    2    1    2    0    0  0.99942726273E+02  0.42623822650E+03 -0.55161516141E+03  0.71010127199E+03  0.91087627683E+02 0.  0.
         11    1    3    3    0    0 -0.61546931928E+01  0.95139467671E+02 -0.81756108992E+02  0.12559243574E+03  0.00000000000E+00 0.  1.
        -11    1    3    3    0    0  0.10609741947E+03  0.33109875883E+03 -0.46985905242E+03  0.58450883625E+03  0.00000000000E+00 0. -1.
         22    1    1    2    0    0 -0.99942726273E+02 -0.42623822650E+03  0.43010587022E+03  0.61372521038E+03  0.00000000000E+00 0. -1.
<mgrwt>
<rscale>  0 0.13182382E+04</rscale>
<asrwt>0</asrwt>
<pdfrwt beam="1">  1        2 0.92485938E-01 0.13182382E+04</pdfrwt>
<pdfrwt beam="2">  1       -2 0.11117967E+00 0.13182382E+04</pdfrwt>
<totfact> 0.31011993E+01</totfact>
</mgrwt>
</event>
<event>
 6    1  0.1817112E-005  0.3276693E+04  0.7818608E-02  0.8168851E-01
          1   -1    0    0  501    0  0.00000000000E+00  0.00000000000E+00  0.12425758028E+04  0.12425758028E+04  0.00000000000E+00 0. -1.
         -1   -1    0    0    0  501 -0.00000000000E+00 -0.00000000000E+00 -0.21601735420E+04  0.21601735420E+04  0.00000000000E+00 0.  1.
         23    2    1    2    0    0  0.82474750457E+03 -0.35466900320E+03  0.96248862260E+03  0.13193090947E+04  0.90518453933E+02 0.  0.
         11    1    3    3    0    0  0.38889334702E+03 -0.20741576714E+03  0.50923325044E+03  0.67348187739E+03  0.00000000000E+00 0.  1.
        -11    1    3    3    0    0  0.43585415755E+03 -0.14725323607E+03  0.45325537216E+03  0.64582721728E+03  0.00000000000E+00 0. -1.
         22    1    1    2    0    0 -0.82474750457E+03  0.35466900320E+03 -0.18800863618E+04  0.20834402502E+04  0.00000000000E+00 0.  1.
<mgrwt>
<rscale>  0 0.32766931E+04</rscale>
<asrwt>0</asrwt>
<pdfrwt beam="1">  1        1 0.19116551E+00 0.32766931E+04</pdfrwt>
<pdfrwt beam="2">  1       -1 0.33233439E+00 0.32766931E+04</pdfrwt>
<totfact> 0.16801273E-01</totfact>
</mgrwt>
</event>
<event>
 6    1  0.1817112E-005  0.2338093E+04  0.7818608E-02  0.8463051E-01
          2   -1    0    0  501    0  0.00000000000E+00  0.00000000000E+00  0.48615747002E+04  0.48615747002E+04  0.00000000000E+00 0. -1.
         -2   -1    0    0    0  501 -0.00000000000E+00 -0.00000000000E+00 -0.28111672029E+03  0.28111672029E+03  0.00000000000E+00 0.  1.
         23    2    1    2    0    0  0.90498926200E+03  0.53542549135E+03  0.34087946213E+04  0.35683721876E+04  0.87825268811E+02 0.  0.
         13    1    3    3    0    0  0.91946223152E+02  0.41655464840E+02  0.25523172128E+03  0.27446769801E+03  0.00000000000E+00 0. -1.
        -13    1    3    3    0    0  0.81304303885E+03  0.49377002651E+03  0.31535629000E+04  0.32939044896E+04  0.00000000000E+00 0.  1.
         22    1    1    2    0    0 -0.90498926200E+03 -0.53542549135E+03  0.11716633586E+04  0.15743192328E+04  0.00000000000E+00 0.  1.
<mgrwt>
<rscale>  0 0.23380932E+04</rscale>
<asrwt>0</asrwt>
<pdfrwt beam="1">  1        2 0.74793451E+00 0.23380932E+04</pdfrwt>
<pdfrwt beam="2">  1       -2 0.43248730E-01 0.23380932E+04</pdfrwt>
<totfact> 0.23457664E-01</totfact>
</mgrwt>
</event>
<event>
 6    1  0.1817112E-005  0.2990086E+04  0.7818608E-02  0.8246568E-01
          2   -1    0    0  501    0  0.00000000000E+00  0.00000000000E+00  0.16975374050E+04  0.16975374050E+04  0.00000000000E+00 0. -1.
         -2   -1    0    0    0  501 -0.00000000000E+00 -0.00000000000E+00 -0.13167034352E+04  0.13167034352E+04  0.00000000000E+00 0.  1.
         23    2    1    2    0    0  0.62972710461E+03  0.12367879863E+04  0.74781730431E+03  0.15786651657E+04  0.82171985449E+02 0.  0.
         13    1    3    3    0    0  0.45470485046E+03  0.81732499615E+03  0.48332355420E+03  0.10527954732E+04  0.00000000000E+00 0.  1.
        -13    1    3    3    0    0  0.17502225415E+03  0.41946299020E+03  0.26449375011E+03  0.52586969246E+03  0.00000000000E+00 0. -1.
         22    1    1    2    0    0 -0.62972710461E+03 -0.12367879863E+04 -0.36698333451E+03  0.14355756745E+04  0.00000000000E+00 0.  1.
<mgrwt>
<rscale>  0 0.29900858E+04</rscale>
<asrwt>0</asrwt>
<pdfrwt beam="1">  1        2 0.26115960E+00 0.29900858E+04</pdfrwt>
<pdfrwt beam="2">  1       -2 0.20256976E+00 0.29900858E+04</pdfrwt>
<totfact> 0.10784469E+00</totfact>
</mgrwt>
</event>
<event>
 6    1  0.1817112E-005  0.4076791E+04  0.7818608E-02  0.7989232E-01
         -2   -1    0    0    0  501 -0.00000000000E+00  0.00000000000E+00  0.25100918177E+04  0.25100918177E+04  0.00000000000E+00 0.  1.
          2   -1    0    0  501    0  0.00000000000E+00 -0.00000000000E+00 -0.16553405784E+04  0.16553405784E+04  0.00000000000E+00 0. -1.
         23    2    1    2    0    0 -0.17274917316E+04  0.10741654440E+04  0.31125993616E+03  0.20598583935E+04  0.89859720179E+02 0.  0.
         13    1    3    3    0    0 -0.10468489601E+04  0.64148113221E+03  0.14407454196E+03  0.12361829403E+04  0.00000000000E+00 0.  1.
        -13    1    3    3    0    0 -0.68064277152E+03  0.43268431177E+03  0.16718539420E+03  0.82367545314E+03  0.00000000000E+00 0. -1.
         22    1    1    2    0    0  0.17274917316E+04 -0.10741654440E+04  0.54349130315E+03  0.21055740026E+04  0.00000000000E+00 0. -1.
<mgrwt>
<rscale>  0 0.40767913E+04</rscale>
<asrwt>0</asrwt>
<pdfrwt beam="1">  1        2 0.25466778E+00 0.40767913E+04</pdfrwt>
<pdfrwt beam="2">  1       -2 0.38616797E+00 0.40767913E+04</pdfrwt>
<totfact> 0.74337446E-02</totfact>
</mgrwt>
</event>
<event>
 6    1  0.1817112E-005  0.2388989E+04  0.7818608E-02  0.8443638E-01
         -2   -1    0    0    0  501 -0.00000000000E+00  0.00000000000E+00  0.36637740729E+03  0.36637740729E+03  0.00000000000E+00 0.  1.
          2   -1    0    0  501    0  0.00000000000E+00 -0.00000000000E+00 -0.38943908443E+04  0.38943908443E+04  0.00000000000E+00 0. -1.
         23    2    1    2    0    0  0.72352814958E+03 -0.19172134915E+03 -0.34232015875E+04  0.35049669664E+04  0.78957379520E+02 0.  0.
         13    1    3    3    0    0  0.58023673010E+03 -0.14379558682E+03 -0.25813704375E+04  0.26496839753E+04  0.00000000000E+00 0. -1.
        -13    1    3    3    0    0  0.14329141948E+03 -0.47925762328E+02 -0.84183115004E+03  0.85528299104E+03  0.00000000000E+00 0.  1.
         22    1    1    2    0    0 -0.72352814958E+03  0.19172134915E+03 -0.10481184953E+03  0.75580128523E+03  0.00000000000E+00 0.  1.
<mgrwt>
<rscale>  0 0.23889888E+04</rscale>
<asrwt>0</asrwt>
<pdfrwt beam="1">  1        2 0.59913706E+00 0.23889888E+04</pdfrwt>
<pdfrwt beam="2">  1       -2 0.56365754E-01 0.23889888E+04</pdfrwt>
<totfact> 0.11084867E+00</totfact>
</mgrwt>
</event>
<event>
 6    1  0.1817112E-005  0.1326478E+04  0.7818608E-02  0.9008828E-01
          2   -1    0    0  501    0  0.00000000000E+00  0.00000000000E+00  0.10073695075E+04  0.10073695075E+04  0.00000000000E+00 0.  1.
         -2   -1    0    0    0  501 -0.00000000000E+00 -0.00000000000E+00 -0.43666764339E+03  0.43666764339E+03  0.00000000000E+00 0. -1.
         23    2    1    2    0    0  0.40472153088E+02  0.61566948291E+03  0.54209661872E+03  0.82637610514E+03  0.91333541288E+02 0.  0.
         11    1    3    3    0    0  0.25256497622E+02  0.43434326181E+03  0.32473884394E+03  0.54290632388E+03  0.00000000000E+00 0. -1.
        -11    1    3    3    0    0  0.15215655466E+02  0.18132622110E+03  0.21735777478E+03  0.28346978126E+03  0.00000000000E+00 0.  1.
         22    1    1    2    0    0 -0.40472153088E+02 -0.61566948291E+03  0.28605245385E+02  0.61766104574E+03  0.00000000000E+00 0. -1.
<mgrwt>
<rscale>  0 0.13264775E+04</rscale>
<asrwt>0</asrwt>
<pdfrwt beam="1">  1        2 0.15497992E+00 0.13264775E+04</pdfrwt>
<pdfrwt beam="2">  1       -2 0.67179638E-01 0.13264775E+04</pdfrwt>
<totfact> 0.49569071E+01</totfact>
</mgrwt>
</event>
<event>
 6    1  0.1817112E-005  0.2101855E+04  0.7818608E-02  0.8560427E-01
          2   -1    0    0  501    0  0.00000000000E+00  0.00000000000E+00  0.13253951660E+04  0.13253951660E+04  0.00000000000E+00 0. -1.
         -2   -1    0    0    0  501 -0.00000000000E+00 -0.00000000000E+00 -0.83329752164E+03  0.83329752164E+03  0.00000000000E+00 0.  1.
         23    2    1    2    0    0 -0.77749035385E+03 -0.57586268457E+03 -0.17009590860E+03  0.98625531899E+03  0.87509167024E+02 0.  0.
         13    1    3    3    0    0 -0.71590566708E+02 -0.43988802092E+02 -0.39378850935E+02  0.92795031397E+02  0.00000000000E+00 0. -1.
        -13    1    3    3    0    0 -0.70589978714E+03 -0.53187388247E+03 -0.13071705766E+03  0.89346028760E+03  0.00000000000E+00 0.  1.
         22    1    1    2    0    0  0.77749035385E+03  0.57586268457E+03  0.66219355293E+03  0.11724373686E+04  0.00000000000E+00 0. -1.
<mgrwt>
<rscale>  0 0.21018549E+04</rscale>
<asrwt>0</asrwt>
<pdfrwt beam="1">  1        2 0.20390695E+00 0.21018549E+04</pdfrwt>
<pdfrwt beam="2">  1       -2 0.12819962E+00 0.21018549E+04</pdfrwt>
<totfact> 0.66247262E+00</totfact>
</mgrwt>
</event>
<event>
 6    1  0.1817112E-005  0.3150395E+04  0.7818608E-02  0.8202042E-01
          2   -1    0    0  501    0  0.00000000000E+00  0.00000000000E+00  0.16869799128E+04  0.16869799128E+04  0.00000000000E+00 0. -1.
         -2   -1    0    0    0  501 -0.00000000000E+00 -0.00000000000E+00 -0.14708224326E+04  0.14708224326E+04  0.00000000000E+00 0.  1.
         23    2    1    2    0    0 -0.17869586574E+03  0.44111657800E+03  0.16118648448E+04  0.16831786323E+04  0.92010774697E+02 0.  0.
         13    1    3    3    0    0 -0.72186503347E+02  0.78363188803E+02  0.37131217408E+03  0.38629575618E+03  0.00000000000E+00 0.  1.
        -13    1    3    3    0    0 -0.10650936240E+03  0.36275338920E+03  0.12405526707E+04  0.12968828761E+04  0.00000000000E+00 0. -1.
         22    1    1    2    0    0  0.17869586574E+03 -0.44111657800E+03 -0.13957073645E+04  0.14746237131E+04  0.00000000000E+00 0.  1.
<mgrwt>
<rscale>  0 0.31503955E+04</rscale>
<asrwt>0</asrwt>
<pdfrwt beam="1">  1        2 0.25953537E+00 0.31503955E+04</pdfrwt>
<pdfrwt beam="2">  1       -2 0.22628037E+00 0.31503955E+04</pdfrwt>
<totfact> 0.76070655E-01</totfact>
</mgrwt>
</event>
<event>
 6    1  0.1817112E-005  0.4412938E+04  0.7818608E-02  0.7926059E-01
          2   -1    0    0  501    0  0.00000000000E+00  0.00000000000E+00  0.35943819734E+04  0.35943819734E+04  0.00000000000E+00 0.  1.
         -2   -1    0    0    0  501 -0.00000000000E+00 -0.00000000000E+00 -0.13544763981E+04  0.13544763981E+04  0.00000000000E+00 0. -1.
         23    2    1    2    0    0 -0.12466809084E+04  0.16593932837E+04  0.28394489259E+03  0.20969149027E+04  0.92887297284E+02 0.  0.
         13    1    3    3    0    0 -0.62453429771E+03  0.89160450971E+03  0.17806791451E+03  0.11030457257E+04  0.00000000000E+00 0. -1.
        -13    1    3    3    0    0 -0.62214661067E+03  0.76778877398E+03  0.10587697809E+03  0.99386917706E+03  0.00000000000E+00 0.  1.
         22    1    1    2    0    0  0.12466809084E+04 -0.16593932837E+04  0.19559606827E+04  0.28519434688E+04  0.00000000000E+00 0.  1.
<mgrwt>
<rscale>  0 0.44129380E+04</rscale>
<asrwt>0</asrwt>
<pdfrwt beam="1">  1        2 0.55298184E+00 0.44129380E+04</pdfrwt>
<pdfrwt beam="2">  1       -2 0.20838099E+00 0.44129380E+04</pdfrwt>
<totfact> 0.62228933E-02</totfact>
</mgrwt>
</event>
<event>
 6    1  0.1817112E-005  0.2894250E+04  0.7818608E-02  0.8274590E-01
          2   -1    0    0  501    0  0.00000000000E+00  0.00000000000E+00  0.15099092787E+04  0.15099092787E+04  0.00000000000E+00 0. -1.
         -2   -1    0    0    0  501 -0.00000000000E+00 -0.00000000000E+00 -0.13869512124E+04  0.13869512124E+04  0.00000000000E+00 0.  1.
         23    2    1    2    0    0  0.98607602951E+03 -0.10055522248E+04 -0.26497471585E+03  0.14360480266E+04  0.92418190198E+02 0.  0.
         11    1    3    3    0    0  0.79559826048E+03 -0.80355107029E+03 -0.17536021759E+03  0.11442998386E+04  0.00000000000E+00 0.  1.
        -11    1    3    3    0    0  0.19047776903E+03 -0.20200115456E+03 -0.89614498256E+02  0.29174818806E+03  0.00000000000E+00 0. -1.
         22    1    1    2    0    0 -0.98607602951E+03  0.10055522248E+04  0.38793278209E+03  0.14608124644E+04  0.00000000000E+00 0. -1.
<mgrwt>
<rscale>  0 0.28942498E+04</rscale>
<asrwt>0</asrwt>
<pdfrwt beam="1">  1        2 0.23229373E+00 0.28942498E+04</pdfrwt>
<pdfrwt beam="2">  1       -2 0.21337711E+00 0.28942498E+04</pdfrwt>
<totfact> 0.11787111E+00</totfact>
</mgrwt>
</event>
<event>
 6    1  0.1817112E-005  0.2012660E+04  0.7818608E-02  0.8600724E-01
         -2   -1    0    0    0  501 -0.00000000000E+00  0.00000000000E+00  0.37186702933E+03  0.37186702933E+03  0.00000000000E+00 0.  1.
          2   -1    0    0  501    0  0.00000000000E+00 -0.00000000000E+00 -0.27232857816E+04  0.27232857816E+04  0.00000000000E+00 0. -1.
         23    2    1    2    0    0  0.80734948148E+03 -0.55345175172E+03 -0.83326429417E+03  0.12887987522E+04  0.92470606644E+02 0.  0.
         11    1    3    3    0    0  0.56780249816E+03 -0.41889231280E+03 -0.55465772436E+03  0.89750522998E+03  0.00000000000E+00 0. -1.
        -11    1    3    3    0    0  0.23954698331E+03 -0.13455943892E+03 -0.27860656981E+03  0.39129352226E+03  0.00000000000E+00 0.  1.
         22    1    1    2    0    0 -0.80734948148E+03  0.55345175172E+03 -0.15181544581E+04  0.18063540587E+04  0.00000000000E+00 0. -1.
<mgrwt>
<rscale>  0 0.20126601E+04</rscale>
<asrwt>0</asrwt>
<pdfrwt beam="1">  1        2 0.41896704E+00 0.20126601E+04</pdfrwt>
<pdfrwt beam="2">  1       -2 0.57210312E-01 0.20126601E+04</pdfrwt>
<totfact> 0.68423268E+00</totfact>
</mgrwt>
</event>
<event>
 6    1  0.1817112E-005  0.2959126E+04  0.7818608E-02  0.8255500E-01
          2   -1    0    0  501    0  0.00000000000E+00  0.00000000000E+00  0.18066803714E+04  0.18066803714E+04  0.00000000000E+00 0.  1.
         -2   -1    0    0    0  501 -0.00000000000E+00 -0.00000000000E+00 -0.12116731990E+04  0.12116731990E+04  0.00000000000E+00 0. -1.
         23    2    1    2    0    0  0.14832995754E+03 -0.14243813373E+04  0.67139918628E+03  0.15842337323E+04  0.90308809647E+02 0.  0.
         13    1    3    3    0    0  0.11132831547E+03 -0.12435714751E+04  0.61110944951E+03  0.13900786909E+04  0.00000000000E+00 0.  1.
        -13    1    3    3    0    0  0.37001642065E+02 -0.18080986219E+03  0.60289736765E+02  0.19415504150E+03  0.00000000000E+00 0. -1.
         22    1    1    2    0    0 -0.14832995754E+03  0.14243813373E+04 -0.76392013852E+02  0.14341198381E+04  0.00000000000E+00 0.  1.
<mgrwt>
<rscale>  0 0.29591257E+04</rscale>
<asrwt>0</asrwt>
<pdfrwt beam="1">  1        2 0.27795083E+00 0.29591257E+04</pdfrwt>
<pdfrwt beam="2">  1       -2 0.18641126E+00 0.29591257E+04</pdfrwt>
<totfact> 0.12044544E+00</totfact>
</mgrwt>
</event>
<event>
 6    1  0.1817112E-005  0.2464952E+04  0.7818608E-02  0.8415579E-01
         -1   -1    0    0    0  501 -0.00000000000E+00  0.00000000000E+00  0.11200669689E+04  0.11200669689E+04  0.00000000000E+00 0.  1.
          1   -1    0    0  501    0  0.00000000000E+00 -0.00000000000E+00 -0.13561658403E+04  0.13561658403E+04  0.00000000000E+00 0. -1.
         23    2    1    2    0    0  0.55288556099E+01 -0.96279801306E+03 -0.88846741764E+03  0.13132215013E+04  0.90364688956E+02 0.  0.
         13    1    3    3    0    0  0.34560004735E+01 -0.48033102724E+03 -0.38191149825E+03  0.61366622211E+03  0.00000000000E+00 0.  1.
        -13    1    3    3    0    0  0.20728551364E+01 -0.48246698582E+03 -0.50655591939E+03  0.69955527916E+03  0.00000000000E+00 0. -1.
         22    1    1    2    0    0 -0.55288556099E+01  0.96279801306E+03  0.65236854620E+03  0.11630113079E+04  0.00000000000E+00 0.  1.
<mgrwt>
<rscale>  0 0.24649516E+04</rscale>
<asrwt>0</asrwt>
<pdfrwt beam="1">  1        1 0.20864090E+00 0.24649516E+04</pdfrwt>
<pdfrwt beam="2">  1       -1 0.17231800E+00 0.24649516E+04</pdfrwt>
<totfact> 0.17396146E+00</totfact>
</mgrwt>
</event>
<event>
 6    1  0.1817112E-005  0.1461551E+04  0.7818608E-02  0.8910431E-01
         -2   -1    0    0    0  501 -0.00000000000E+00  0.00000000000E+00  0.28349308890E+03  0.28349308890E+03  0.00000000000E+00 0.  1.
          2   -1    0    0  501    0  0.00000000000E+00 -0.00000000000E+00 -0.18837605424E+04  0.18837605424E+04  0.00000000000E+00 0. -1.
         23    2    1    2    0    0  0.92069612960E+02  0.71837844502E+03 -0.91391782831E+03  0.11694459284E+04  0.88394449711E+02 0.  0.
         11    1    3    3    0    0  0.60301057913E+02  0.40703840001E+03 -0.44923598957E+03  0.60920394860E+03  0.00000000000E+00 0.  1.
        -11    1    3    3    0    0  0.31768555047E+02  0.31134004501E+03 -0.46468183874E+03  0.56024197983E+03  0.00000000000E+00 0. -1.
         22    1    1    2    0    0 -0.92069612960E+02 -0.71837844502E+03 -0.68634962519E+03  0.99780770286E+03  0.00000000000E+00 0.  1.
<mgrwt>
<rscale>  0 0.14615514E+04</rscale>
<asrwt>0</asrwt>
<pdfrwt beam="1">  1        2 0.28980931E+00 0.14615514E+04</pdfrwt>
<pdfrwt beam="2">  1       -2 0.43614323E-01 0.14615514E+04</pdfrwt>
<totfact> 0.37453713E+01</totfact>
</mgrwt>
</event>
<event>
 6    1  0.2364592E-005  0.2995501E+04  0.7818608E-02  0.8245017E-01
          2   -1    0    0  501    0  0.00000000000E+00  0.00000000000E+00  0.14060167146E+04  0.14060167146E+04  0.00000000000E+00 0. -1.
         -2   -1    0    0    0  501 -0.00000000000E+00 -0.00000000000E+00 -0.15954691416E+04  0.15954691416E+04  0.00000000000E+00 0.  1.
         23    2    1    2    0    0  0.36857250201E+03 -0.84784262829E+02  0.13559052064E+04  0.14105225393E+04  0.89782207097E+02 0.  0.
         11    1    3    3    0    0  0.13126542016E+03  0.10976210656E+02  0.51190034293E+03  0.52857643613E+03  0.00000000000E+00 0. -1.
        -11    1    3    3    0    0  0.23730708185E+03 -0.95760473485E+02  0.84400486346E+03  0.88194610318E+03  0.00000000000E+00 0.  1.
         22    1    1    2    0    0 -0.36857250201E+03  0.84784262829E+02 -0.15453576334E+04  0.15909633169E+04  0.00000000000E+00 0.  1.
<mgrwt>
<rscale>  0 0.29955008E+04</rscale>
<asrwt>0</asrwt>
<pdfrwt beam="1">  1        2 0.21631026E+00 0.29955008E+04</pdfrwt>
<pdfrwt beam="2">  1       -2 0.24545679E+00 0.29955008E+04</pdfrwt>
<totfact> 0.84264128E-01</totfact>
</mgrwt>
</event>
<event>
 6    1  0.1817112E-005  0.5342847E+04  0.7818608E-02  0.7777691E-01
          2   -1    0    0  501    0  0.00000000000E+00  0.00000000000E+00  0.31377670031E+04  0.31377670031E+04  0.00000000000E+00 0. -1.
         -2   -1    0    0    0  501 -0.00000000000E+00 -0.00000000000E+00 -0.22743892651E+04  0.22743892651E+04  0.00000000000E+00 0.  1.
         23    2    1    2    0    0  0.95588125257E+03  0.11573325409E+04  0.26693505337E+04  0.30638238134E+04  0.91959278176E+02 0.  0.
         11    1    3    3    0    0  0.10680834804E+03  0.97647413550E+02  0.29581687306E+03  0.32931848259E+03  0.00000000000E+00 0.  1.
        -11    1    3    3    0    0  0.84907290452E+03  0.10596851273E+04  0.23735336607E+04  0.27345053309E+04  0.00000000000E+00 0. -1.
         22    1    1    2    0    0 -0.95588125257E+03 -0.11573325409E+04 -0.18059727958E+04  0.23483324548E+04  0.00000000000E+00 0.  1.
<mgrwt>
<rscale>  0 0.53428470E+04</rscale>
<asrwt>0</asrwt>
<pdfrwt beam="1">  1        2 0.48273339E+00 0.53428470E+04</pdfrwt>
<pdfrwt beam="2">  1       -2 0.34990604E+00 0.53428470E+04</pdfrwt>
<totfact> 0.15698839E-02</totfact>
</mgrwt>
</event>
<event>
 6    1  0.1817112E-005  0.1463106E+04  0.7818608E-02  0.8909365E-01
          2   -1    0    0  501    0  0.00000000000E+00  0.00000000000E+00  0.18693760912E+04  0.18693760912E+04  0.00000000000E+00 0. -1.
         -2   -1    0    0    0  501 -0.00000000000E+00 -0.00000000000E+00 -0.28628254352E+03  0.28628254352E+03  0.00000000000E+00 0.  1.
         23    2    1    2    0    0  0.34249032446E+03  0.42817077470E+03  0.15014030572E+04  0.16013093127E+04  0.96698190863E+02 0.  0.
         11    1    3    3    0    0  0.16105473068E+03  0.19160455734E+03  0.82460888162E+03  0.86176025686E+03  0.00000000000E+00 0.  1.
        -11    1    3    3    0    0  0.18143559377E+03  0.23656621736E+03  0.67679417556E+03  0.73954905582E+03  0.00000000000E+00 0. -1.
         22    1    1    2    0    0 -0.34249032446E+03 -0.42817077470E+03  0.81690490548E+02  0.55434932209E+03  0.00000000000E+00 0.  1.
<mgrwt>
<rscale>  0 0.14631059E+04</rscale>
<asrwt>0</asrwt>
<pdfrwt beam="1">  1        2 0.28759631E+00 0.14631059E+04</pdfrwt>
<pdfrwt beam="2">  1       -2 0.44043469E-01 0.14631059E+04</pdfrwt>
<totfact> 0.37405887E+01</totfact>
</mgrwt>
</event>
<event>
 6    1  0.1817112E-005  0.1706335E+04  0.7818608E-02  0.8757759E-01
         -2   -1    0    0    0  501 -0.00000000000E+00  0.00000000000E+00  0.34184029154E+03  0.34184029154E+03  0.00000000000E+00 0.  1.
          2   -1    0    0  501    0  0.00000000000E+00 -0.00000000000E+00 -0.21293424353E+04  0.21293424353E+04  0.00000000000E+00 0. -1.
         23    2    1    2    0    0 -0.45794805750E+03  0.38234674474E+03 -0.17281824317E+02  0.60313951643E+03  0.87023894681E+02 0.  0.
         13    1    3    3    0    0 -0.15979936400E+03  0.15610364910E+03 -0.44867215442E+02  0.22785357803E+03  0.00000000000E+00 0.  1.
        -13    1    3    3    0    0 -0.29814869350E+03  0.22624309564E+03  0.27585391125E+02  0.37528593841E+03  0.00000000000E+00 0. -1.
         22    1    1    2    0    0  0.45794805750E+03 -0.38234674474E+03 -0.17702203195E+04  0.18680432104E+04  0.00000000000E+00 0. -1.
<mgrwt>
<rscale>  0 0.17063353E+04</rscale>
<asrwt>0</asrwt>
<pdfrwt beam="1">  1        2 0.32759114E+00 0.17063353E+04</pdfrwt>
<pdfrwt beam="2">  1       -2 0.52590815E-01 0.17063353E+04</pdfrwt>
<totfact> 0.18362904E+01</totfact>
</mgrwt>
</event>
<event>
 6    1  0.1817112E-005  0.2872530E+04  0.7818608E-02  0.8281098E-01
         -2   -1    0    0    0  501 -0.00000000000E+00  0.00000000000E+00  0.16009717278E+04  0.16009717278E+04  0.00000000000E+00 0.  1.
          2   -1    0    0  501    0  0.00000000000E+00 -0.00000000000E+00 -0.12885027649E+04  0.12885027649E+04  0.00000000000E+00 0. -1.
         23    2    1    2    0    0  0.40867714531E+03  0.23758772150E+03  0.15190944769E+04  0.15935539452E+04  0.91110988069E+02 0.  0.
         13    1    3    3    0    0  0.53668373037E+02  0.18956690514E+01  0.21497847563E+03  0.22158436951E+03  0.00000000000E+00 0.  1.
        -13    1    3    3    0    0  0.35500877227E+03  0.23569205245E+03  0.13041160013E+04  0.13719695757E+04  0.00000000000E+00 0. -1.
         22    1    1    2    0    0 -0.40867714531E+03 -0.23758772150E+03 -0.12066255140E+04  0.12959205475E+04  0.00000000000E+00 0. -1.
<mgrwt>
<rscale>  0 0.28725295E+04</rscale>
<asrwt>0</asrwt>
<pdfrwt beam="1">  1        2 0.19823119E+00 0.28725295E+04</pdfrwt>
<pdfrwt beam="2">  1       -2 0.24630334E+00 0.28725295E+04</pdfrwt>
<totfact> 0.98352088E-01</totfact>
</mgrwt>
</event>
<event>
 6    1  0.1817112E-005  0.1905166E+04  0.7818608E-02  0.8652289E-01
          1   -1    0    0  501    0  0.00000000000E+00  0.00000000000E+00  0.19852135411E+04  0.19852135411E+04  0.00000000000E+00 0. -1.
         -1   -1    0    0    0  501 -0.00000000000E+00 -0.00000000000E+00 -0.45708634068E+03  0.45708634068E+03  0.00000000000E+00 0.  1.
         23    2    1    2    0    0  0.55877429050E+03 -0.12464244943E+03  0.17384311078E+04  0.18323882641E+04  0.87974915534E+02 0.  0.
         11    1    3    3    0    0  0.39229672374E+03 -0.48444408581E+02  0.12336899353E+04  0.12954668798E+04  0.00000000000E+00 0.  1.
        -11    1    3    3    0    0  0.16647756676E+03 -0.76198040848E+02  0.50474117252E+03  0.53692138428E+03  0.00000000000E+00 0. -1.
         22    1    1    2    0    0 -0.55877429050E+03  0.12464244943E+03 -0.21030390741E+03  0.60991161769E+03  0.00000000000E+00 0.  1.
<mgrwt>
<rscale>  0 0.19051656E+04</rscale>
<asrwt>0</asrwt>
<pdfrwt beam="1">  1        1 0.30541746E+00 0.19051656E+04</pdfrwt>
<pdfrwt beam="2">  1       -1 0.70320976E-01 0.19051656E+04</pdfrwt>
<totfact> 0.58292701E+00</totfact>
</mgrwt>
</event>
<event>
 6    1  0.1817112E-005  0.2562879E+04  0.7818608E-02  0.8380921E-01
          2   -1    0    0  501    0  0.00000000000E+00  0.00000000000E+00  0.37555863591E+04  0.37555863591E+04  0.00000000000E+00 0. -1.
         -2   -1    0    0    0  501 -0.00000000000E+00 -0.00000000000E+00 -0.43723868043E+03  0.43723868043E+03  0.00000000000E+00 0.  1.
         23    2    1    2    0    0  0.34068706049E+03 -0.80596204906E+03  0.13331735989E+03  0.88978694873E+03  0.91130664303E+02 0.  0.
         11    1    3    3    0    0  0.23979790712E+03 -0.62327054138E+03  0.13383656291E+03  0.68108841539E+03  0.00000000000E+00 0. -1.
        -11    1    3    3    0    0  0.10088915337E+03 -0.18269150768E+03 -0.51920302184E+00  0.20869853334E+03  0.00000000000E+00 0.  1.
         22    1    1    2    0    0 -0.34068706049E+03  0.80596204906E+03  0.31850303188E+04  0.33030380908E+04  0.00000000000E+00 0. -1.
<mgrwt>
<rscale>  0 0.25628793E+04</rscale>
<asrwt>0</asrwt>
<pdfrwt beam="1">  1        2 0.57778249E+00 0.25628793E+04</pdfrwt>
<pdfrwt beam="2">  1       -2 0.67267492E-01 0.25628793E+04</pdfrwt>
<totfact> 0.95609946E-01</totfact>
</mgrwt>
</event>
<event>
 6    1  0.1817112E-005  0.4159504E+04  0.7818608E-02  0.7973120E-01
          2   -1    0    0  501    0  0.00000000000E+00  0.00000000000E+00  0.47746226414E+04  0.47746226414E+04  0.00000000000E+00 0. -1.
         -2   -1    0    0    0  501 -0.00000000000E+00 -0.00000000000E+00 -0.90590810582E+03  0.90590810582E+03  0.00000000000E+00 0.  1.
         23    2    1    2    0    0 -0.12932378331E+04 -0.14310951510E+04  0.87636970493E+03  0.21203867881E+04  0.86711285498E+02 0.  0.
         11    1    3    3    0    0 -0.10854089334E+04 -0.12437508441E+04  0.76095563390E+03  0.18177134515E+04  0.00000000000E+00 0. -1.
        -11    1    3    3    0    0 -0.20782889977E+03 -0.18734430691E+03  0.11541407103E+03  0.30267333662E+03  0.00000000000E+00 0.  1.
         22    1    1    2    0    0  0.12932378331E+04  0.14310951510E+04  0.29923448307E+04  0.35601439591E+04  0.00000000000E+00 0. -1.
<mgrwt>
<rscale>  0 0.41595045E+04</rscale>
<asrwt>0</asrwt>
<pdfrwt beam="1">  1        2 0.73455731E+00 0.41595045E+04</pdfrwt>
<pdfrwt beam="2">  1       -2 0.13937048E+00 0.41595045E+04</pdfrwt>
<totfact> 0.17804984E-02</totfact>
</mgrwt>
</event>
<event>
 6    1  0.1817112E-005  0.2902810E+04  0.7818608E-02  0.8272042E-01
          2   -1    0    0  501    0  0.00000000000E+00  0.00000000000E+00  0.11780171932E+04  0.11780171932E+04  0.00000000000E+00 0. -1.
         -2   -1    0    0    0  501 -0.00000000000E+00 -0.00000000000E+00 -0.17882397670E+04  0.17882397670E+04  0.00000000000E+00 0.  1.
         23    2    1    2    0    0 -0.97978248800E+03  0.10032778059E+04 -0.68241373194E+03  0.15620662172E+04  0.88443687903E+02 0.  0.
         11    1    3    3    0    0 -0.20404852633E+03  0.23655866303E+03 -0.11763621780E+03  0.33381743797E+03  0.00000000000E+00 0. -1.
        -11    1    3    3    0    0 -0.77573396167E+03  0.76671914282E+03 -0.56477751414E+03  0.12282487793E+04  0.00000000000E+00 0.  1.
         22    1    1    2    0    0  0.97978248800E+03 -0.10032778059E+04  0.72191158178E+02  0.14041907430E+04  0.00000000000E+00 0. -1.
<mgrwt>
<rscale>  0 0.29028105E+04</rscale>
<asrwt>0</asrwt>
<pdfrwt beam="1">  1        2 0.18123342E+00 0.29028105E+04</pdfrwt>
<pdfrwt beam="2">  1       -2 0.27511381E+00 0.29028105E+04</pdfrwt>
<totfact> 0.75989218E-01</totfact>
</mgrwt>
</event>
<event>
 6    1  0.1817112E-005  0.1875906E+04  0.7818608E-02  0.8666943E-01
         -2   -1    0    0    0  501 -0.00000000000E+00  0.00000000000E+00  0.13977030636E+04  0.13977030636E+04  0.00000000000E+00 0.  1.
          2   -1    0    0  501    0  0.00000000000E+00 -0.00000000000E+00 -0.62942945597E+03  0.62942945597E+03  0.00000000000E+00 0. -1.
         23    2    1    2    0    0 -0.41529582931E+03 -0.35010678393E+03 -0.43880779837E+03  0.70346681151E+03  0.85251891421E+02 0.  0.
         11    1    3    3    0    0 -0.13728888173E+03 -0.15136417477E+03 -0.20460269417E+03  0.28917401839E+03  0.00000000000E+00 0.  1.
        -11    1    3    3    0    0 -0.27800694758E+03 -0.19874260916E+03 -0.23420510420E+03  0.41429279312E+03  0.00000000000E+00 0. -1.
         22    1    1    2    0    0  0.41529582931E+03  0.35010678393E+03  0.12070814060E+04  0.13236657081E+04  0.00000000000E+00 0.  1.
<mgrwt>
<rscale>  0 0.18759056E+04</rscale>
<asrwt>0</asrwt>
<pdfrwt beam="1">  1        2 0.96835301E-01 0.18759056E+04</pdfrwt>
<pdfrwt beam="2">  1       -2 0.21503124E+00 0.18759056E+04</pdfrwt>
<totfact> 0.46633730E+00</totfact>
</mgrwt>
</event>
<event>
 6    1  0.1817112E-005  0.1099077E+04  0.7818608E-02  0.9206092E-01
         -2   -1    0    0    0  501 -0.00000000000E+00  0.00000000000E+00  0.44372247946E+03  0.44372247946E+03  0.00000000000E+00 0.  1.
          2   -1    0    0  501    0  0.00000000000E+00 -0.00000000000E+00 -0.68058936925E+03  0.68058936925E+03  0.00000000000E+00 0. -1.
         23    2    1    2    0    0  0.50073740196E+03 -0.11583888212E+03  0.69376882470E+02  0.52602944016E+03  0.87961512987E+02 0.  0.
         11    1    3    3    0    0  0.21781717380E+03 -0.57922799007E+02 -0.12882455181E+02  0.22575502098E+03  0.00000000000E+00 0. -1.
        -11    1    3    3    0    0  0.28292022816E+03 -0.57916083115E+02  0.82259337651E+02  0.30027441918E+03  0.00000000000E+00 0.  1.
         22    1    1    2    0    0 -0.50073740196E+03  0.11583888212E+03 -0.30624377226E+03  0.59828240855E+03  0.00000000000E+00 0. -1.
<mgrwt>
<rscale>  0 0.10990774E+04</rscale>
<asrwt>0</asrwt>
<pdfrwt beam="1">  1        2 0.10470606E+00 0.10990774E+04</pdfrwt>
<pdfrwt beam="2">  1       -2 0.68264997E-01 0.10990774E+04</pdfrwt>
<totfact> 0.82817766E+01</totfact>
</mgrwt>
</event>
<event>
 6    1  0.1817112E-005  0.4212788E+04  0.7818608E-02  0.7962944E-01
         -2   -1    0    0    0  501 -0.00000000000E+00  0.00000000000E+00  0.15536911369E+04  0.15536911369E+04  0.00000000000E+00 0.  1.
          2   -1    0    0  501    0  0.00000000000E+00 -0.00000000000E+00 -0.28557129762E+04  0.28557129762E+04  0.00000000000E+00 0. -1.
         23    2    1    2    0    0  0.31592157451E+03 -0.53987235516E+03  0.14530701921E+04  0.15841960318E+04  0.83639003112E+02 0.  0.
         13    1    3    3    0    0  0.20888276923E+03 -0.42618768619E+03  0.11144989626E+04  0.12113529183E+04  0.00000000000E+00 0. -1.
        -13    1    3    3    0    0  0.10703880528E+03 -0.11368466897E+03  0.33857122952E+03  0.37284311346E+03  0.00000000000E+00 0.  1.
         22    1    1    2    0    0 -0.31592157451E+03  0.53987235516E+03 -0.27550920315E+04  0.28252080813E+04  0.00000000000E+00 0. -1.
<mgrwt>
<rscale>  0 0.42127881E+04</rscale>
<asrwt>0</asrwt>
<pdfrwt beam="1">  1        2 0.43934046E+00 0.42127881E+04</pdfrwt>
<pdfrwt beam="2">  1       -2 0.23902941E+00 0.42127881E+04</pdfrwt>
<totfact> 0.12453190E-01</totfact>
</mgrwt>
</event>
<event>
 6    1  0.1817112E-005  0.9098070E+03  0.7818608E-02  0.9413405E-01
         -2   -1    0    0    0  501 -0.00000000000E+00  0.00000000000E+00  0.13431534212E+03  0.13431534212E+03  0.00000000000E+00 0.  1.
          2   -1    0    0  501    0  0.00000000000E+00 -0.00000000000E+00 -0.15406816971E+04  0.15406816971E+04  0.00000000000E+00 0. -1.
         23    2    1    2    0    0  0.29349550677E+03 -0.22168350865E+03 -0.23050435466E+03  0.44295213976E+03  0.88267491750E+02 0.  0.
         13    1    3    3    0    0  0.13758083901E+03 -0.15708458763E+03 -0.11434520763E+03  0.23807326906E+03  0.00000000000E+00 0.  1.
        -13    1    3    3    0    0  0.15591466776E+03 -0.64598921014E+02 -0.11615914704E+03  0.20487887070E+03  0.00000000000E+00 0. -1.
         22    1    1    2    0    0 -0.29349550677E+03  0.22168350865E+03 -0.11758620003E+04  0.12320448994E+04  0.00000000000E+00 0. -1.
<mgrwt>
<rscale>  0 0.90980699E+03</rscale>
<asrwt>0</asrwt>
<pdfrwt beam="1">  1        2 0.23702795E+00 0.90980699E+03</pdfrwt>
<pdfrwt beam="2">  1       -2 0.20663899E-01 0.90980699E+03</pdfrwt>
<totfact> 0.24357033E+02</totfact>
</mgrwt>
</event>
<event>
 6    1  0.1817112E-005  0.2824640E+04  0.7818608E-02  0.8295659E-01
         -2   -1    0    0    0  501 -0.00000000000E+00  0.00000000000E+00  0.60168212798E+03  0.60168212798E+03  0.00000000000E+00 0.  1.
          2   -1    0    0  501    0  0.00000000000E+00 -0.00000000000E+00 -0.33151191915E+04  0.33151191915E+04  0.00000000000E+00 0. -1.
         23    2    1    2    0    0 -0.48960193534E+03 -0.54392136007E+03  0.31446415088E+03  0.80171765043E+03  0.91120731969E+02 0.  0.
         11    1    3    3    0    0 -0.22219006432E+03 -0.29832349523E+03  0.12670595904E+03  0.39296276229E+03  0.00000000000E+00 0.  1.
        -11    1    3    3    0    0 -0.26741187103E+03 -0.24559786483E+03  0.18775819184E+03  0.40875488814E+03  0.00000000000E+00 0. -1.
         22    1    1    2    0    0  0.48960193534E+03  0.54392136007E+03 -0.30279012144E+04  0.31150836691E+04  0.00000000000E+00 0. -1.
<mgrwt>
<rscale>  0 0.28246401E+04</rscale>
<asrwt>0</asrwt>
<pdfrwt beam="1">  1        2 0.51001834E+00 0.28246401E+04</pdfrwt>
<pdfrwt beam="2">  1       -2 0.92566480E-01 0.28246401E+04</pdfrwt>
<totfact> 0.93534451E-01</totfact>
</mgrwt>
</event>
<event>
 6    1  0.1817112E-005  0.9327859E+03  0.7818608E-02  0.9385501E-01
          2   -1    0    0  501    0  0.00000000000E+00  0.00000000000E+00  0.16731832946E+03  0.16731832946E+03  0.00000000000E+00 0.  1.
         -2   -1    0    0    0  501 -0.00000000000E+00 -0.00000000000E+00 -0.13000512210E+04  0.13000512210E+04  0.00000000000E+00 0. -1.
         23    2    1    2    0    0  0.14979908192E+03 -0.40828437428E+03 -0.81830723739E+03  0.93071380682E+03  0.86403473383E+02 0.  0.
         13    1    3    3    0    0  0.11276991008E+03 -0.32968404083E+03 -0.71749522798E+03  0.79762649252E+03  0.00000000000E+00 0.  1.
        -13    1    3    3    0    0  0.37029171841E+02 -0.78600333449E+02 -0.10081200941E+03  0.13308731430E+03  0.00000000000E+00 0. -1.
         22    1    1    2    0    0 -0.14979908192E+03  0.40828437428E+03 -0.31442565419E+03  0.53665574369E+03  0.00000000000E+00 0. -1.
<mgrwt>
<rscale>  0 0.93278593E+03</rscale>
<asrwt>0</asrwt>
<pdfrwt beam="1">  1        2 0.25741282E-01 0.93278593E+03</pdfrwt>
<pdfrwt beam="2">  1       -2 0.20000788E+00 0.93278593E+03</pdfrwt>
<totfact> 0.28314673E+01</totfact>
</mgrwt>
</event>
<event>
 6    1  0.1817112E-005  0.2479143E+04  0.7818608E-02  0.8410454E-01
         -2   -1    0    0    0  501 -0.00000000000E+00  0.00000000000E+00  0.85917559020E+03  0.85917559020E+03  0.00000000000E+00 0.  1.
          2   -1    0    0  501    0  0.00000000000E+00 -0.00000000000E+00 -0.17883862047E+04  0.17883862047E+04  0.00000000000E+00 0. -1.
         23    2    1    2    0    0 -0.62736860995E+03  0.98000393135E+03 -0.91624599176E+03  0.14838749128E+04  0.91536665601E+02 0.  0.
         11    1    3    3    0    0 -0.49304346264E+03  0.76557036625E+03 -0.76339185448E+03  0.11882579540E+04  0.00000000000E+00 0. -1.
        -11    1    3    3    0    0 -0.13432514731E+03  0.21443356510E+03 -0.15285413729E+03  0.29561695880E+03  0.00000000000E+00 0.  1.
         22    1    1    2    0    0  0.62736860995E+03 -0.98000393135E+03 -0.12964622754E+02  0.11636868821E+04  0.00000000000E+00 0.  1.
<mgrwt>
<rscale>  0 0.24791432E+04</rscale>
<asrwt>0</asrwt>
<pdfrwt beam="1">  1        2 0.27513634E+00 0.24791432E+04</pdfrwt>
<pdfrwt beam="2">  1       -2 0.13218086E+00 0.24791432E+04</pdfrwt>
<totfact> 0.32579348E+00</totfact>
</mgrwt>
</event>
<event>
 6    1  0.1817112E-005  0.5130538E+04  0.7818608E-02  0.7808680E-01
          4   -1    0    0  501    0  0.00000000000E+00  0.00000000000E+00  0.22685874530E+04  0.22685874530E+04  0.00000000000E+00 0. -1.
         -4   -1    0    0    0  501 -0.00000000000E+00 -0.00000000000E+00 -0.29007498934E+04  0.29007498934E+04  0.00000000000E+00 0.  1.
         23    2    1    2    0    0 -0.14872563262E+04 -0.20887741969E+04 -0.27469730515E+03  0.25803818913E+04  0.89459877152E+02 0.  0.
         13    1    3    3    0    0 -0.10888304532E+04 -0.15002943605E+04 -0.23508210380E+03  0.18686087122E+04  0.00000000000E+00 0.  1.
        -13    1    3    3    0    0 -0.39842587304E+03 -0.58847983643E+03 -0.39615201353E+02  0.71177317902E+03  0.00000000000E+00 0. -1.
         22    1    1    2    0    0  0.14872563262E+04  0.20887741969E+04 -0.35746513519E+03  0.25889554551E+04  0.00000000000E+00 0.  1.
<mgrwt>
<rscale>  0 0.51305379E+04</rscale>
<asrwt>0</asrwt>
<pdfrwt beam="1">  1        4 0.34901345E+00 0.51305379E+04</pdfrwt>
<pdfrwt beam="2">  1       -4 0.44626922E+00 0.51305379E+04</pdfrwt>
<totfact> 0.65733600E-05</totfact>
</mgrwt>
</event>
<event>
 6    1  0.1817112E-005  0.1088075E+04  0.7818608E-02  0.9216894E-01
         -1   -1    0    0    0  501 -0.00000000000E+00  0.00000000000E+00  0.80978689305E+03  0.80978689305E+03  0.00000000000E+00 0.  1.
          1   -1    0    0  501    0  0.00000000000E+00 -0.00000000000E+00 -0.36549950012E+03  0.36549950012E+03  0.00000000000E+00 0. -1.
         23    2    1    2    0    0 -0.36307218058E+03  0.37414893205E+03  0.37691283836E+03  0.64959811837E+03  0.90031083495E+02 0.  0.
         11    1    3    3    0    0 -0.13321285054E+03  0.92647254216E+02  0.83353560491E+02  0.18241982707E+03  0.00000000000E+00 0. -1.
        -11    1    3    3    0    0 -0.22985933004E+03  0.28150167783E+03  0.29355927787E+03  0.46717829129E+03  0.00000000000E+00 0.  1.
         22    1    1    2    0    0  0.36307218058E+03 -0.37414893205E+03  0.67374554560E+02  0.52568827481E+03  0.00000000000E+00 0. -1.
<mgrwt>
<rscale>  0 0.10880748E+04</rscale>
<asrwt>0</asrwt>
<pdfrwt beam="1">  1        1 0.56230692E-01 0.10880748E+04</pdfrwt>
<pdfrwt beam="2">  1       -1 0.12458260E+00 0.10880748E+04</pdfrwt>
<totfact> 0.38074799E+01</totfact>
</mgrwt>
</event>
<event>
 6    1  0.1817112E-005  0.3788485E+04  0.7818608E-02  0.8048630E-01
         -2   -1    0    0    0  501 -0.00000000000E+00  0.00000000000E+00  0.94361903526E+03  0.94361903526E+03  0.00000000000E+00 0.  1.
          2   -1    0    0  501    0  0.00000000000E+00 -0.00000000000E+00 -0.38025466747E+04  0.38025466747E+04  0.00000000000E+00 0. -1.
         23    2    1    2    0    0 -0.78042541761E+03 -0.81375165255E+03  0.47494176592E+03  0.12267991765E+04  0.90614314941E+02 0.  0.
         13    1    3    3    0    0 -0.25842934635E+03 -0.25360400382E+03  0.10866336036E+03  0.37803233154E+03  0.00000000000E+00 0. -1.
        -13    1    3    3    0    0 -0.52199607126E+03 -0.56014764873E+03  0.36627840556E+03  0.84876684500E+03  0.00000000000E+00 0.  1.
         22    1    1    2    0    0  0.78042541761E+03  0.81375165255E+03 -0.33338694054E+04  0.35193665334E+04  0.00000000000E+00 0. -1.
<mgrwt>
<rscale>  0 0.37884854E+04</rscale>
<asrwt>0</asrwt>
<pdfrwt beam="1">  1        2 0.58500717E+00 0.37884854E+04</pdfrwt>
<pdfrwt beam="2">  1       -2 0.14517216E+00 0.37884854E+04</pdfrwt>
<totfact> 0.12784136E-01</totfact>
</mgrwt>
</event>
<event>
 6    1  0.1817112E-005  0.1796941E+04  0.7818608E-02  0.8707928E-01
         -2   -1    0    0    0  501 -0.00000000000E+00  0.00000000000E+00  0.30887820488E+03  0.30887820488E+03  0.00000000000E+00 0. -1.
          2   -1    0    0  501    0  0.00000000000E+00 -0.00000000000E+00 -0.26134876910E+04  0.26134876910E+04  0.00000000000E+00 0.  1.
         23    2    1    2    0    0 -0.56963232820E+03  0.67636006542E+03 -0.91841155377E+03  0.12781370082E+04  0.90611821724E+02 0.  0.
         13    1    3    3    0    0 -0.18521570920E+03  0.16342916099E+03 -0.28167568280E+03  0.37464001371E+03  0.00000000000E+00 0. -1.
        -13    1    3    3    0    0 -0.38441661900E+03  0.51293090443E+03 -0.63673587097E+03  0.90349699449E+03  0.00000000000E+00 0.  1.
         22    1    1    2    0    0  0.56963232820E+03 -0.67636006542E+03 -0.13861979324E+04  0.16442288877E+04  0.00000000000E+00 0.  1.
<mgrwt>
<rscale>  0 0.17969412E+04</rscale>
<asrwt>0</asrwt>
<pdfrwt beam="1">  1        2 0.40207501E+00 0.17969412E+04</pdfrwt>
<pdfrwt beam="2">  1       -2 0.47519726E-01 0.17969412E+04</pdfrwt>
<totfact> 0.11861601E+01</totfact>
</mgrwt>
</event>
<event>
 6    1  0.1817112E-005  0.5291900E+03  0.7818608E-02  0.1006429E+00
         -2   -1    0    0    0  501 -0.00000000000E+00  0.00000000000E+00  0.19614904374E+03  0.19614904374E+03  0.00000000000E+00 0.  1.
          2   -1    0    0  501    0  0.00000000000E+00 -0.00000000000E+00 -0.35692509733E+03  0.35692509733E+03  0.00000000000E+00 0. -1.
         23    2    1    2    0    0 -0.96943543389E+02  0.13875133603E+03 -0.28534976757E+03  0.34291088531E+03  0.86679879758E+02 0.  0.
         13    1    3    3    0    0 -0.35577277742E+02  0.10586056419E+03 -0.12230408910E+03  0.16562153228E+03  0.00000000000E+00 0. -1.
        -13    1    3    3    0    0 -0.61366265647E+02  0.32890771841E+02 -0.16304567847E+03  0.17728935303E+03  0.00000000000E+00 0.  1.
         22    1    1    2    0    0  0.96943543389E+02 -0.13875133603E+03  0.12457371398E+03  0.21016325576E+03  0.00000000000E+00 0.  1.
<mgrwt>
<rscale>  0 0.52919001E+03</rscale>
<asrwt>0</asrwt>
<pdfrwt beam="1">  1        2 0.54911552E-01 0.52919001E+03</pdfrwt>
<pdfrwt beam="2">  1       -2 0.30176777E-01 0.52919001E+03</pdfrwt>
<totfact> 0.91933066E+02</totfact>
</mgrwt>
</event>
<event>
 6    1  0.1817112E-005  0.1940200E+04  0.7818608E-02  0.8635101E-01
         -2   -1    0    0    0  501 -0.00000000000E+00  0.00000000000E+00  0.59383899772E+03  0.59383899772E+03  0.00000000000E+00 0.  1.
          2   -1    0    0  501    0  0.00000000000E+00 -0.00000000000E+00 -0.15847623649E+04  0.15847623649E+04  0.00000000000E+00 0. -1.
         23    2    1    2    0    0  0.27901699708E+03  0.75581681955E+02 -0.15335919440E+04  0.15637418180E+04  0.99101702144E+02 0.  0.
         11    1    3    3    0    0  0.19171520580E+03  0.80962685103E+02 -0.87723387542E+03  0.90158136000E+03  0.00000000000E+00 0. -1.
        -11    1    3    3    0    0  0.87301791277E+02 -0.53810031482E+01 -0.65635806856E+03  0.66216045799E+03  0.00000000000E+00 0.  1.
         22    1    1    2    0    0 -0.27901699708E+03 -0.75581681955E+02  0.54266857683E+03  0.61485954460E+03  0.00000000000E+00 0.  1.
<mgrwt>
<rscale>  0 0.19401997E+04</rscale>
<asrwt>0</asrwt>
<pdfrwt beam="1">  1        2 0.24380959E+00 0.19401997E+04</pdfrwt>
<pdfrwt beam="2">  1       -2 0.91359847E-01 0.19401997E+04</pdfrwt>
<totfact> 0.10838455E+01</totfact>
</mgrwt>
</event>
<event>
 6    1  0.1817112E-005  0.3181815E+04  0.7818608E-02  0.8193636E-01
         -2   -1    0    0    0  501 -0.00000000000E+00  0.00000000000E+00  0.96495379188E+03  0.96495379188E+03  0.00000000000E+00 0.  1.
          2   -1    0    0  501    0  0.00000000000E+00 -0.00000000000E+00 -0.26229099347E+04  0.26229099347E+04  0.00000000000E+00 0. -1.
         23    2    1    2    0    0  0.48325264520E+03  0.14610765056E+01 -0.25372612394E+04  0.25845129870E+04  0.92073499705E+02 0.  0.
         13    1    3    3    0    0  0.91465100073E+02  0.35157344356E+02 -0.45229196686E+03  0.46278496808E+03  0.00000000000E+00 0. -1.
        -13    1    3    3    0    0  0.39178754513E+03 -0.33696267850E+02 -0.20849692725E+04  0.21217280189E+04  0.00000000000E+00 0.  1.
         22    1    1    2    0    0 -0.48325264520E+03 -0.14610765056E+01  0.87930509654E+03  0.10033507396E+04  0.00000000000E+00 0.  1.
<mgrwt>
<rscale>  0 0.31818151E+04</rscale>
<asrwt>0</asrwt>
<pdfrwt beam="1">  1        2 0.40352460E+00 0.31818151E+04</pdfrwt>
<pdfrwt beam="2">  1       -2 0.14845443E+00 0.31818151E+04</pdfrwt>
<totfact> 0.76594625E-01</totfact>
</mgrwt>
</event>
<event>
 6    1  0.1817112E-005  0.2616979E+04  0.7818608E-02  0.8362457E-01
         -2   -1    0    0    0  501 -0.00000000000E+00  0.00000000000E+00  0.54216926219E+03  0.54216926219E+03  0.00000000000E+00 0.  1.
          2   -1    0    0  501    0  0.00000000000E+00 -0.00000000000E+00 -0.31579518118E+04  0.31579518118E+04  0.00000000000E+00 0. -1.
         23    2    1    2    0    0 -0.63254400093E+03 -0.10273621368E+04 -0.20202146421E+04  0.23546523803E+04  0.86808746387E+02 0.  0.
         11    1    3    3    0    0 -0.41952795286E+03 -0.71646127375E+03 -0.13182738672E+04  0.15579365998E+04  0.00000000000E+00 0.  1.
        -11    1    3    3    0    0 -0.21301604807E+03 -0.31090086308E+03 -0.70194077497E+03  0.79671578055E+03  0.00000000000E+00 0. -1.
         22    1    1    2    0    0  0.63254400093E+03  0.10273621368E+04 -0.59556790752E+03  0.13454686937E+04  0.00000000000E+00 0.  1.
<mgrwt>
<rscale>  0 0.26169787E+04</rscale>
<asrwt>0</asrwt>
<pdfrwt beam="1">  1        2 0.48583874E+00 0.26169787E+04</pdfrwt>
<pdfrwt beam="2">  1       -2 0.83410656E-01 0.26169787E+04</pdfrwt>
<totfact> 0.15343915E+00</totfact>
</mgrwt>
</event>
<event>
 6    1  0.1817112E-005  0.3949649E+04  0.7818608E-02  0.8014782E-01
         -2   -1    0    0    0  501 -0.00000000000E+00  0.00000000000E+00  0.14383879579E+04  0.14383879579E+04  0.00000000000E+00 0.  1.
          2   -1    0    0  501    0  0.00000000000E+00 -0.00000000000E+00 -0.27113206348E+04  0.27113206348E+04  0.00000000000E+00 0. -1.
         23    2    1    2    0    0 -0.11706315484E+04  0.15355091594E+04 -0.10671177490E+04  0.22079242623E+04  0.89569287423E+02 0.  0.
         11    1    3    3    0    0 -0.11316213576E+04  0.14851388477E+04 -0.10492388773E+04  0.21417531407E+04  0.00000000000E+00 0. -1.
        -11    1    3    3    0    0 -0.39010190820E+02  0.50370311724E+02 -0.17878871646E+02  0.66171121664E+02  0.00000000000E+00 0.  1.
         22    1    1    2    0    0  0.11706315484E+04 -0.15355091594E+04 -0.20581492797E+03  0.19417843303E+04  0.00000000000E+00 0. -1.
<mgrwt>
<rscale>  0 0.39496486E+04</rscale>
<asrwt>0</asrwt>
<pdfrwt beam="1">  1        2 0.41712625E+00 0.39496486E+04</pdfrwt>
<pdfrwt beam="2">  1       -2 0.22129046E+00 0.39496486E+04</pdfrwt>
<totfact> 0.20082914E-01</totfact>
</mgrwt>
</event>
<event>
 6    1  0.1817112E-005  0.2108496E+04  0.7818608E-02  0.8557510E-01
         -2   -1    0    0    0  501 -0.00000000000E+00  0.00000000000E+00  0.16681135360E+04  0.16681135360E+04  0.00000000000E+00 0.  1.
          2   -1    0    0  501    0  0.00000000000E+00 -0.00000000000E+00 -0.66628475260E+03  0.66628475260E+03  0.00000000000E+00 0. -1.
         23    2    1    2    0    0 -0.91538440787E+03 -0.28607748706E+03  0.98105953310E+03  0.13751275737E+04  0.93429618849E+02 0.  0.
         13    1    3    3    0    0 -0.39934215416E+03 -0.17239211640E+03  0.45711937800E+03  0.63099233246E+03  0.00000000000E+00 0.  1.
        -13    1    3    3    0    0 -0.51604225372E+03 -0.11368537066E+03  0.52394015511E+03  0.74413524124E+03  0.00000000000E+00 0. -1.
         22    1    1    2    0    0  0.91538440787E+03  0.28607748706E+03  0.20769250339E+02  0.95927071494E+03  0.00000000000E+00 0. -1.
<mgrwt>
<rscale>  0 0.21084958E+04</rscale>
<asrwt>0</asrwt>
<pdfrwt beam="1">  1        2 0.10250535E+00 0.21084958E+04</pdfrwt>
<pdfrwt beam="2">  1       -2 0.25663285E+00 0.21084958E+04</pdfrwt>
<totfact> 0.23488543E+00</totfact>
</mgrwt>
</event>
<event>
 6    1  0.1817112E-005  0.1050400E+04  0.7818608E-02  0.9254931E-01
          2   -1    0    0  501    0  0.00000000000E+00  0.00000000000E+00  0.14554302696E+04  0.14554302696E+04  0.00000000000E+00 0. -1.
         -2   -1    0    0    0  501 -0.00000000000E+00 -0.00000000000E+00 -0.18952129973E+03  0.18952129973E+03  0.00000000000E+00 0.  1.
         23    2    1    2    0    0  0.24675751470E+03  0.36474093074E+02  0.13544524617E+04  0.13802638656E+04  0.91472602726E+02 0.  0.
         11    1    3    3    0    0  0.32167744867E+02 -0.68300218713E+01  0.38498929999E+03  0.38639121899E+03  0.00000000000E+00 0. -1.
        -11    1    3    3    0    0  0.21458976984E+03  0.43304114945E+02  0.96946316176E+03  0.99387264661E+03  0.00000000000E+00 0.  1.
         22    1    1    2    0    0 -0.24675751470E+03 -0.36474093074E+02 -0.88543491899E+02  0.26468770369E+03  0.00000000000E+00 0.  1.
<mgrwt>
<rscale>  0 0.10504000E+04</rscale>
<asrwt>0</asrwt>
<pdfrwt beam="1">  1        2 0.22391234E+00 0.10504000E+04</pdfrwt>
<pdfrwt beam="2">  1       -2 0.29157124E-01 0.10504000E+04</pdfrwt>
<totfact> 0.14472378E+02</totfact>
</mgrwt>
</event>
<event>
 6    1  0.1817112E-005  0.1374200E+04  0.7818608E-02  0.8972709E-01
         -2   -1    0    0    0  501 -0.00000000000E+00  0.00000000000E+00  0.64539635481E+03  0.64539635481E+03  0.00000000000E+00 0.  1.
          2   -1    0    0  501    0  0.00000000000E+00 -0.00000000000E+00 -0.73149818693E+03  0.73149818693E+03  0.00000000000E+00 0. -1.
         23    2    1    2    0    0 -0.52219579211E+03  0.10130979207E+03 -0.47413948123E+03  0.71846813249E+03  0.91848192536E+02 0.  0.
         11    1    3    3    0    0 -0.89342835162E+02 -0.48821967646E+01 -0.11728387160E+03  0.14751774326E+03  0.00000000000E+00 0. -1.
        -11    1    3    3    0    0 -0.43285295695E+03  0.10619198883E+03 -0.35685560963E+03  0.57095038923E+03  0.00000000000E+00 0.  1.
         22    1    1    2    0    0  0.52219579211E+03 -0.10130979207E+03  0.38803764911E+03  0.65842640925E+03  0.00000000000E+00 0.  1.
<mgrwt>
<rscale>  0 0.13741998E+04</rscale>
<asrwt>0</asrwt>
<pdfrwt beam="1">  1        2 0.11253818E+00 0.13741998E+04</pdfrwt>
<pdfrwt beam="2">  1       -2 0.99291747E-01 0.13741998E+04</pdfrwt>
<totfact> 0.31733337E+01</totfact>
</mgrwt>
</event>
<event>
 6    1  0.1817112E-005  0.6859166E+04  0.7818608E-02  0.7592137E-01
         -2   -1    0    0    0  501 -0.00000000000E+00  0.00000000000E+00  0.27580492517E+04  0.27580492517E+04  0.00000000000E+00 0.  1.
          2   -1    0    0  501    0  0.00000000000E+00 -0.00000000000E+00 -0.42646222761E+04  0.42646222761E+04  0.00000000000E+00 0. -1.
         23    2    1    2    0    0 -0.41666452810E+03  0.33096686285E+04  0.60325357871E+02  0.33372019106E+04  0.75905755002E+02 0.  0.
         13    1    3    3    0    0 -0.50119533919E+02  0.31115074225E+03  0.25081217571E+02  0.31615790288E+03  0.00000000000E+00 0. -1.
        -13    1    3    3    0    0 -0.36654499418E+03  0.29985178863E+04  0.35244140300E+02  0.30210440077E+04  0.00000000000E+00 0.  1.
         22    1    1    2    0    0  0.41666452810E+03 -0.33096686285E+04 -0.15668983823E+04  0.36854696173E+04  0.00000000000E+00 0. -1.
<mgrwt>
<rscale>  0 0.68591656E+04</rscale>
<asrwt>0</asrwt>
<pdfrwt beam="1">  1        2 0.65609573E+00 0.68591656E+04</pdfrwt>
<pdfrwt beam="2">  1       -2 0.42431527E+00 0.68591656E+04</pdfrwt>
<totfact> 0.65634937E-04</totfact>
</mgrwt>
</event>
<event>
 6    1  0.1817112E-005  0.3149274E+04  0.7818608E-02  0.8202344E-01
          1   -1    0    0  501    0  0.00000000000E+00  0.00000000000E+00  0.16351868999E+04  0.16351868999E+04  0.00000000000E+00 0. -1.
         -1   -1    0    0    0  501 -0.00000000000E+00 -0.00000000000E+00 -0.15163287472E+04  0.15163287472E+04  0.00000000000E+00 0.  1.
         23    2    1    2    0    0  0.77200485661E+03 -0.13418927573E+04  0.33815010732E+03  0.15879438924E+04  0.10272604104E+03 0.  0.
         13    1    3    3    0    0  0.51744656862E+03 -0.92328110726E+03  0.27826683425E+03  0.10943634613E+04  0.00000000000E+00 0.  1.
        -13    1    3    3    0    0  0.25455828799E+03 -0.41861165007E+03  0.59883273064E+02  0.49358043108E+03  0.00000000000E+00 0. -1.
         22    1    1    2    0    0 -0.77200485661E+03  0.13418927573E+04 -0.21929195459E+03  0.15635717547E+04  0.00000000000E+00 0.  1.
<mgrwt>
<rscale>  0 0.31492735E+04</rscale>
<asrwt>0</asrwt>
<pdfrwt beam="1">  1        1 0.25156722E+00 0.31492735E+04</pdfrwt>
<pdfrwt beam="2">  1       -1 0.23328135E+00 0.31492735E+04</pdfrwt>
<totfact> 0.39822366E-01</totfact>
</mgrwt>
</event>
<event>
 6    1  0.1817112E-005  0.1560921E+04  0.7818608E-02  0.8844922E-01
          1   -1    0    0  501    0  0.00000000000E+00  0.00000000000E+00  0.28679531932E+04  0.28679531932E+04  0.00000000000E+00 0. -1.
         -1   -1    0    0    0  501 -0.00000000000E+00 -0.00000000000E+00 -0.21238802496E+03  0.21238802496E+03  0.00000000000E+00 0.  1.
         23    2    1    2    0    0  0.28418740366E+03 -0.67373075373E+03  0.18544120518E+04  0.19956652643E+04  0.95708830759E+02 0.  0.
         11    1    3    3    0    0  0.23416162562E+03 -0.55689113010E+03  0.14231543636E+04  0.15460684785E+04  0.00000000000E+00 0.  1.
        -11    1    3    3    0    0  0.50025778043E+02 -0.11683962363E+03  0.43125768825E+03  0.44959678579E+03  0.00000000000E+00 0. -1.
         22    1    1    2    0    0 -0.28418740366E+03  0.67373075373E+03  0.80115311643E+03  0.10846759539E+04  0.00000000000E+00 0.  1.
<mgrwt>
<rscale>  0 0.15609214E+04</rscale>
<asrwt>0</asrwt>
<pdfrwt beam="1">  1        1 0.44122354E+00 0.15609214E+04</pdfrwt>
<pdfrwt beam="2">  1       -1 0.32675083E-01 0.15609214E+04</pdfrwt>
<totfact> 0.63202548E+00</totfact>
</mgrwt>
</event>
<event>
 6    1  0.1817112E-005  0.1748982E+04  0.7818608E-02  0.8733911E-01
         -1   -1    0    0    0  501 -0.00000000000E+00  0.00000000000E+00  0.40106317400E+03  0.40106317400E+03  0.00000000000E+00 0.  1.
          1   -1    0    0  501    0  0.00000000000E+00 -0.00000000000E+00 -0.19067682132E+04  0.19067682132E+04  0.00000000000E+00 0. -1.
         23    2    1    2    0    0 -0.59324131606E+03 -0.74239022950E+02 -0.15927981914E+04  0.17036526812E+04  0.89329099761E+02 0.  0.
         11    1    3    3    0    0 -0.47426852158E+03 -0.49937619728E+02 -0.11615949179E+04  0.12556779641E+04  0.00000000000E+00 0.  1.
        -11    1    3    3    0    0 -0.11897279447E+03 -0.24301403223E+02 -0.43120327352E+03  0.44797471706E+03  0.00000000000E+00 0. -1.
         22    1    1    2    0    0  0.59324131606E+03  0.74239022950E+02  0.87093152199E+02  0.60417870598E+03  0.00000000000E+00 0.  1.
<mgrwt>
<rscale>  0 0.17489820E+04</rscale>
<asrwt>0</asrwt>
<pdfrwt beam="1">  1        1 0.29334896E+00 0.17489820E+04</pdfrwt>
<pdfrwt beam="2">  1       -1 0.61702026E-01 0.17489820E+04</pdfrwt>
<totfact> 0.87047535E+00</totfact>
</mgrwt>
</event>
<event>
 6    1  0.1817112E-005  0.1160646E+04  0.7818608E-02  0.9148018E-01
          1   -1    0    0  501    0  0.00000000000E+00  0.00000000000E+00  0.30779021508E+03  0.30779021508E+03  0.00000000000E+00 0. -1.
         -1   -1    0    0    0  501 -0.00000000000E+00 -0.00000000000E+00 -0.10941696212E+04  0.10941696212E+04  0.00000000000E+00 0.  1.
         23    2    1    2    0    0 -0.44107102128E+02 -0.49858992813E+03 -0.49686769661E+02  0.51131209811E+03  0.91836450891E+02 0.  0.
         13    1    3    3    0    0  0.48531826168E+00 -0.35674858402E+03 -0.62082600577E+02  0.36211053151E+03  0.00000000000E+00 0.  1.
        -13    1    3    3    0    0 -0.44592420389E+02 -0.14184134411E+03  0.12395830916E+02  0.14920156661E+03  0.00000000000E+00 0. -1.
         22    1    1    2    0    0  0.44107102128E+02  0.49858992813E+03 -0.73669263648E+03  0.89064773818E+03  0.00000000000E+00 0.  1.
<mgrwt>
<rscale>  0 0.11606459E+04</rscale>
<asrwt>0</asrwt>
<pdfrwt beam="1">  1        1 0.47352342E-01 0.11606459E+04</pdfrwt>
<pdfrwt beam="2">  1       -1 0.16833378E+00 0.11606459E+04</pdfrwt>
<totfact> 0.21299935E+01</totfact>
</mgrwt>
</event>
<event>
 6    1  0.1817112E-005  0.1579140E+04  0.7818608E-02  0.8833466E-01
         -2   -1    0    0    0  501 -0.00000000000E+00  0.00000000000E+00  0.16221262288E+04  0.16221262288E+04  0.00000000000E+00 0.  1.
          2   -1    0    0  501    0  0.00000000000E+00 -0.00000000000E+00 -0.38432331477E+03  0.38432331477E+03  0.00000000000E+00 0. -1.
         23    2    1    2    0    0 -0.30052765159E+03 -0.32784616107E+03  0.14456441032E+04  0.15155341389E+04  0.95691578085E+02 0.  0.
         13    1    3    3    0    0 -0.27263031858E+03 -0.24182689513E+03  0.11476893150E+04  0.12041587526E+04  0.00000000000E+00 0.  1.
        -13    1    3    3    0    0 -0.27897333009E+02 -0.86019265942E+02  0.29795478827E+03  0.31137538624E+03  0.00000000000E+00 0. -1.
         22    1    1    2    0    0  0.30052765159E+03  0.32784616107E+03 -0.20784118918E+03  0.49091540475E+03  0.00000000000E+00 0. -1.
<mgrwt>
<rscale>  0 0.15791402E+04</rscale>
<asrwt>0</asrwt>
<pdfrwt beam="1">  1        2 0.59126665E-01 0.15791402E+04</pdfrwt>
<pdfrwt beam="2">  1       -2 0.24955788E+00 0.15791402E+04</pdfrwt>
<totfact> 0.51684138E+00</totfact>
</mgrwt>
</event>
<event>
 6    1  0.1817112E-005  0.4225841E+04  0.7818608E-02  0.7960475E-01
         -2   -1    0    0    0  501 -0.00000000000E+00  0.00000000000E+00  0.15871189307E+04  0.15871189307E+04  0.00000000000E+00 0. -1.
          2   -1    0    0  501    0  0.00000000000E+00 -0.00000000000E+00 -0.28129166743E+04  0.28129166743E+04  0.00000000000E+00 0.  1.
         23    2    1    2    0    0  0.11846326055E+04 -0.13549388575E+04  0.53839297593E+03  0.18798009705E+04  0.67608982466E+02 0.  0.
         13    1    3    3    0    0  0.14959996618E+03 -0.15460967943E+03  0.84465170960E+02  0.23112478871E+03  0.00000000000E+00 0.  1.
        -13    1    3    3    0    0  0.10350326393E+04 -0.12003291781E+04  0.45392780497E+03  0.16486761818E+04  0.00000000000E+00 0. -1.
         22    1    1    2    0    0 -0.11846326055E+04  0.13549388575E+04 -0.17641907196E+04  0.25202346344E+04  0.00000000000E+00 0.  1.
<mgrwt>
<rscale>  0 0.42258411E+04</rscale>
<asrwt>0</asrwt>
<pdfrwt beam="1">  1        2 0.43275641E+00 0.42258411E+04</pdfrwt>
<pdfrwt beam="2">  1       -2 0.24417215E+00 0.42258411E+04</pdfrwt>
<totfact> 0.12277199E-01</totfact>
</mgrwt>
</event>
<event>
 6    1  0.2048188E-005  0.3273440E+04  0.7818608E-02  0.8169687E-01
          2   -1    0    0  501    0  0.00000000000E+00  0.00000000000E+00  0.16592406105E+04  0.16592406105E+04  0.00000000000E+00 0. -1.
         -2   -1    0    0    0  501 -0.00000000000E+00 -0.00000000000E+00 -0.16145046485E+04  0.16145046485E+04  0.00000000000E+00 0.  1.
         23    2    1    2    0    0  0.97553886086E+03 -0.10487518253E+04 -0.76697397053E+03  0.16274070572E+04  0.92995689305E+02 0.  0.
         11    1    3    3    0    0  0.22081220288E+03 -0.22864748638E+03 -0.21440447486E+03  0.38341489383E+03  0.00000000000E+00 0.  1.
        -11    1    3    3    0    0  0.75472665798E+03 -0.82010433896E+03 -0.55256949567E+03  0.12439921634E+04  0.00000000000E+00 0. -1.
         22    1    1    2    0    0 -0.97553886086E+03  0.10487518253E+04  0.81170993251E+03  0.16463382018E+04  0.00000000000E+00 0. -1.
<mgrwt>
<rscale>  0 0.32734396E+04</rscale>
<asrwt>0</asrwt>
<pdfrwt beam="1">  1        2 0.25526779E+00 0.32734396E+04</pdfrwt>
<pdfrwt beam="2">  1       -2 0.24838533E+00 0.32734396E+04</pdfrwt>
<totfact> 0.56871302E-01</totfact>
</mgrwt>
</event>
<event>
 6    1  0.1817112E-005  0.2685889E+04  0.7818608E-02  0.8339598E-01
         -2   -1    0    0    0  501 -0.00000000000E+00  0.00000000000E+00  0.87154661796E+03  0.87154661796E+03  0.00000000000E+00 0.  1.
          2   -1    0    0  501    0  0.00000000000E+00 -0.00000000000E+00 -0.20693096619E+04  0.20693096619E+04  0.00000000000E+00 0. -1.
         23    2    1    2    0    0  0.12865972151E+04  0.24223687416E+02 -0.18397301215E+03  0.13026592803E+04  0.84592850931E+02 0.  0.
         13    1    3    3    0    0  0.10436959281E+04  0.65199967724E+01 -0.11819657346E+03  0.10503876097E+04  0.00000000000E+00 0. -1.
        -13    1    3    3    0    0  0.24290128695E+03  0.17703690643E+02 -0.65776438688E+02  0.25227167053E+03  0.00000000000E+00 0.  1.
         22    1    1    2    0    0 -0.12865972151E+04 -0.24223687416E+02 -0.10137900318E+04  0.16381969995E+04  0.00000000000E+00 0. -1.
<mgrwt>
<rscale>  0 0.26858889E+04</rscale>
<asrwt>0</asrwt>
<pdfrwt beam="1">  1        2 0.31835533E+00 0.26858889E+04</pdfrwt>
<pdfrwt beam="2">  1       -2 0.13408410E+00 0.26858889E+04</pdfrwt>
<totfact> 0.21552098E+00</totfact>
</mgrwt>
</event>
<event>
 6    1  0.1817112E-005  0.1809152E+04  0.7818608E-02  0.8701448E-01
          2   -1    0    0  501    0  0.00000000000E+00  0.00000000000E+00  0.27709987633E+04  0.27709987633E+04  0.00000000000E+00 0. -1.
         -2   -1    0    0    0  501 -0.00000000000E+00 -0.00000000000E+00 -0.29529329019E+03  0.29529329019E+03  0.00000000000E+00 0.  1.
         23    2    1    2    0    0  0.68394860565E+03  0.28502133602E+03  0.21135926654E+04  0.22415808660E+04  0.91585843382E+02 0.  0.
         11    1    3    3    0    0  0.29714768765E+03  0.75078205264E+02  0.87346664218E+03  0.92567675794E+03  0.00000000000E+00 0. -1.
        -11    1    3    3    0    0  0.38680091800E+03  0.20994313076E+03  0.12401260232E+04  0.13159041081E+04  0.00000000000E+00 0.  1.
         22    1    1    2    0    0 -0.68394860565E+03 -0.28502133602E+03  0.36211280772E+03  0.82471118743E+03  0.00000000000E+00 0.  1.
<mgrwt>
<rscale>  0 0.18091516E+04</rscale>
<asrwt>0</asrwt>
<pdfrwt beam="1">  1        2 0.42630748E+00 0.18091516E+04</pdfrwt>
<pdfrwt beam="2">  1       -2 0.45429739E-01 0.18091516E+04</pdfrwt>
<totfact> 0.10461005E+01</totfact>
</mgrwt>
</event>
<event>
 6    1  0.1817112E-005  0.3540062E+04  0.7818608E-02  0.8104361E-01
          2   -1    0    0  501    0  0.00000000000E+00  0.00000000000E+00  0.24931944361E+04  0.24931944361E+04  0.00000000000E+00 0. -1.
         -2   -1    0    0    0  501 -0.00000000000E+00 -0.00000000000E+00 -0.12566246667E+04  0.12566246667E+04  0.00000000000E+00 0.  1.
         23    2    1    2    0    0 -0.91320580835E+03  0.12929387629E+04 -0.21755030260E+03  0.16003771574E+04  0.90793274591E+02 0.  0.
         11    1    3    3    0    0 -0.31088890782E+03  0.46250378665E+03 -0.11847241601E+03  0.56973448117E+03  0.00000000000E+00 0.  1.
        -11    1    3    3    0    0 -0.60231690053E+03  0.83043497626E+03 -0.99077886596E+02  0.10306426762E+04  0.00000000000E+00 0. -1.
         22    1    1    2    0    0  0.91320580835E+03 -0.12929387629E+04  0.14541200720E+04  0.21494419455E+04  0.00000000000E+00 0. -1.
<mgrwt>
<rscale>  0 0.35400619E+04</rscale>
<asrwt>0</asrwt>
<pdfrwt beam="1">  1        2 0.38356837E+00 0.35400619E+04</pdfrwt>
<pdfrwt beam="2">  1       -2 0.19332687E+00 0.35400619E+04</pdfrwt>
<totfact> 0.42362322E-01</totfact>
</mgrwt>
</event>
<event>
 6    1  0.1817112E-005  0.5221936E+04  0.7818608E-02  0.7795155E-01
         -2   -1    0    0    0  501 -0.00000000000E+00  0.00000000000E+00  0.36499645009E+04  0.36499645009E+04  0.00000000000E+00 0.  1.
          2   -1    0    0  501    0  0.00000000000E+00 -0.00000000000E+00 -0.18677315872E+04  0.18677315872E+04  0.00000000000E+00 0. -1.
         23    2    1    2    0    0 -0.25820792026E+03 -0.14574357343E+04  0.31631060294E+04  0.34934429390E+04  0.90075331299E+02 0.  0.
         11    1    3    3    0    0 -0.81250456686E+02 -0.49649063851E+03  0.11762349187E+04  0.12793096477E+04  0.00000000000E+00 0. -1.
        -11    1    3    3    0    0 -0.17695746357E+03 -0.96094509577E+03  0.19868711107E+04  0.22141332913E+04  0.00000000000E+00 0.  1.
         22    1    1    2    0    0  0.25820792026E+03  0.14574357343E+04 -0.13808731157E+04  0.20242531490E+04  0.00000000000E+00 0. -1.
<mgrwt>
<rscale>  0 0.52219360E+04</rscale>
<asrwt>0</asrwt>
<pdfrwt beam="1">  1        2 0.28734332E+00 0.52219360E+04</pdfrwt>
<pdfrwt beam="2">  1       -2 0.56153300E+00 0.52219360E+04</pdfrwt>
<totfact> 0.42852784E-03</totfact>
</mgrwt>
</event>
<event>
 6    1  0.1817112E-005  0.3854027E+04  0.7818608E-02  0.8034659E-01
          2   -1    0    0  501    0  0.00000000000E+00  0.00000000000E+00  0.21062976621E+04  0.21062976621E+04  0.00000000000E+00 0. -1.
         -2   -1    0    0    0  501 -0.00000000000E+00 -0.00000000000E+00 -0.17629898985E+04  0.17629898985E+04  0.00000000000E+00 0.  1.
         23    2    1    2    0    0  0.91537107747E+03  0.87003904219E+03 -0.12882407365E+04  0.18060806751E+04  0.86550942630E+02 0.  0.
         13    1    3    3    0    0  0.76069723126E+03  0.74406180830E+03 -0.11227613612E+04  0.15468940902E+04  0.00000000000E+00 0. -1.
        -13    1    3    3    0    0  0.15467384621E+03  0.12597723390E+03 -0.16547937525E+03  0.25918658490E+03  0.00000000000E+00 0.  1.
         22    1    1    2    0    0 -0.91537107747E+03 -0.87003904219E+03  0.16315485000E+04  0.20632068855E+04  0.00000000000E+00 0. -1.
<mgrwt>
<rscale>  0 0.38540272E+04</rscale>
<asrwt>0</asrwt>
<pdfrwt beam="1">  1        2 0.32404579E+00 0.38540272E+04</pdfrwt>
<pdfrwt beam="2">  1       -2 0.27122922E+00 0.38540272E+04</pdfrwt>
<totfact> 0.22165137E-01</totfact>
</mgrwt>
</event>
<event>
 6    1  0.1817112E-005  0.2878863E+04  0.7818608E-02  0.8279194E-01
         -2   -1    0    0    0  501 -0.00000000000E+00  0.00000000000E+00  0.73126022978E+03  0.73126022978E+03  0.00000000000E+00 0.  1.
          2   -1    0    0  501    0  0.00000000000E+00 -0.00000000000E+00 -0.28334144539E+04  0.28334144539E+04  0.00000000000E+00 0. -1.
         23    2    1    2    0    0 -0.10677725168E+04  0.36195413741E+03  0.52830035730E+02  0.11325755686E+04  0.93741456885E+02 0.  0.
         11    1    3    3    0    0 -0.16319254377E+03  0.74577195857E+02  0.37594538084E+02  0.18332188570E+03  0.00000000000E+00 0. -1.
        -11    1    3    3    0    0 -0.90457997304E+03  0.28737694155E+03  0.15235497645E+02  0.94925368292E+03  0.00000000000E+00 0.  1.
         22    1    1    2    0    0  0.10677725168E+04 -0.36195413741E+03 -0.21549842599E+04  0.24320991151E+04  0.00000000000E+00 0. -1.
<mgrwt>
<rscale>  0 0.28788632E+04</rscale>
<asrwt>0</asrwt>
<pdfrwt beam="1">  1        2 0.43590992E+00 0.28788632E+04</pdfrwt>
<pdfrwt beam="2">  1       -2 0.11250157E+00 0.28788632E+04</pdfrwt>
<totfact> 0.11864195E+00</totfact>
</mgrwt>
</event>
<event>
 6    1  0.1817112E-005  0.1760591E+04  0.7818608E-02  0.8727542E-01
          2   -1    0    0  501    0  0.00000000000E+00  0.00000000000E+00  0.23057758784E+04  0.23057758784E+04  0.00000000000E+00 0. -1.
         -2   -1    0    0    0  501 -0.00000000000E+00 -0.00000000000E+00 -0.33607800184E+03  0.33607800184E+03  0.00000000000E+00 0.  1.
         23    2    1    2    0    0  0.50825584194E+03  0.87429032624E+02 -0.78464076986E+02  0.52976126282E+03  0.92317645090E+02 0.  0.
         13    1    3    3    0    0  0.29200984341E+03  0.87224604402E+02 -0.73317743373E+02  0.31345393881E+03  0.00000000000E+00 0. -1.
        -13    1    3    3    0    0  0.21624599853E+03  0.20442822229E+00 -0.51463336134E+01  0.21630732401E+03  0.00000000000E+00 0.  1.
         22    1    1    2    0    0 -0.50825584194E+03 -0.87429032624E+02  0.20481619536E+04  0.21120926175E+04  0.00000000000E+00 0. -1.
<mgrwt>
<rscale>  0 0.17605914E+04</rscale>
<asrwt>0</asrwt>
<pdfrwt beam="1">  1        2 0.35473474E+00 0.17605914E+04</pdfrwt>
<pdfrwt beam="2">  1       -2 0.51704309E-01 0.17605914E+04</pdfrwt>
<totfact> 0.15064422E+01</totfact>
</mgrwt>
</event>
<event>
 6    1  0.1817112E-005  0.1290209E+04  0.7818608E-02  0.9037366E-01
         -2   -1    0    0    0  501 -0.00000000000E+00  0.00000000000E+00  0.12115625111E+03  0.12115625111E+03  0.00000000000E+00 0.  1.
          2   -1    0    0  501    0  0.00000000000E+00 -0.00000000000E+00 -0.34349014103E+04  0.34349014103E+04  0.00000000000E+00 0. -1.
         23    2    1    2    0    0 -0.47512647799E+03 -0.98466973161E+02 -0.28234171416E+04  0.28662297990E+04  0.90266219324E+02 0.  0.
         11    1    3    3    0    0 -0.28153251928E+03 -0.24129992096E+02 -0.14542749873E+04  0.14814717529E+04  0.00000000000E+00 0. -1.
        -11    1    3    3    0    0 -0.19359395872E+03 -0.74336981065E+02 -0.13691421543E+04  0.13847580461E+04  0.00000000000E+00 0.  1.
         22    1    1    2    0    0  0.47512647799E+03  0.98466973161E+02 -0.49032801755E+03  0.68982786236E+03  0.00000000000E+00 0. -1.
<mgrwt>
<rscale>  0 0.12902089E+04</rscale>
<asrwt>0</asrwt>
<pdfrwt beam="1">  1        2 0.52844634E+00 0.12902089E+04</pdfrwt>
<pdfrwt beam="2">  1       -2 0.18639424E-01 0.12902089E+04</pdfrwt>
<totfact> 0.21828531E+01</totfact>
</mgrwt>
</event>
<event>
 6    1  0.1817112E-005  0.2415251E+04  0.7818608E-02  0.8433816E-01
         -2   -1    0    0    0  501 -0.00000000000E+00  0.00000000000E+00  0.12240075346E+04  0.12240075346E+04  0.00000000000E+00 0.  1.
          2   -1    0    0  501    0  0.00000000000E+00 -0.00000000000E+00 -0.11914631602E+04  0.11914631602E+04  0.00000000000E+00 0. -1.
         23    2    1    2    0    0 -0.94959256915E+03 -0.74015586596E+03  0.82312768558E+02  0.12104671071E+04  0.94331713849E+02 0.  0.
         11    1    3    3    0    0 -0.82744115074E+03 -0.63773990925E+03  0.39593833673E+02  0.10454370959E+04  0.00000000000E+00 0. -1.
        -11    1    3    3    0    0 -0.12215141841E+03 -0.10241595672E+03  0.42718934885E+02  0.16503001123E+03  0.00000000000E+00 0.  1.
         22    1    1    2    0    0  0.94959256915E+03  0.74015586596E+03 -0.49768394230E+02  0.12050035877E+04  0.00000000000E+00 0. -1.
<mgrwt>
<rscale>  0 0.24152514E+04</rscale>
<asrwt>0</asrwt>
<pdfrwt beam="1">  1        2 0.18330202E+00 0.24152514E+04</pdfrwt>
<pdfrwt beam="2">  1       -2 0.18830885E+00 0.24152514E+04</pdfrwt>
<totfact> 0.27387499E+00</totfact>
</mgrwt>
</event>
<event>
 6    1  0.1817112E-005  0.2850451E+04  0.7818608E-02  0.8287774E-01
          2   -1    0    0  501    0  0.00000000000E+00  0.00000000000E+00  0.16176924560E+04  0.16176924560E+04  0.00000000000E+00 0.  1.
         -2   -1    0    0    0  501 -0.00000000000E+00 -0.00000000000E+00 -0.12556578612E+04  0.12556578612E+04  0.00000000000E+00 0. -1.
         23    2    1    2    0    0 -0.99725309947E+03  0.10019146354E+04  0.35085250900E+03  0.14596771866E+04  0.95986067498E+02 0.  0.
         13    1    3    3    0    0 -0.73485261592E+03  0.77964548481E+03  0.23547600146E+03  0.10969523218E+04  0.00000000000E+00 0. -1.
        -13    1    3    3    0    0 -0.26240048355E+03  0.22226915056E+03  0.11537650753E+03  0.36272486481E+03  0.00000000000E+00 0.  1.
         22    1    1    2    0    0  0.99725309947E+03 -0.10019146354E+04  0.11182085775E+02  0.14136731305E+04  0.00000000000E+00 0. -1.
<mgrwt>
<rscale>  0 0.28504514E+04</rscale>
<asrwt>0</asrwt>
<pdfrwt beam="1">  1        2 0.24887576E+00 0.28504514E+04</pdfrwt>
<pdfrwt beam="2">  1       -2 0.19317813E+00 0.28504514E+04</pdfrwt>
<totfact> 0.13943128E+00</totfact>
</mgrwt>
</event>
<event>
 6    1  0.1945480E-005  0.5162069E+04  0.7818608E-02  0.7803981E-01
         -2   -1    0    0    0  501 -0.00000000000E+00  0.00000000000E+00  0.21837529882E+04  0.21837529882E+04  0.00000000000E+00 0. -1.
          2   -1    0    0  501    0  0.00000000000E+00 -0.00000000000E+00 -0.30505923231E+04  0.30505923231E+04  0.00000000000E+00 0.  1.
         23    2    1    2    0    0 -0.13080399636E+04 -0.44658247377E+03  0.17755945321E+04  0.22522552399E+04  0.97535997562E+02 0.  0.
         11    1    3    3    0    0 -0.74437716068E+03 -0.25149352981E+03  0.93032939913E+03  0.12177270399E+04  0.00000000000E+00 0.  1.
        -11    1    3    3    0    0 -0.56366280288E+03 -0.19508894396E+03  0.84526513300E+03  0.10345281999E+04  0.00000000000E+00 0. -1.
         22    1    1    2    0    0  0.13080399636E+04  0.44658247377E+03 -0.26424338671E+04  0.29820900714E+04  0.00000000000E+00 0.  1.
<mgrwt>
<rscale>  0 0.51620694E+04</rscale>
<asrwt>0</asrwt>
<pdfrwt beam="1">  1        2 0.46932190E+00 0.51620694E+04</pdfrwt>
<pdfrwt beam="2">  1       -2 0.33596200E+00 0.51620694E+04</pdfrwt>
<totfact> 0.22148030E-02</totfact>
</mgrwt>
</event>
<event>
 6    1  0.1817112E-005  0.1465921E+04  0.7818608E-02  0.8907436E-01
         -2   -1    0    0    0  501 -0.00000000000E+00  0.00000000000E+00  0.36842791027E+03  0.36842791027E+03  0.00000000000E+00 0. -1.
          2   -1    0    0  501    0  0.00000000000E+00 -0.00000000000E+00 -0.14581723160E+04  0.14581723160E+04  0.00000000000E+00 0.  1.
         23    2    1    2    0    0  0.20454744115E+03  0.46258591181E+03 -0.12031636951E+04  0.13082477240E+04  0.89910224988E+02 0.  0.
         11    1    3    3    0    0  0.97774752594E+02  0.26757500072E+03 -0.77696542555E+03  0.82754550071E+03  0.00000000000E+00 0.  1.
        -11    1    3    3    0    0  0.10677268856E+03  0.19501091109E+03 -0.42619826955E+03  0.48070222325E+03  0.00000000000E+00 0. -1.
         22    1    1    2    0    0 -0.20454744115E+03 -0.46258591181E+03  0.11341928935E+03  0.51835250234E+03  0.00000000000E+00 0.  1.
<mgrwt>
<rscale>  0 0.14659214E+04</rscale>
<asrwt>0</asrwt>
<pdfrwt beam="1">  1        2 0.22433420E+00 0.14659214E+04</pdfrwt>
<pdfrwt beam="2">  1       -2 0.56681218E-01 0.14659214E+04</pdfrwt>
<totfact> 0.37906049E+01</totfact>
</mgrwt>
</event>
<event>
 6    1  0.1817112E-005  0.3504836E+04  0.7818608E-02  0.8112645E-01
          2   -1    0    0  501    0  0.00000000000E+00  0.00000000000E+00  0.37551587725E+04  0.37551587725E+04  0.00000000000E+00 0. -1.
         -2   -1    0    0    0  501 -0.00000000000E+00 -0.00000000000E+00 -0.81780008147E+03  0.81780008147E+03  0.00000000000E+00 0.  1.
         23    2    1    2    0    0 -0.15697023420E+04 -0.14076593323E+03  0.47358399430E+03  0.16482424153E+04  0.92955738318E+02 0.  0.
         13    1    3    3    0    0 -0.61623063287E+03 -0.95479654117E+02  0.20957260348E+03  0.65785806475E+03  0.00000000000E+00 0.  1.
        -13    1    3    3    0    0 -0.95347170916E+03 -0.45286279109E+02  0.26401139082E+03  0.99038435051E+03  0.00000000000E+00 0. -1.
         22    1    1    2    0    0  0.15697023420E+04  0.14076593323E+03  0.24637746967E+04  0.29247164387E+04  0.00000000000E+00 0. -1.
<mgrwt>
<rscale>  0 0.35048362E+04</rscale>
<asrwt>0</asrwt>
<pdfrwt beam="1">  1        2 0.57771673E+00 0.35048362E+04</pdfrwt>
<pdfrwt beam="2">  1       -2 0.12581540E+00 0.35048362E+04</pdfrwt>
<totfact> 0.20529751E-01</totfact>
</mgrwt>
</event>
<event>
 6    1  0.1817112E-005  0.1107096E+04  0.7818608E-02  0.9198303E-01
          2   -1    0    0  501    0  0.00000000000E+00  0.00000000000E+00  0.13511395900E+04  0.13511395900E+04  0.00000000000E+00 0. -1.
         -2   -1    0    0    0  501 -0.00000000000E+00 -0.00000000000E+00 -0.22678280564E+03  0.22678280564E+03  0.00000000000E+00 0.  1.
         23    2    1    2    0    0  0.14261217675E+03 -0.25162529925E+03 -0.10054836430E+03  0.31933344471E+03  0.90610988141E+02 0.  0.
         13    1    3    3    0    0  0.14806212463E+02 -0.11388817120E+03 -0.30775390728E+02  0.11889854558E+03  0.00000000000E+00 0. -1.
        -13    1    3    3    0    0  0.12780596429E+03 -0.13773712805E+03 -0.69772973569E+02  0.20043489913E+03  0.00000000000E+00 0.  1.
         22    1    1    2    0    0 -0.14261217675E+03  0.25162529925E+03  0.12249051487E+04  0.12585889510E+04  0.00000000000E+00 0. -1.
<mgrwt>
<rscale>  0 0.11070957E+04</rscale>
<asrwt>0</asrwt>
<pdfrwt beam="1">  1        2 0.20786762E+00 0.11070957E+04</pdfrwt>
<pdfrwt beam="2">  1       -2 0.34889663E-01 0.11070957E+04</pdfrwt>
<totfact> 0.11798103E+02</totfact>
</mgrwt>
</event>
<event>
 6    1  0.1817112E-005  0.5708895E+04  0.7818608E-02  0.7727582E-01
          2   -1    0    0  501    0  0.00000000000E+00  0.00000000000E+00  0.47851173013E+04  0.47851173013E+04  0.00000000000E+00 0. -1.
         -2   -1    0    0    0  501 -0.00000000000E+00 -0.00000000000E+00 -0.17027523940E+04  0.17027523940E+04  0.00000000000E+00 0.  1.
         23    2    1    2    0    0 -0.20759130111E+04 -0.15742379895E+04  0.21843303187E+03  0.26162103786E+04  0.95935802998E+02 0.  0.
         11    1    3    3    0    0 -0.12995811710E+04 -0.10068936371E+04  0.18098837826E+03  0.16539355518E+04  0.00000000000E+00 0. -1.
        -11    1    3    3    0    0 -0.77633184011E+03 -0.56734435249E+03  0.37444653605E+02  0.96227482683E+03  0.00000000000E+00 0.  1.
         22    1    1    2    0    0  0.20759130111E+04  0.15742379895E+04  0.28639318754E+04  0.38716593167E+04  0.00000000000E+00 0. -1.
<mgrwt>
<rscale>  0 0.57088948E+04</rscale>
<asrwt>0</asrwt>
<pdfrwt beam="1">  1        2 0.73617189E+00 0.57088948E+04</pdfrwt>
<pdfrwt beam="2">  1       -2 0.26196191E+00 0.57088948E+04</pdfrwt>
<totfact> 0.22747408E-03</totfact>
</mgrwt>
</event>
<event>
 6    1  0.1817112E-005  0.1589186E+04  0.7818608E-02  0.8827219E-01
          2   -1    0    0  501    0  0.00000000000E+00  0.00000000000E+00  0.12092002680E+04  0.12092002680E+04  0.00000000000E+00 0. -1.
         -2   -1    0    0    0  501 -0.00000000000E+00 -0.00000000000E+00 -0.52214539366E+03  0.52214539366E+03  0.00000000000E+00 0.  1.
         23    2    1    2    0    0  0.76604673098E+03  0.16520860954E+03  0.46858794067E+03  0.91780446429E+03  0.93106916068E+02 0.  0.
         11    1    3    3    0    0  0.10643911096E+03  0.88460499174E+01  0.32020592034E+02  0.11150271411E+03  0.00000000000E+00 0.  1.
        -11    1    3    3    0    0  0.65960762002E+03  0.15636255962E+03  0.43656734863E+03  0.80630175017E+03  0.00000000000E+00 0. -1.
         22    1    1    2    0    0 -0.76604673098E+03 -0.16520860954E+03  0.21846693367E+03  0.81354119737E+03  0.00000000000E+00 0. -1.
<mgrwt>
<rscale>  0 0.15891864E+04</rscale>
<asrwt>0</asrwt>
<pdfrwt beam="1">  1        2 0.18603081E+00 0.15891864E+04</pdfrwt>
<pdfrwt beam="2">  1       -2 0.80330061E-01 0.15891864E+04</pdfrwt>
<totfact> 0.24585276E+01</totfact>
</mgrwt>
</event>
<event>
 6    1  0.1817112E-005  0.1338769E+04  0.7818608E-02  0.8999373E-01
          2   -1    0    0  501    0  0.00000000000E+00  0.00000000000E+00  0.77291189232E+03  0.77291189232E+03  0.00000000000E+00 0. -1.
         -2   -1    0    0    0  501 -0.00000000000E+00 -0.00000000000E+00 -0.57972441143E+03  0.57972441143E+03  0.00000000000E+00 0.  1.
         23    2    1    2    0    0  0.19801182630E+03 -0.48206736494E+03 -0.32226349182E+03  0.61963744089E+03  0.92190955633E+02 0.  0.
         11    1    3    3    0    0  0.19659241355E+03 -0.38841750251E+03 -0.25789710036E+03  0.50599174667E+03  0.00000000000E+00 0.  1.
        -11    1    3    3    0    0  0.14194127426E+01 -0.93649862431E+02 -0.64366391455E+02  0.11364569422E+03  0.00000000000E+00 0. -1.
         22    1    1    2    0    0 -0.19801182630E+03  0.48206736494E+03  0.51545097271E+03  0.73299886286E+03  0.00000000000E+00 0.  1.
<mgrwt>
<rscale>  0 0.13387694E+04</rscale>
<asrwt>0</asrwt>
<pdfrwt beam="1">  1        2 0.11890952E+00 0.13387694E+04</pdfrwt>
<pdfrwt beam="2">  1       -2 0.89188371E-01 0.13387694E+04</pdfrwt>
<totfact> 0.38046698E+01</totfact>
</mgrwt>
</event>
<event>
 6    1  0.1817112E-005  0.2716449E+04  0.7818608E-02  0.8329688E-01
          2   -1    0    0  501    0  0.00000000000E+00  0.00000000000E+00  0.28832598322E+04  0.28832598322E+04  0.00000000000E+00 0. -1.
         -2   -1    0    0    0  501 -0.00000000000E+00 -0.00000000000E+00 -0.63982211718E+03  0.63982211718E+03  0.00000000000E+00 0.  1.
         23    2    1    2    0    0  0.96874314256E+03 -0.29181633892E+02 -0.10840210245E+03  0.97937100451E+03  0.90009469705E+02 0.  0.
         11    1    3    3    0    0  0.17336418584E+03  0.15604178275E+02 -0.47381536584E+02  0.18039856241E+03  0.00000000000E+00 0. -1.
        -11    1    3    3    0    0  0.79537895672E+03 -0.44785812167E+02 -0.61020565863E+02  0.79897244210E+03  0.00000000000E+00 0.  1.
         22    1    1    2    0    0 -0.96874314256E+03  0.29181633892E+02  0.23518398175E+04  0.25437109449E+04  0.00000000000E+00 0. -1.
<mgrwt>
<rscale>  0 0.27164487E+04</rscale>
<asrwt>0</asrwt>
<pdfrwt beam="1">  1        2 0.44357843E+00 0.27164487E+04</pdfrwt>
<pdfrwt beam="2">  1       -2 0.98434173E-01 0.27164487E+04</pdfrwt>
<totfact> 0.15449100E+00</totfact>
</mgrwt>
</event>
<event>
 6    1  0.1817112E-005  0.2899304E+04  0.7818608E-02  0.8273085E-01
          2   -1    0    0  501    0  0.00000000000E+00  0.00000000000E+00  0.29630244373E+04  0.29630244373E+04  0.00000000000E+00 0. -1.
         -2   -1    0    0    0  501 -0.00000000000E+00 -0.00000000000E+00 -0.70923838898E+03  0.70923838898E+03  0.00000000000E+00 0.  1.
         23    2    1    2    0    0  0.57521971501E+03  0.79674424706E+03 -0.21926478415E+03  0.10111240595E+04  0.92820808377E+02 0.  0.
         11    1    3    3    0    0  0.36160470021E+03  0.42649089786E+03 -0.10905714020E+03  0.56968930567E+03  0.00000000000E+00 0.  1.
        -11    1    3    3    0    0  0.21361501480E+03  0.37025334920E+03 -0.11020764395E+03  0.44143475388E+03  0.00000000000E+00 0. -1.
         22    1    1    2    0    0 -0.57521971501E+03 -0.79674424706E+03  0.24730508325E+04  0.26611387667E+04  0.00000000000E+00 0. -1.
<mgrwt>
<rscale>  0 0.28993038E+04</rscale>
<asrwt>0</asrwt>
<pdfrwt beam="1">  1        2 0.45584991E+00 0.28993038E+04</pdfrwt>
<pdfrwt beam="2">  1       -2 0.10911360E+00 0.28993038E+04</pdfrwt>
<totfact> 0.10614206E+00</totfact>
</mgrwt>
</event>
<event>
 6    1  0.1817112E-005  0.8126108E+03  0.7818608E-02  0.9541941E-01
          2   -1    0    0  501    0  0.00000000000E+00  0.00000000000E+00  0.13161552116E+04  0.13161552116E+04  0.00000000000E+00 0. -1.
         -2   -1    0    0    0  501 -0.00000000000E+00 -0.00000000000E+00 -0.12542903424E+03  0.12542903424E+03  0.00000000000E+00 0.  1.
         23    2    1    2    0    0 -0.44950347920E+02 -0.78000484332E+02  0.12964259414E+04  0.13027424313E+04  0.91175718330E+02 0.  0.
         13    1    3    3    0    0 -0.95935211710E+01 -0.87804192652E+02  0.77246763684E+03  0.77750103657E+03  0.00000000000E+00 0.  1.
        -13    1    3    3    0    0 -0.35356826749E+02  0.98037083198E+01  0.52395830453E+03  0.52524139477E+03  0.00000000000E+00 0. -1.
         22    1    1    2    0    0  0.44950347920E+02  0.78000484332E+02 -0.10569976403E+03  0.13884181449E+03  0.00000000000E+00 0.  1.
<mgrwt>
<rscale>  0 0.81261080E+03</rscale>
<asrwt>0</asrwt>
<pdfrwt beam="1">  1        2 0.20248541E+00 0.81261080E+03</pdfrwt>
<pdfrwt beam="2">  1       -2 0.19296775E-01 0.81261080E+03</pdfrwt>
<totfact> 0.36998629E+02</totfact>
</mgrwt>
</event>
<event>
 6    1  0.1817112E-005  0.2999107E+04  0.7818608E-02  0.8243986E-01
          1   -1    0    0  501    0  0.00000000000E+00  0.00000000000E+00  0.16718259689E+04  0.16718259689E+04  0.00000000000E+00 0. -1.
         -1   -1    0    0    0  501 -0.00000000000E+00 -0.00000000000E+00 -0.13450330430E+04  0.13450330430E+04  0.00000000000E+00 0.  1.
         23    2    1    2    0    0  0.76552760398E+03 -0.11465643103E+04  0.75368896082E+03  0.15736395362E+04  0.87476341264E+02 0.  0.
         13    1    3    3    0    0  0.48198500230E+03 -0.78976986890E+03  0.48613868767E+03  0.10451683175E+04  0.00000000000E+00 0.  1.
        -13    1    3    3    0    0  0.28354260168E+03 -0.35679444139E+03  0.26755027315E+03  0.52847121874E+03  0.00000000000E+00 0. -1.
         22    1    1    2    0    0 -0.76552760398E+03  0.11465643103E+04 -0.42689603494E+03  0.14432194756E+04  0.00000000000E+00 0.  1.
<mgrwt>
<rscale>  0 0.29991073E+04</rscale>
<asrwt>0</asrwt>
<pdfrwt beam="1">  1        1 0.25720399E+00 0.29991073E+04</pdfrwt>
<pdfrwt beam="2">  1       -1 0.20692816E+00 0.29991073E+04</pdfrwt>
<totfact> 0.57204531E-01</totfact>
</mgrwt>
</event>
<event>
 6    1  0.1817112E-005  0.1336671E+04  0.7818608E-02  0.9000980E-01
          2   -1    0    0  501    0  0.00000000000E+00  0.00000000000E+00  0.66072341758E+03  0.66072341758E+03  0.00000000000E+00 0. -1.
         -2   -1    0    0    0  501 -0.00000000000E+00 -0.00000000000E+00 -0.67603553512E+03  0.67603553512E+03  0.00000000000E+00 0.  1.
         23    2    1    2    0    0 -0.22408793301E+02  0.54643272687E+03 -0.38652523269E+03  0.67578236017E+03  0.90493998700E+02 0.  0.
         11    1    3    3    0    0  0.20840452647E+02  0.23847139737E+03 -0.20847951847E+03  0.31743761820E+03  0.00000000000E+00 0. -1.
        -11    1    3    3    0    0 -0.43249245948E+02  0.30796132950E+03 -0.17804571422E+03  0.35834474197E+03  0.00000000000E+00 0.  1.
         22    1    1    2    0    0  0.22408793301E+02 -0.54643272687E+03  0.37121311515E+03  0.66097659253E+03  0.00000000000E+00 0.  1.
<mgrwt>
<rscale>  0 0.13366713E+04</rscale>
<asrwt>0</asrwt>
<pdfrwt beam="1">  1        2 0.10164976E+00 0.13366713E+04</pdfrwt>
<pdfrwt beam="2">  1       -2 0.10400547E+00 0.13366713E+04</pdfrwt>
<totfact> 0.32400479E+01</totfact>
</mgrwt>
</event>
<event>
 6    1  0.1817112E-005  0.3858454E+04  0.7818608E-02  0.8033726E-01
          2   -1    0    0  501    0  0.00000000000E+00  0.00000000000E+00  0.22889638881E+04  0.22889638881E+04  0.00000000000E+00 0. -1.
         -2   -1    0    0    0  501 -0.00000000000E+00 -0.00000000000E+00 -0.16260272422E+04  0.16260272422E+04  0.00000000000E+00 0.  1.
         23    2    1    2    0    0  0.28440782965E+02  0.18184529717E+04 -0.31804441692E+03  0.18486165432E+04  0.93009592953E+02 0.  0.
         13    1    3    3    0    0 -0.16002458173E+02  0.83260670197E+03 -0.10890601600E+03  0.83985148637E+03  0.00000000000E+00 0.  1.
        -13    1    3    3    0    0  0.44443241138E+02  0.98584626972E+03 -0.20913840093E+03  0.10087650569E+04  0.00000000000E+00 0. -1.
         22    1    1    2    0    0 -0.28440782965E+02 -0.18184529717E+04  0.98098106278E+03  0.20663745870E+04  0.00000000000E+00 0. -1.
<mgrwt>
<rscale>  0 0.38584544E+04</rscale>
<asrwt>0</asrwt>
<pdfrwt beam="1">  1        2 0.35214829E+00 0.38584544E+04</pdfrwt>
<pdfrwt beam="2">  1       -2 0.25015804E+00 0.38584544E+04</pdfrwt>
<totfact> 0.23534664E-01</totfact>
</mgrwt>
</event>
<event>
 6    1  0.1817112E-005  0.5817534E+04  0.7818608E-02  0.7713446E-01
          2   -1    0    0  501    0  0.00000000000E+00  0.00000000000E+00  0.42652510447E+04  0.42652510447E+04  0.00000000000E+00 0.  1.
         -2   -1    0    0    0  501 -0.00000000000E+00 -0.00000000000E+00 -0.19836873121E+04  0.19836873121E+04  0.00000000000E+00 0. -1.
         23    2    1    2    0    0  0.10065505093E+04  0.13737350234E+04  0.36730809878E+04  0.40497084657E+04  0.91229775628E+02 0.  0.
         11    1    3    3    0    0  0.18361716634E+03  0.19855744173E+03  0.61338765549E+03  0.67036164669E+03  0.00000000000E+00 0.  1.
        -11    1    3    3    0    0  0.82293334299E+03  0.11751775816E+04  0.30596933323E+04  0.33793468190E+04  0.00000000000E+00 0. -1.
         22    1    1    2    0    0 -0.10065505093E+04 -0.13737350234E+04 -0.13915172553E+04  0.21992298911E+04  0.00000000000E+00 0. -1.
<mgrwt>
<rscale>  0 0.58175336E+04</rscale>
<asrwt>0</asrwt>
<pdfrwt beam="1">  1        2 0.65619247E+00 0.58175336E+04</pdfrwt>
<pdfrwt beam="2">  1       -2 0.30518266E+00 0.58175336E+04</pdfrwt>
<totfact> 0.40758222E-03</totfact>
</mgrwt>
</event>
<event>
 6    1  0.1817112E-005  0.3518985E+04  0.7818608E-02  0.8109305E-01
         -2   -1    0    0    0  501 -0.00000000000E+00  0.00000000000E+00  0.14894941185E+04  0.14894941185E+04  0.00000000000E+00 0.  1.
          2   -1    0    0  501    0  0.00000000000E+00 -0.00000000000E+00 -0.20784327671E+04  0.20784327671E+04  0.00000000000E+00 0. -1.
         23    2    1    2    0    0  0.94702768812E+03 -0.74226257608E+03  0.10052556470E+04  0.15706110303E+04  0.92004994141E+02 0.  0.
         13    1    3    3    0    0  0.66433426253E+03 -0.46950271952E+03  0.69770619082E+03  0.10717120624E+04  0.00000000000E+00 0.  1.
        -13    1    3    3    0    0  0.28269342559E+03 -0.27275985656E+03  0.30754945614E+03  0.49889896792E+03  0.00000000000E+00 0. -1.
         22    1    1    2    0    0 -0.94702768812E+03  0.74226257608E+03 -0.15941942955E+04  0.19973158553E+04  0.00000000000E+00 0. -1.
<mgrwt>
<rscale>  0 0.35189847E+04</rscale>
<asrwt>0</asrwt>
<pdfrwt beam="1">  1        2 0.31975888E+00 0.35189847E+04</pdfrwt>
<pdfrwt beam="2">  1       -2 0.22915294E+00 0.35189847E+04</pdfrwt>
<totfact> 0.42901034E-01</totfact>
</mgrwt>
</event>
<event>
 6    1  0.1817112E-005  0.2857005E+04  0.7818608E-02  0.8285786E-01
          2   -1    0    0  501    0  0.00000000000E+00  0.00000000000E+00  0.17804970638E+04  0.17804970638E+04  0.00000000000E+00 0. -1.
         -2   -1    0    0    0  501 -0.00000000000E+00 -0.00000000000E+00 -0.11460951566E+04  0.11460951566E+04  0.00000000000E+00 0.  1.
         23    2    1    2    0    0 -0.72273585293E+03  0.98518164994E+03  0.10727856314E+04  0.16284742420E+04  0.90162904436E+02 0.  0.
         11    1    3    3    0    0 -0.42882900918E+03  0.51488083192E+03  0.56330474829E+03  0.87539067258E+03  0.00000000000E+00 0.  1.
        -11    1    3    3    0    0 -0.29390684374E+03  0.47030081803E+03  0.50948088308E+03  0.75308356937E+03  0.00000000000E+00 0. -1.
         22    1    1    2    0    0  0.72273585293E+03 -0.98518164994E+03 -0.43838372418E+03  0.12981179785E+04  0.00000000000E+00 0.  1.
<mgrwt>
<rscale>  0 0.28570048E+04</rscale>
<asrwt>0</asrwt>
<pdfrwt beam="1">  1        2 0.27392262E+00 0.28570048E+04</pdfrwt>
<pdfrwt beam="2">  1       -2 0.17632233E+00 0.28570048E+04</pdfrwt>
<totfact> 0.14738641E+00</totfact>
</mgrwt>
</event>
<event>
 6    1  0.1817112E-005  0.2620294E+04  0.7818608E-02  0.8361340E-01
          2   -1    0    0  501    0  0.00000000000E+00  0.00000000000E+00  0.10509019056E+04  0.10509019056E+04  0.00000000000E+00 0. -1.
         -2   -1    0    0    0  501 -0.00000000000E+00 -0.00000000000E+00 -0.16333448716E+04  0.16333448716E+04  0.00000000000E+00 0.  1.
         23    2    1    2    0    0  0.56030099421E+03 -0.10293138653E+04 -0.88786077200E+03  0.14731711092E+04  0.92261199829E+02 0.  0.
         13    1    3    3    0    0  0.16319147468E+03 -0.22902572619E+03 -0.18776379291E+03  0.33814121694E+03  0.00000000000E+00 0.  1.
        -13    1    3    3    0    0  0.39710951953E+03 -0.80028813915E+03 -0.70009697909E+03  0.11350298922E+04  0.00000000000E+00 0. -1.
         22    1    1    2    0    0 -0.56030099421E+03  0.10293138653E+04  0.30541780599E+03  0.12110756680E+04  0.00000000000E+00 0. -1.
<mgrwt>
<rscale>  0 0.26202941E+04</rscale>
<asrwt>0</asrwt>
<pdfrwt beam="1">  1        2 0.16167722E+00 0.26202941E+04</pdfrwt>
<pdfrwt beam="2">  1       -2 0.25128383E+00 0.26202941E+04</pdfrwt>
<totfact> 0.13026347E+00</totfact>
</mgrwt>
</event>
<event>
 6    1  0.1817112E-005  0.2843008E+04  0.7818608E-02  0.8290039E-01
         -2   -1    0    0    0  501 -0.00000000000E+00  0.00000000000E+00  0.61414620369E+03  0.61414620369E+03  0.00000000000E+00 0.  1.
          2   -1    0    0  501    0  0.00000000000E+00 -0.00000000000E+00 -0.32902155329E+04  0.32902155329E+04  0.00000000000E+00 0. -1.
         23    2    1    2    0    0  0.42765273756E+03  0.13540726976E+04 -0.13496773214E+04  0.19612416959E+04  0.91871560048E+02 0.  0.
         11    1    3    3    0    0  0.24400111508E+03  0.62137030703E+03 -0.64052732375E+03  0.92515558426E+03  0.00000000000E+00 0. -1.
        -11    1    3    3    0    0  0.18365162248E+03  0.73270239053E+03 -0.70914999768E+03  0.10360861116E+04  0.00000000000E+00 0.  1.
         22    1    1    2    0    0 -0.42765273756E+03 -0.13540726976E+04 -0.13263920078E+04  0.19431200407E+04  0.00000000000E+00 0. -1.
<mgrwt>
<rscale>  0 0.28430078E+04</rscale>
<asrwt>0</asrwt>
<pdfrwt beam="1">  1        2 0.50618699E+00 0.28430078E+04</pdfrwt>
<pdfrwt beam="2">  1       -2 0.94484034E-01 0.28430078E+04</pdfrwt>
<totfact> 0.92508653E-01</totfact>
</mgrwt>
</event>
<event>
 6    1  0.1817112E-005  0.2834912E+04  0.7818608E-02  0.8292511E-01
          2   -1    0    0  501    0  0.00000000000E+00  0.00000000000E+00  0.14624568019E+04  0.14624568019E+04  0.00000000000E+00 0. -1.
         -2   -1    0    0    0  501 -0.00000000000E+00 -0.00000000000E+00 -0.13738397181E+04  0.13738397181E+04  0.00000000000E+00 0.  1.
         23    2    1    2    0    0  0.34636708240E+03  0.96030439860E+03 -0.93733512228E+03  0.13889774043E+04  0.92230170982E+02 0.  0.
         13    1    3    3    0    0  0.27377083346E+03  0.68943322426E+03 -0.63335383053E+03  0.97540028430E+03  0.00000000000E+00 0. -1.
        -13    1    3    3    0    0  0.72596248939E+02  0.27087117435E+03 -0.30398129175E+03  0.41357711999E+03  0.00000000000E+00 0.  1.
         22    1    1    2    0    0 -0.34636708240E+03 -0.96030439860E+03  0.10259522061E+04  0.14473191158E+04  0.00000000000E+00 0. -1.
<mgrwt>
<rscale>  0 0.28349118E+04</rscale>
<asrwt>0</asrwt>
<pdfrwt beam="1">  1        2 0.22499335E+00 0.28349118E+04</pdfrwt>
<pdfrwt beam="2">  1       -2 0.21135996E+00 0.28349118E+04</pdfrwt>
<totfact> 0.12981904E+00</totfact>
</mgrwt>
</event>
<event>
 6    1  0.1817112E-005  0.3054897E+04  0.7818608E-02  0.8228226E-01
         -2   -1    0    0    0  501 -0.00000000000E+00  0.00000000000E+00  0.17529583741E+04  0.17529583741E+04  0.00000000000E+00 0.  1.
          2   -1    0    0  501    0  0.00000000000E+00 -0.00000000000E+00 -0.13309492874E+04  0.13309492874E+04  0.00000000000E+00 0. -1.
         23    2    1    2    0    0  0.94031779549E+03  0.53347937959E+03  0.12985499965E+04  0.16921024411E+04  0.90447624276E+02 0.  0.
         11    1    3    3    0    0  0.38504999623E+03  0.26590487414E+03  0.58765345001E+03  0.75120268836E+03  0.00000000000E+00 0.  1.
        -11    1    3    3    0    0  0.55526779927E+03  0.26757450546E+03  0.71089654653E+03  0.94089975276E+03  0.00000000000E+00 0. -1.
         22    1    1    2    0    0 -0.94031779549E+03 -0.53347937959E+03 -0.87654090982E+03  0.13918052204E+04  0.00000000000E+00 0. -1.
<mgrwt>
<rscale>  0 0.30548969E+04</rscale>
<asrwt>0</asrwt>
<pdfrwt beam="1">  1        2 0.20476143E+00 0.30548969E+04</pdfrwt>
<pdfrwt beam="2">  1       -2 0.26968590E+00 0.30548969E+04</pdfrwt>
<totfact> 0.65792710E-01</totfact>
</mgrwt>
</event>
<event>
 6    1  0.1817112E-005  0.3982293E+04  0.7818608E-02  0.8008128E-01
          2   -1    0    0  501    0  0.00000000000E+00  0.00000000000E+00  0.18205004104E+04  0.18205004104E+04  0.00000000000E+00 0. -1.
         -2   -1    0    0    0  501 -0.00000000000E+00 -0.00000000000E+00 -0.21777881458E+04  0.21777881458E+04  0.00000000000E+00 0.  1.
         23    2    1    2    0    0 -0.92122906735E+03 -0.13828506386E+04  0.92008337928E+03  0.19024317272E+04  0.10841664300E+03 0.  0.
         11    1    3    3    0    0 -0.37518088784E+03 -0.46929201585E+03  0.33258090099E+03  0.68673557535E+03  0.00000000000E+00 0. -1.
        -11    1    3    3    0    0 -0.54604817952E+03 -0.91355862276E+03  0.58750247828E+03  0.12156961518E+04  0.00000000000E+00 0.  1.
         22    1    1    2    0    0  0.92122906735E+03  0.13828506386E+04 -0.12773711147E+04  0.20958568290E+04  0.00000000000E+00 0.  1.
<mgrwt>
<rscale>  0 0.39822929E+04</rscale>
<asrwt>0</asrwt>
<pdfrwt beam="1">  1        2 0.28007699E+00 0.39822929E+04</pdfrwt>
<pdfrwt beam="2">  1       -2 0.33504433E+00 0.39822929E+04</pdfrwt>
<totfact> 0.12820711E-01</totfact>
</mgrwt>
</event>
<event>
 6    1  0.1817112E-005  0.2616232E+04  0.7818608E-02  0.8362708E-01
          2   -1    0    0  501    0  0.00000000000E+00  0.00000000000E+00  0.16850748945E+04  0.16850748945E+04  0.00000000000E+00 0. -1.
         -2   -1    0    0    0  501 -0.00000000000E+00 -0.00000000000E+00 -0.10154845572E+04  0.10154845572E+04  0.00000000000E+00 0.  1.
         23    2    1    2    0    0 -0.92961841595E+03 -0.54183404932E+03 -0.42980994995E+03  0.11622306417E+04  0.90933685036E+02 0.  0.
         13    1    3    3    0    0 -0.28644388213E+03 -0.15455578575E+03 -0.17402180904E+03  0.36908153373E+03  0.00000000000E+00 0. -1.
        -13    1    3    3    0    0 -0.64317453382E+03 -0.38727826357E+03 -0.25578814091E+03  0.79314910794E+03  0.00000000000E+00 0.  1.
         22    1    1    2    0    0  0.92961841595E+03  0.54183404932E+03  0.10994002873E+04  0.15383288101E+04  0.00000000000E+00 0. -1.
<mgrwt>
<rscale>  0 0.26162320E+04</rscale>
<asrwt>0</asrwt>
<pdfrwt beam="1">  1        2 0.25924229E+00 0.26162320E+04</pdfrwt>
<pdfrwt beam="2">  1       -2 0.15622839E+00 0.26162320E+04</pdfrwt>
<totfact> 0.23735263E+00</totfact>
</mgrwt>
</event>
<event>
 6    1  0.1817112E-005  0.3538978E+04  0.7818608E-02  0.8104614E-01
         -2   -1    0    0    0  501 -0.00000000000E+00  0.00000000000E+00  0.23587861065E+04  0.23587861065E+04  0.00000000000E+00 0.  1.
          2   -1    0    0  501    0  0.00000000000E+00 -0.00000000000E+00 -0.13274165652E+04  0.13274165652E+04  0.00000000000E+00 0. -1.
         23    2    1    2    0    0  0.76270330160E+03 -0.96339208589E+03 -0.80853474016E+03  0.14737180046E+04  0.90970839513E+02 0.  0.
         11    1    3    3    0    0  0.35619842047E+03 -0.50471606800E+03 -0.36973608047E+03  0.71994471541E+03  0.00000000000E+00 0.  1.
        -11    1    3    3    0    0  0.40650488114E+03 -0.45867601789E+03 -0.43879865969E+03  0.75377328921E+03  0.00000000000E+00 0. -1.
         22    1    1    2    0    0 -0.76270330160E+03  0.96339208589E+03  0.18399042814E+04  0.22124846671E+04  0.00000000000E+00 0. -1.
<mgrwt>
<rscale>  0 0.35389782E+04</rscale>
<asrwt>0</asrwt>
<pdfrwt beam="1">  1        2 0.20421793E+00 0.35389782E+04</pdfrwt>
<pdfrwt beam="2">  1       -2 0.36289017E+00 0.35389782E+04</pdfrwt>
<totfact> 0.16815199E-01</totfact>
</mgrwt>
</event>
<event>
 6    1  0.1817112E-005  0.6833797E+03  0.7818608E-02  0.9746085E-01
          2   -1    0    0  501    0  0.00000000000E+00  0.00000000000E+00  0.10145563124E+04  0.10145563124E+04  0.00000000000E+00 0.  1.
         -2   -1    0    0    0  501 -0.00000000000E+00 -0.00000000000E+00 -0.11507685864E+03  0.11507685864E+03  0.00000000000E+00 0. -1.
         23    2    1    2    0    0 -0.29170821656E+03 -0.16577040143E+03  0.48279589322E+03  0.59465775178E+03  0.89176553233E+02 0.  0.
         13    1    3    3    0    0 -0.11864774149E+03 -0.53995863007E+02  0.26221947260E+03  0.29283423910E+03  0.00000000000E+00 0. -1.
        -13    1    3    3    0    0 -0.17306047507E+03 -0.11177453843E+03  0.22057642063E+03  0.30182351268E+03  0.00000000000E+00 0.  1.
         22    1    1    2    0    0  0.29170821656E+03  0.16577040143E+03  0.41668356055E+03  0.53497541928E+03  0.00000000000E+00 0. -1.
<mgrwt>
<rscale>  0 0.68337970E+03</rscale>
<asrwt>0</asrwt>
<pdfrwt beam="1">  1        2 0.15608558E+00 0.68337970E+03</pdfrwt>
<pdfrwt beam="2">  1       -2 0.17704133E-01 0.68337970E+03</pdfrwt>
<totfact> 0.65537162E+02</totfact>
</mgrwt>
</event>
<event>
 6    1  0.1817112E-005  0.5246999E+04  0.7818608E-02  0.7791495E-01
         -2   -1    0    0    0  501 -0.00000000000E+00  0.00000000000E+00  0.26208420108E+04  0.26208420108E+04  0.00000000000E+00 0.  1.
          2   -1    0    0  501    0  0.00000000000E+00 -0.00000000000E+00 -0.26261599829E+04  0.26261599829E+04  0.00000000000E+00 0. -1.
         23    2    1    2    0    0  0.10679031479E+03  0.25705496329E+04  0.50672449394E+03  0.26237755311E+04  0.91097410725E+02 0.  0.
         11    1    3    3    0    0  0.61026524942E+02  0.58733483732E+03  0.10475873640E+03  0.59971730068E+03  0.00000000000E+00 0.  1.
        -11    1    3    3    0    0  0.45763789850E+02  0.19832147956E+04  0.40196575754E+03  0.20240582304E+04  0.00000000000E+00 0. -1.
         22    1    1    2    0    0 -0.10679031479E+03 -0.25705496329E+04 -0.51204246603E+03  0.26232264625E+04  0.00000000000E+00 0.  1.
<mgrwt>
<rscale>  0 0.52469993E+04</rscale>
<asrwt>0</asrwt>
<pdfrwt beam="1">  1        2 0.40402461E+00 0.52469993E+04</pdfrwt>
<pdfrwt beam="2">  1       -2 0.40320646E+00 0.52469993E+04</pdfrwt>
<totfact> 0.14843943E-02</totfact>
</mgrwt>
</event>
<event>
 6    1  0.1817112E-005  0.2141436E+04  0.7818608E-02  0.8543207E-01
         -2   -1    0    0    0  501 -0.00000000000E+00  0.00000000000E+00  0.85491314326E+03  0.85491314326E+03  0.00000000000E+00 0.  1.
          2   -1    0    0  501    0  0.00000000000E+00 -0.00000000000E+00 -0.13409983381E+04  0.13409983381E+04  0.00000000000E+00 0. -1.
         23    2    1    2    0    0  0.68018935693E+03 -0.39292618673E+03 -0.98662414164E+03  0.12644675556E+04  0.91664893764E+02 0.  0.
         13    1    3    3    0    0  0.23438973236E+03 -0.94934848016E+02 -0.35615294352E+03  0.43680211902E+03  0.00000000000E+00 0.  1.
        -13    1    3    3    0    0  0.44579962457E+03 -0.29799133871E+03 -0.63047119813E+03  0.82766543656E+03  0.00000000000E+00 0. -1.
         22    1    1    2    0    0 -0.68018935693E+03  0.39292618673E+03  0.50053894684E+03  0.93144392574E+03  0.00000000000E+00 0.  1.
<mgrwt>
<rscale>  0 0.21414361E+04</rscale>
<asrwt>0</asrwt>
<pdfrwt beam="1">  1        2 0.20630744E+00 0.21414361E+04</pdfrwt>
<pdfrwt beam="2">  1       -2 0.13152510E+00 0.21414361E+04</pdfrwt>
<totfact> 0.60608382E+00</totfact>
</mgrwt>
</event>
<event>
 6    1  0.1817112E-005  0.1565883E+04  0.7818608E-02  0.8841786E-01
          2   -1    0    0  501    0  0.00000000000E+00  0.00000000000E+00  0.17289921997E+04  0.17289921997E+04  0.00000000000E+00 0. -1.
         -2   -1    0    0    0  501 -0.00000000000E+00 -0.00000000000E+00 -0.35454011852E+03  0.35454011852E+03  0.00000000000E+00 0.  1.
         23    2    1    2    0    0 -0.29475645852E+03 -0.67028205417E+03  0.10480613007E+04  0.12818526168E+04  0.92489131142E+02 0.  0.
         11    1    3    3    0    0 -0.14672048215E+03 -0.28332047701E+03  0.38537531329E+03  0.50031142768E+03  0.00000000000E+00 0.  1.
        -11    1    3    3    0    0 -0.14803597638E+03 -0.38696157717E+03  0.66268598737E+03  0.78154118916E+03  0.00000000000E+00 0. -1.
         22    1    1    2    0    0  0.29475645852E+03  0.67028205417E+03  0.32639078051E+03  0.80167970137E+03  0.00000000000E+00 0.  1.
<mgrwt>
<rscale>  0 0.15658826E+04</rscale>
<asrwt>0</asrwt>
<pdfrwt beam="1">  1        2 0.26599880E+00 0.15658826E+04</pdfrwt>
<pdfrwt beam="2">  1       -2 0.54544634E-01 0.15658826E+04</pdfrwt>
<totfact> 0.28733957E+01</totfact>
</mgrwt>
</event>
<event>
 6    1  0.1991053E-005  0.3807482E+04  0.7818608E-02  0.8044551E-01
          1   -1    0    0  501    0  0.00000000000E+00  0.00000000000E+00  0.19082568143E+04  0.19082568143E+04  0.00000000000E+00 0. -1.
         -1   -1    0    0    0  501 -0.00000000000E+00 -0.00000000000E+00 -0.18992357542E+04  0.18992357542E+04  0.00000000000E+00 0.  1.
         23    2    1    2    0    0 -0.10610413324E+04 -0.15290140935E+04 -0.39066056896E+03  0.19039594819E+04  0.93558653283E+02 0.  0.
         11    1    3    3    0    0 -0.57310054757E+03 -0.80238279319E+03 -0.25263698409E+03  0.10178839964E+04  0.00000000000E+00 0. -1.
        -11    1    3    3    0    0 -0.48794078481E+03 -0.72663130031E+03 -0.13802358487E+03  0.88607548553E+03  0.00000000000E+00 0.  1.
         22    1    1    2    0    0  0.10610413324E+04  0.15290140935E+04  0.39968162904E+03  0.19035330866E+04  0.00000000000E+00 0. -1.
<mgrwt>
<rscale>  0 0.38074819E+04</rscale>
<asrwt>0</asrwt>
<pdfrwt beam="1">  1        1 0.29357797E+00 0.38074819E+04</pdfrwt>
<pdfrwt beam="2">  1       -1 0.29219012E+00 0.38074819E+04</pdfrwt>
<totfact> 0.10148573E-01</totfact>
</mgrwt>
</event>
<event>
 6    1  0.1817112E-005  0.3341600E+04  0.7818608E-02  0.8152390E-01
         -2   -1    0    0    0  501 -0.00000000000E+00  0.00000000000E+00  0.26257851348E+04  0.26257851348E+04  0.00000000000E+00 0.  1.
          2   -1    0    0  501    0  0.00000000000E+00 -0.00000000000E+00 -0.10631379566E+04  0.10631379566E+04  0.00000000000E+00 0. -1.
         23    2    1    2    0    0 -0.23614541730E+03 -0.14730003688E+04  0.16094037211E+04  0.21963813269E+04  0.91737946362E+02 0.  0.
         11    1    3    3    0    0 -0.13387751340E+03 -0.66138387791E+03  0.67411293020E+03  0.95382391730E+03  0.00000000000E+00 0. -1.
        -11    1    3    3    0    0 -0.10226790389E+03 -0.81161649087E+03  0.93529079094E+03  0.12425574096E+04  0.00000000000E+00 0.  1.
         22    1    1    2    0    0  0.23614541730E+03  0.14730003688E+04 -0.46756542905E+02  0.14925417645E+04  0.00000000000E+00 0. -1.
<mgrwt>
<rscale>  0 0.33415995E+04</rscale>
<asrwt>0</asrwt>
<pdfrwt beam="1">  1        2 0.16355969E+00 0.33415995E+04</pdfrwt>
<pdfrwt beam="2">  1       -2 0.40396694E+00 0.33415995E+04</pdfrwt>
<totfact> 0.13353415E-01</totfact>
</mgrwt>
</event>
<event>
 6    1  0.1817112E-005  0.2138015E+04  0.7818608E-02  0.8544680E-01
         -1   -1    0    0    0  501 -0.00000000000E+00  0.00000000000E+00  0.84954065396E+03  0.84954065396E+03  0.00000000000E+00 0.  1.
          1   -1    0    0  501    0  0.00000000000E+00 -0.00000000000E+00 -0.13451711224E+04  0.13451711224E+04  0.00000000000E+00 0. -1.
         23    2    1    2    0    0 -0.37757921565E+03 -0.51580862850E+03 -0.11253095426E+04  0.12974267928E+04  0.91488308624E+02 0.  0.
         11    1    3    3    0    0 -0.28097523846E+03 -0.33180725302E+03 -0.81928679341E+03  0.92750956202E+03  0.00000000000E+00 0. -1.
        -11    1    3    3    0    0 -0.96603977194E+02 -0.18400137548E+03 -0.30602274922E+03  0.36991723078E+03  0.00000000000E+00 0.  1.
         22    1    1    2    0    0  0.37757921565E+03  0.51580862850E+03  0.62967907417E+03  0.89728498359E+03  0.00000000000E+00 0.  1.
<mgrwt>
<rscale>  0 0.21380155E+04</rscale>
<asrwt>0</asrwt>
<pdfrwt beam="1">  1        1 0.20694940E+00 0.21380155E+04</pdfrwt>
<pdfrwt beam="2">  1       -1 0.13069856E+00 0.21380155E+04</pdfrwt>
<totfact> 0.38522648E+00</totfact>
</mgrwt>
</event>
<event>
 6    1  0.1817112E-005  0.4176976E+04  0.7818608E-02  0.7969766E-01
         -2   -1    0    0    0  501 -0.00000000000E+00  0.00000000000E+00  0.15048777118E+04  0.15048777118E+04  0.00000000000E+00 0. -1.
          2   -1    0    0  501    0  0.00000000000E+00 -0.00000000000E+00 -0.28984295410E+04  0.28984295410E+04  0.00000000000E+00 0.  1.
         23    2    1    2    0    0  0.19901766791E+04 -0.47035443251E+03 -0.25527094124E+03  0.20628543296E+04  0.90378235952E+02 0.  0.
         11    1    3    3    0    0  0.11965120758E+04 -0.32378974956E+03 -0.13552747997E+03  0.12469357029E+04  0.00000000000E+00 0. -1.
        -11    1    3    3    0    0  0.79366460330E+03 -0.14656468295E+03 -0.11974346128E+03  0.81591862666E+03  0.00000000000E+00 0.  1.
         22    1    1    2    0    0 -0.19901766791E+04  0.47035443251E+03 -0.11382808879E+04  0.23404529233E+04  0.00000000000E+00 0.  1.
<mgrwt>
<rscale>  0 0.41769759E+04</rscale>
<asrwt>0</asrwt>
<pdfrwt beam="1">  1        2 0.44591223E+00 0.41769759E+04</pdfrwt>
<pdfrwt beam="2">  1       -2 0.23151965E+00 0.41769759E+04</pdfrwt>
<totfact> 0.13093504E-01</totfact>
</mgrwt>
</event>
<event>
 6    1  0.1817112E-005  0.1948228E+04  0.7818608E-02  0.8631216E-01
         -2   -1    0    0    0  501 -0.00000000000E+00  0.00000000000E+00  0.45510954218E+03  0.45510954218E+03  0.00000000000E+00 0.  1.
          2   -1    0    0  501    0  0.00000000000E+00 -0.00000000000E+00 -0.20849888925E+04  0.20849888925E+04  0.00000000000E+00 0. -1.
         23    2    1    2    0    0 -0.10103810214E+03 -0.16255352547E+03 -0.20591184217E+04  0.20701212787E+04  0.93814110994E+02 0.  0.
         11    1    3    3    0    0 -0.60991410058E+02 -0.14536005756E+03 -0.12611679153E+04  0.12709815140E+04  0.00000000000E+00 0.  1.
        -11    1    3    3    0    0 -0.40046692086E+02 -0.17193467909E+02 -0.79795050638E+03  0.79913976470E+03  0.00000000000E+00 0. -1.
         22    1    1    2    0    0  0.10103810214E+03  0.16255352547E+03  0.42923907136E+03  0.46997715594E+03  0.00000000000E+00 0.  1.
<mgrwt>
<rscale>  0 0.19482283E+04</rscale>
<asrwt>0</asrwt>
<pdfrwt beam="1">  1        2 0.32076752E+00 0.19482283E+04</pdfrwt>
<pdfrwt beam="2">  1       -2 0.70016854E-01 0.19482283E+04</pdfrwt>
<totfact> 0.10383383E+01</totfact>
</mgrwt>
</event>
<event>
 6    1  0.1817112E-005  0.1428685E+04  0.7818608E-02  0.8933313E-01
         -2   -1    0    0    0  501 -0.00000000000E+00  0.00000000000E+00  0.43242383406E+03  0.43242383406E+03  0.00000000000E+00 0.  1.
          2   -1    0    0  501    0  0.00000000000E+00 -0.00000000000E+00 -0.11800574458E+04  0.11800574458E+04  0.00000000000E+00 0. -1.
         23    2    1    2    0    0  0.33461300284E+03  0.14339069160E+03 -0.10651387822E+04  0.11294323326E+04  0.92574384219E+02 0.  0.
         13    1    3    3    0    0  0.14534807954E+03  0.22567032211E+02 -0.34353703160E+03  0.37370178920E+03  0.00000000000E+00 0.  1.
        -13    1    3    3    0    0  0.18926492330E+03  0.12082365939E+03 -0.72160175059E+03  0.75573054345E+03  0.00000000000E+00 0. -1.
         22    1    1    2    0    0 -0.33461300284E+03 -0.14339069160E+03  0.31750517047E+03  0.48304894719E+03  0.00000000000E+00 0.  1.
<mgrwt>
<rscale>  0 0.14286847E+04</rscale>
<asrwt>0</asrwt>
<pdfrwt beam="1">  1        2 0.18154730E+00 0.14286847E+04</pdfrwt>
<pdfrwt beam="2">  1       -2 0.66526744E-01 0.14286847E+04</pdfrwt>
<totfact> 0.39271574E+01</totfact>
</mgrwt>
</event>
<event>
 6    1  0.1817112E-005  0.1771938E+04  0.7818608E-02  0.8721366E-01
          2   -1    0    0  501    0  0.00000000000E+00  0.00000000000E+00  0.10953713260E+04  0.10953713260E+04  0.00000000000E+00 0. -1.
         -2   -1    0    0    0  501 -0.00000000000E+00 -0.00000000000E+00 -0.71659836839E+03  0.71659836839E+03  0.00000000000E+00 0.  1.
         23    2    1    2    0    0  0.51543677193E+03  0.68748524263E+03 -0.21023313421E+02  0.86426294491E+03  0.90539679480E+02 0.  0.
         13    1    3    3    0    0  0.22379043993E+03  0.25242628555E+03  0.26255489162E+02  0.33836450960E+03  0.00000000000E+00 0. -1.
        -13    1    3    3    0    0  0.29164633199E+03  0.43505895707E+03 -0.47278802583E+02  0.52589843532E+03  0.00000000000E+00 0.  1.
         22    1    1    2    0    0 -0.51543677193E+03 -0.68748524263E+03  0.39979627103E+03  0.94770674948E+03  0.00000000000E+00 0. -1.
<mgrwt>
<rscale>  0 0.17719383E+04</rscale>
<asrwt>0</asrwt>
<pdfrwt beam="1">  1        2 0.16851867E+00 0.17719383E+04</pdfrwt>
<pdfrwt beam="2">  1       -2 0.11024590E+00 0.17719383E+04</pdfrwt>
<totfact> 0.13561583E+01</totfact>
</mgrwt>
</event>
<event>
 6    1  0.1817112E-005  0.1396341E+04  0.7818608E-02  0.8956471E-01
          2   -1    0    0  501    0  0.00000000000E+00  0.00000000000E+00  0.13700346792E+04  0.13700346792E+04  0.00000000000E+00 0.  1.
         -2   -1    0    0    0  501 -0.00000000000E+00 -0.00000000000E+00 -0.35578806753E+03  0.35578806753E+03  0.00000000000E+00 0. -1.
         23    2    1    2    0    0  0.62938861628E+03 -0.26848377505E+03  0.66081802085E+03  0.95567643819E+03  0.91779246390E+02 0.  0.
         13    1    3    3    0    0  0.29231862653E+03 -0.83156924944E+02  0.25749058819E+03  0.39832983392E+03  0.00000000000E+00 0.  1.
        -13    1    3    3    0    0  0.33706998975E+03 -0.18532685011E+03  0.40332743266E+03  0.55734660427E+03  0.00000000000E+00 0. -1.
         22    1    1    2    0    0 -0.62938861628E+03  0.26848377505E+03  0.35342859086E+03  0.77014630857E+03  0.00000000000E+00 0. -1.
<mgrwt>
<rscale>  0 0.13963409E+04</rscale>
<asrwt>0</asrwt>
<pdfrwt beam="1">  1        2 0.21077456E+00 0.13963409E+04</pdfrwt>
<pdfrwt beam="2">  1       -2 0.54736626E-01 0.13963409E+04</pdfrwt>
<totfact> 0.46020362E+01</totfact>
</mgrwt>
</event>
<event>
 6    1  0.1817112E-005  0.3365452E+04  0.7818608E-02  0.8146438E-01
         -2   -1    0    0    0  501 -0.00000000000E+00  0.00000000000E+00  0.15154842550E+04  0.15154842550E+04  0.00000000000E+00 0.  1.
          2   -1    0    0  501    0  0.00000000000E+00 -0.00000000000E+00 -0.18684242457E+04  0.18684242457E+04  0.00000000000E+00 0. -1.
         23    2    1    2    0    0  0.14044811424E+04 -0.10248205535E+03 -0.11011997554E+04  0.17892415992E+04  0.75330924459E+02 0.  0.
         11    1    3    3    0    0  0.89879283217E+03 -0.80568762061E+02 -0.66336117434E+03  0.11199856821E+04  0.00000000000E+00 0. -1.
        -11    1    3    3    0    0  0.50568831023E+03 -0.21913293287E+02 -0.43783858103E+03  0.66925591709E+03  0.00000000000E+00 0.  1.
         22    1    1    2    0    0 -0.14044811424E+04  0.10248205535E+03  0.74825976470E+03  0.15946669014E+04  0.00000000000E+00 0.  1.
<mgrwt>
<rscale>  0 0.33654524E+04</rscale>
<asrwt>0</asrwt>
<pdfrwt beam="1">  1        2 0.28744988E+00 0.33654524E+04</pdfrwt>
<pdfrwt beam="2">  1       -2 0.23315142E+00 0.33654524E+04</pdfrwt>
<totfact> 0.53670663E-01</totfact>
</mgrwt>
</event>
<event>
 6    1  0.1817112E-005  0.3560151E+04  0.7818608E-02  0.8099681E-01
          1   -1    0    0  501    0  0.00000000000E+00  0.00000000000E+00  0.29211671713E+04  0.29211671713E+04  0.00000000000E+00 0. -1.
         -1   -1    0    0    0  501 -0.00000000000E+00 -0.00000000000E+00 -0.10847272171E+04  0.10847272171E+04  0.00000000000E+00 0.  1.
         23    2    1    2    0    0 -0.31982864719E+03  0.66192070473E+03  0.27416106553E+04  0.28398054634E+04  0.87388226166E+02 0.  0.
         11    1    3    3    0    0 -0.12414730291E+03  0.30492701054E+03  0.13735538973E+04  0.14124600325E+04  0.00000000000E+00 0. -1.
        -11    1    3    3    0    0 -0.19568134428E+03  0.35699369418E+03  0.13680567580E+04  0.14273454309E+04  0.00000000000E+00 0.  1.
         22    1    1    2    0    0  0.31982864719E+03 -0.66192070473E+03 -0.90517070102E+03  0.11660889250E+04  0.00000000000E+00 0.  1.
<mgrwt>
<rscale>  0 0.35601514E+04</rscale>
<asrwt>0</asrwt>
<pdfrwt beam="1">  1        1 0.44941033E+00 0.35601514E+04</pdfrwt>
<pdfrwt beam="2">  1       -1 0.16688111E+00 0.35601514E+04</pdfrwt>
<totfact> 0.14357096E-01</totfact>
</mgrwt>
</event>
<event>
 6    1  0.1817112E-005  0.2261478E+04  0.7818608E-02  0.8493267E-01
          4   -1    0    0  501    0  0.00000000000E+00  0.00000000000E+00  0.12698548025E+04  0.12698548025E+04  0.00000000000E+00 0. -1.
         -4   -1    0    0    0  501 -0.00000000000E+00 -0.00000000000E+00 -0.10068635109E+04  0.10068635109E+04  0.00000000000E+00 0.  1.
         23    2    1    2    0    0 -0.32836989999E+03 -0.81069719857E+03  0.85008259505E+03  0.12232796879E+04  0.93359720614E+02 0.  0.
         11    1    3    3    0    0 -0.91888779945E+02 -0.31655743152E+03  0.27792421969E+03  0.43115429630E+03  0.00000000000E+00 0. -1.
        -11    1    3    3    0    0 -0.23648112004E+03 -0.49413976705E+03  0.57215837536E+03  0.79212539160E+03  0.00000000000E+00 0.  1.
         22    1    1    2    0    0  0.32836989999E+03  0.81069719857E+03 -0.58709130343E+03  0.10534386254E+04  0.00000000000E+00 0.  1.
<mgrwt>
<rscale>  0 0.22614778E+04</rscale>
<asrwt>0</asrwt>
<pdfrwt beam="1">  1        4 0.19536228E+00 0.22614778E+04</pdfrwt>
<pdfrwt beam="2">  1       -4 0.15490208E+00 0.22614778E+04</pdfrwt>
<totfact> 0.70149006E-02</totfact>
</mgrwt>
</event>
<event>
 6    1  0.1817112E-005  0.2954344E+04  0.7818608E-02  0.8256890E-01
         -2   -1    0    0    0  501 -0.00000000000E+00  0.00000000000E+00  0.86167885486E+03  0.86167885486E+03  0.00000000000E+00 0.  1.
          2   -1    0    0  501    0  0.00000000000E+00 -0.00000000000E+00 -0.25323094340E+04  0.25323094340E+04  0.00000000000E+00 0. -1.
         23    2    1    2    0    0 -0.79942917947E+03  0.57932785618E+02  0.58731161842E+03  0.99800285731E+03  0.92906110801E+02 0.  0.
         11    1    3    3    0    0 -0.61192257422E+03  0.16328819468E+02  0.48075356004E+03  0.77835714982E+03  0.00000000000E+00 0. -1.
        -11    1    3    3    0    0 -0.18750660526E+03  0.41603966150E+02  0.10655805839E+03  0.21964570749E+03  0.00000000000E+00 0.  1.
         22    1    1    2    0    0  0.79942917947E+03 -0.57932785618E+02 -0.22579421975E+04  0.23959854315E+04  0.00000000000E+00 0. -1.
<mgrwt>
<rscale>  0 0.29543443E+04</rscale>
<asrwt>0</asrwt>
<pdfrwt beam="1">  1        2 0.38958607E+00 0.29543443E+04</pdfrwt>
<pdfrwt beam="2">  1       -2 0.13256598E+00 0.29543443E+04</pdfrwt>
<totfact> 0.11835002E+00</totfact>
</mgrwt>
</event>
<event>
 6    1  0.1817112E-005  0.1073094E+04  0.7818608E-02  0.9231820E-01
          2   -1    0    0  501    0  0.00000000000E+00  0.00000000000E+00  0.10996626414E+04  0.10996626414E+04  0.00000000000E+00 0. -1.
         -2   -1    0    0    0  501 -0.00000000000E+00 -0.00000000000E+00 -0.26179201393E+03  0.26179201393E+03  0.00000000000E+00 0.  1.
         23    2    1    2    0    0 -0.60900652979E+02  0.70532606011E+02  0.10876575676E+04  0.10948514792E+04  0.83767768564E+02 0.  0.
         11    1    3    3    0    0 -0.46797425039E+02 -0.50376745308E+01  0.33774137577E+03  0.34100529917E+03  0.00000000000E+00 0. -1.
        -11    1    3    3    0    0 -0.14103227941E+02  0.75570280542E+02  0.74991619187E+03  0.75384618005E+03  0.00000000000E+00 0.  1.
         22    1    1    2    0    0  0.60900652979E+02 -0.70532606011E+02 -0.24978694016E+03  0.26660317612E+03  0.00000000000E+00 0.  1.
<mgrwt>
<rscale>  0 0.10730944E+04</rscale>
<asrwt>0</asrwt>
<pdfrwt beam="1">  1        2 0.16917886E+00 0.10730944E+04</pdfrwt>
<pdfrwt beam="2">  1       -2 0.40275695E-01 0.10730944E+04</pdfrwt>
<totfact> 0.12637370E+02</totfact>
</mgrwt>
</event>
<event>
 6    1  0.1817112E-005  0.1765015E+04  0.7818608E-02  0.8725128E-01
         -2   -1    0    0    0  501 -0.00000000000E+00  0.00000000000E+00  0.33352802903E+03  0.33352802903E+03  0.00000000000E+00 0.  1.
          2   -1    0    0  501    0  0.00000000000E+00 -0.00000000000E+00 -0.23350957171E+04  0.23350957171E+04  0.00000000000E+00 0. -1.
         23    2    1    2    0    0  0.16265420568E+03 -0.79896000650E+03 -0.15046667040E+04  0.17137917868E+04  0.90922581000E+02 0.  0.
         11    1    3    3    0    0  0.11065619970E+03 -0.61575662828E+03 -0.12239344422E+04  0.13745604893E+04  0.00000000000E+00 0. -1.
        -11    1    3    3    0    0  0.51998005975E+02 -0.18320337822E+03 -0.28073226181E+03  0.33923129755E+03  0.00000000000E+00 0.  1.
         22    1    1    2    0    0 -0.16265420568E+03  0.79896000650E+03 -0.49690098408E+03  0.95483195935E+03  0.00000000000E+00 0.  1.
<mgrwt>
<rscale>  0 0.17650154E+04</rscale>
<asrwt>0</asrwt>
<pdfrwt beam="1">  1        2 0.35924549E+00 0.17650154E+04</pdfrwt>
<pdfrwt beam="2">  1       -2 0.51312005E-01 0.17650154E+04</pdfrwt>
<totfact> 0.14721516E+01</totfact>
</mgrwt>
</event>
<event>
 6    1  0.1817112E-005  0.1841148E+04  0.7818608E-02  0.8684718E-01
          2   -1    0    0  501    0  0.00000000000E+00  0.00000000000E+00  0.21301132656E+04  0.21301132656E+04  0.00000000000E+00 0. -1.
         -2   -1    0    0    0  501 -0.00000000000E+00 -0.00000000000E+00 -0.39784589187E+03  0.39784589187E+03  0.00000000000E+00 0.  1.
         23    2    1    2    0    0 -0.42639897978E+03  0.54720366446E+03  0.16943526744E+04  0.18332034703E+04  0.92498853339E+02 0.  0.
         13    1    3    3    0    0 -0.34787696547E+03  0.39502258098E+03  0.13389374970E+04  0.14386851092E+04  0.00000000000E+00 0. -1.
        -13    1    3    3    0    0 -0.78522014308E+02  0.15218108348E+03  0.35541517740E+03  0.39451836108E+03  0.00000000000E+00 0.  1.
         22    1    1    2    0    0  0.42639897978E+03 -0.54720366446E+03  0.37914699249E+02  0.69475568711E+03  0.00000000000E+00 0.  1.
<mgrwt>
<rscale>  0 0.18411484E+04</rscale>
<asrwt>0</asrwt>
<pdfrwt beam="1">  1        2 0.32770973E+00 0.18411484E+04</pdfrwt>
<pdfrwt beam="2">  1       -2 0.61207062E-01 0.18411484E+04</pdfrwt>
<totfact> 0.13206084E+01</totfact>
</mgrwt>
</event>
<event>
 6    1  0.1817112E-005  0.3193029E+04  0.7818608E-02  0.8190661E-01
         -2   -1    0    0    0  501 -0.00000000000E+00  0.00000000000E+00  0.21680847480E+04  0.21680847480E+04  0.00000000000E+00 0.  1.
          2   -1    0    0  501    0  0.00000000000E+00 -0.00000000000E+00 -0.11756270829E+04  0.11756270829E+04  0.00000000000E+00 0. -1.
         23    2    1    2    0    0  0.49662064984E+03 -0.78362231704E+03 -0.86223857161E+03  0.12699244416E+04  0.92502579844E+02 0.  0.
         13    1    3    3    0    0  0.22010265305E+03 -0.26999762693E+03 -0.34572287430E+03  0.49078325383E+03  0.00000000000E+00 0. -1.
        -13    1    3    3    0    0  0.27651799679E+03 -0.51362469011E+03 -0.51651569732E+03  0.77914118773E+03  0.00000000000E+00 0.  1.
         22    1    1    2    0    0 -0.49662064984E+03  0.78362231704E+03  0.18546962367E+04  0.20737873893E+04  0.00000000000E+00 0.  1.
<mgrwt>
<rscale>  0 0.31930294E+04</rscale>
<asrwt>0</asrwt>
<pdfrwt beam="1">  1        2 0.18086570E+00 0.31930294E+04</pdfrwt>
<pdfrwt beam="2">  1       -2 0.33355150E+00 0.31930294E+04</pdfrwt>
<totfact> 0.32553698E-01</totfact>
</mgrwt>
</event>
<event>
 6    1  0.1817112E-005  0.2531493E+04  0.7818608E-02  0.8391851E-01
          1   -1    0    0  501    0  0.00000000000E+00  0.00000000000E+00  0.18412652302E+04  0.18412652302E+04  0.00000000000E+00 0. -1.
         -1   -1    0    0    0  501 -0.00000000000E+00 -0.00000000000E+00 -0.87011560022E+03  0.87011560022E+03  0.00000000000E+00 0.  1.
         23    2    1    2    0    0  0.81188173851E+03 -0.11104917558E+03 -0.54466668178E+03  0.98824909787E+03  0.92144497821E+02 0.  0.
         13    1    3    3    0    0  0.42213815551E+03 -0.36530200674E+02 -0.23207312348E+03  0.48310766144E+03  0.00000000000E+00 0.  1.
        -13    1    3    3    0    0  0.38974358300E+03 -0.74518974908E+02 -0.31259355829E+03  0.50514143643E+03  0.00000000000E+00 0. -1.
         22    1    1    2    0    0 -0.81188173851E+03  0.11104917558E+03  0.15158163117E+04  0.17231317325E+04  0.00000000000E+00 0. -1.
<mgrwt>
<rscale>  0 0.25314925E+04</rscale>
<asrwt>0</asrwt>
<pdfrwt beam="1">  1        1 0.28327157E+00 0.25314925E+04</pdfrwt>
<pdfrwt beam="2">  1       -1 0.13386394E+00 0.25314925E+04</pdfrwt>
<totfact> 0.15927027E+00</totfact>
</mgrwt>
</event>
<event>
 6    1  0.1817112E-005  0.3640099E+04  0.7818608E-02  0.8081368E-01
         -2   -1    0    0    0  501 -0.00000000000E+00  0.00000000000E+00  0.11951432320E+04  0.11951432320E+04  0.00000000000E+00 0.  1.
          2   -1    0    0  501    0  0.00000000000E+00 -0.00000000000E+00 -0.27717011306E+04  0.27717011306E+04  0.00000000000E+00 0. -1.
         23    2    1    2    0    0 -0.46519676709E+03  0.13442794446E+04 -0.20234113672E+04  0.24758134173E+04  0.10937668448E+03 0.  0.
         13    1    3    3    0    0 -0.12825001586E+03  0.53262676201E+03 -0.76898744038E+03  0.94418272471E+03  0.00000000000E+00 0. -1.
        -13    1    3    3    0    0 -0.33694675124E+03  0.81165268258E+03 -0.12544239269E+04  0.15316306926E+04  0.00000000000E+00 0.  1.
         22    1    1    2    0    0  0.46519676709E+03 -0.13442794446E+04  0.44685346870E+03  0.14910309453E+04  0.00000000000E+00 0.  1.
<mgrwt>
<rscale>  0 0.36400988E+04</rscale>
<asrwt>0</asrwt>
<pdfrwt beam="1">  1        2 0.42641556E+00 0.36400988E+04</pdfrwt>
<pdfrwt beam="2">  1       -2 0.18386819E+00 0.36400988E+04</pdfrwt>
<totfact> 0.33314857E-01</totfact>
</mgrwt>
</event>
<event>
 6    1  0.1817112E-005  0.1755043E+04  0.7818608E-02  0.8730579E-01
         -2   -1    0    0    0  501 -0.00000000000E+00  0.00000000000E+00  0.32063366353E+03  0.32063366353E+03  0.00000000000E+00 0.  1.
          2   -1    0    0  501    0  0.00000000000E+00 -0.00000000000E+00 -0.24016318941E+04  0.24016318941E+04  0.00000000000E+00 0. -1.
         23    2    1    2    0    0 -0.22739529757E+03 -0.79611190735E+03 -0.14826590794E+04  0.17007409469E+04  0.93482792518E+02 0.  0.
         11    1    3    3    0    0 -0.20223720927E+03 -0.58487960848E+03 -0.11483832533E+04  0.13045183562E+04  0.00000000000E+00 0. -1.
        -11    1    3    3    0    0 -0.25158088306E+02 -0.21123229887E+03 -0.33427582613E+03  0.39622259076E+03  0.00000000000E+00 0.  1.
         22    1    1    2    0    0  0.22739529757E+03  0.79611190735E+03 -0.59833915114E+03  0.10215246107E+04  0.00000000000E+00 0.  1.
<mgrwt>
<rscale>  0 0.17550431E+04</rscale>
<asrwt>0</asrwt>
<pdfrwt beam="1">  1        2 0.36948184E+00 0.17550431E+04</pdfrwt>
<pdfrwt beam="2">  1       -2 0.49328255E-01 0.17550431E+04</pdfrwt>
<totfact> 0.14635424E+01</totfact>
</mgrwt>
</event>
<event>
 6    1  0.1817112E-005  0.2606101E+04  0.7818608E-02  0.8366132E-01
         -2   -1    0    0    0  501 -0.00000000000E+00  0.00000000000E+00  0.12337514760E+04  0.12337514760E+04  0.00000000000E+00 0. -1.
          2   -1    0    0  501    0  0.00000000000E+00 -0.00000000000E+00 -0.13762419889E+04  0.13762419889E+04  0.00000000000E+00 0.  1.
         23    2    1    2    0    0 -0.11785837101E+03 -0.96038646006E+03  0.80023956569E+03  0.12590779423E+04  0.93065320633E+02 0.  0.
         13    1    3    3    0    0  0.10315130471E+02 -0.91682287699E+02  0.55389361468E+02  0.10761052531E+03  0.00000000000E+00 0. -1.
        -13    1    3    3    0    0 -0.12817350148E+03 -0.86870417236E+03  0.74485020422E+03  0.11514674169E+04  0.00000000000E+00 0.  1.
         22    1    1    2    0    0  0.11785837101E+03  0.96038646006E+03 -0.94273007856E+03  0.13509155226E+04  0.00000000000E+00 0.  1.
<mgrwt>
<rscale>  0 0.26061010E+04</rscale>
<asrwt>0</asrwt>
<pdfrwt beam="1">  1        2 0.21172954E+00 0.26061010E+04</pdfrwt>
<pdfrwt beam="2">  1       -2 0.18980792E+00 0.26061010E+04</pdfrwt>
<totfact> 0.20525846E+00</totfact>
</mgrwt>
</event>
<event>
 6    1  0.1817112E-005  0.3500474E+04  0.7818608E-02  0.8113678E-01
          2   -1    0    0  501    0  0.00000000000E+00  0.00000000000E+00  0.14214265464E+04  0.14214265464E+04  0.00000000000E+00 0. -1.
         -2   -1    0    0    0  501 -0.00000000000E+00 -0.00000000000E+00 -0.21551087659E+04  0.21551087659E+04  0.00000000000E+00 0.  1.
         23    2    1    2    0    0  0.12347166617E+04  0.10416679566E+04 -0.10526957018E+04  0.19299124142E+04  0.82439792481E+02 0.  0.
         13    1    3    3    0    0  0.79979022164E+03  0.71497005212E+03 -0.66981109758E+03  0.12647108288E+04  0.00000000000E+00 0.  1.
        -13    1    3    3    0    0  0.43492644007E+03  0.32669790451E+03 -0.38288460421E+03  0.66520158541E+03  0.00000000000E+00 0. -1.
         22    1    1    2    0    0 -0.12347166617E+04 -0.10416679566E+04  0.31901348234E+03  0.16466228981E+04  0.00000000000E+00 0. -1.
<mgrwt>
<rscale>  0 0.35004736E+04</rscale>
<asrwt>0</asrwt>
<pdfrwt beam="1">  1        2 0.21868101E+00 0.35004736E+04</pdfrwt>
<pdfrwt beam="2">  1       -2 0.33155519E+00 0.35004736E+04</pdfrwt>
<totfact> 0.23460136E-01</totfact>
</mgrwt>
</event>
<event>
 6    1  0.1817112E-005  0.1775784E+04  0.7818608E-02  0.8719284E-01
          2   -1    0    0  501    0  0.00000000000E+00  0.00000000000E+00  0.75024518170E+03  0.75024518170E+03  0.00000000000E+00 0. -1.
         -2   -1    0    0    0  501 -0.00000000000E+00 -0.00000000000E+00 -0.10507925677E+04  0.10507925677E+04  0.00000000000E+00 0.  1.
         23    2    1    2    0    0 -0.37356411560E+03 -0.64764817801E+03  0.33061152488E+03  0.82259005958E+03  0.91389905348E+02 0.  0.
         13    1    3    3    0    0 -0.14158668322E+03 -0.26209440221E+03  0.84144837654E+02  0.30954905627E+03  0.00000000000E+00 0. -1.
        -13    1    3    3    0    0 -0.23197743238E+03 -0.38555377580E+03  0.24646668723E+03  0.51304100331E+03  0.00000000000E+00 0.  1.
         22    1    1    2    0    0  0.37356411560E+03  0.64764817801E+03 -0.63115891090E+03  0.97844768984E+03  0.00000000000E+00 0.  1.
<mgrwt>
<rscale>  0 0.17757838E+04</rscale>
<asrwt>0</asrwt>
<pdfrwt beam="1">  1        2 0.11542234E+00 0.17757838E+04</pdfrwt>
<pdfrwt beam="2">  1       -2 0.16166040E+00 0.17757838E+04</pdfrwt>
<totfact> 0.86778920E+00</totfact>
</mgrwt>
</event>
<event>
 6    1  0.2312346E-005  0.3367615E+04  0.7818608E-02  0.8145901E-01
         -2   -1    0    0    0  501 -0.00000000000E+00  0.00000000000E+00  0.12045418016E+04  0.12045418016E+04  0.00000000000E+00 0.  1.
          2   -1    0    0  501    0  0.00000000000E+00 -0.00000000000E+00 -0.23537646962E+04  0.23537646962E+04  0.00000000000E+00 0. -1.
         23    2    1    2    0    0  0.37863620697E+03 -0.33774655145E+03  0.11199373587E+04  0.12331126638E+04  0.94175602400E+02 0.  0.
         11    1    3    3    0    0  0.99648901232E+02 -0.14885496399E+03  0.38769045047E+03  0.42707328318E+03  0.00000000000E+00 0.  1.
        -11    1    3    3    0    0  0.27898730574E+03 -0.18889158747E+03  0.73224690818E+03  0.80603938063E+03  0.00000000000E+00 0. -1.
         22    1    1    2    0    0 -0.37863620697E+03  0.33774655145E+03 -0.22691602533E+04  0.23251938339E+04  0.00000000000E+00 0. -1.
<mgrwt>
<rscale>  0 0.33676152E+04</rscale>
<asrwt>0</asrwt>
<pdfrwt beam="1">  1        2 0.36211764E+00 0.33676152E+04</pdfrwt>
<pdfrwt beam="2">  1       -2 0.18531412E+00 0.33676152E+04</pdfrwt>
<totfact> 0.58510496E-01</totfact>
</mgrwt>
</event>
<event>
 6    1  0.1817112E-005  0.3140152E+04  0.7818608E-02  0.8204804E-01
         -2   -1    0    0    0  501 -0.00000000000E+00  0.00000000000E+00  0.64556539256E+03  0.64556539256E+03  0.00000000000E+00 0.  1.
          2   -1    0    0  501    0  0.00000000000E+00 -0.00000000000E+00 -0.38185720633E+04  0.38185720633E+04  0.00000000000E+00 0. -1.
         23    2    1    2    0    0  0.68056739912E+03 -0.13744992859E+03 -0.35876670145E+04  0.36554300500E+04  0.93540236273E+02 0.  0.
         11    1    3    3    0    0  0.38543973015E+03 -0.31418789347E+02 -0.19308628527E+04  0.19692085420E+04  0.00000000000E+00 0.  1.
        -11    1    3    3    0    0  0.29512766897E+03 -0.10603113924E+03 -0.16568041617E+04  0.16862215079E+04  0.00000000000E+00 0. -1.
         22    1    1    2    0    0 -0.68056739912E+03  0.13744992859E+03  0.41466034376E+03  0.80870740587E+03  0.00000000000E+00 0.  1.
<mgrwt>
<rscale>  0 0.31401516E+04</rscale>
<asrwt>0</asrwt>
<pdfrwt beam="1">  1        2 0.58747263E+00 0.31401516E+04</pdfrwt>
<pdfrwt beam="2">  1       -2 0.99317751E-01 0.31401516E+04</pdfrwt>
<totfact> 0.33725187E-01</totfact>
</mgrwt>
</event>
<event>
 6    1  0.1817112E-005  0.1010400E+04  0.7818608E-02  0.9297211E-01
         -2   -1    0    0    0  501 -0.00000000000E+00  0.00000000000E+00  0.22350495786E+03  0.22350495786E+03  0.00000000000E+00 0.  1.
          2   -1    0    0  501    0  0.00000000000E+00 -0.00000000000E+00 -0.11419303019E+04  0.11419303019E+04  0.00000000000E+00 0. -1.
         23    2    1    2    0    0 -0.43821235694E+03 -0.34312060232E+02 -0.13727682440E+03  0.46910920470E+03  0.89504928174E+02 0.  0.
         11    1    3    3    0    0 -0.19992878899E+03 -0.22826272086E+02 -0.10907322616E+03  0.22888758820E+03  0.00000000000E+00 0.  1.
        -11    1    3    3    0    0 -0.23828356794E+03 -0.11485788146E+02 -0.28203598240E+02  0.24022161650E+03  0.00000000000E+00 0. -1.
         22    1    1    2    0    0  0.43821235694E+03  0.34312060232E+02 -0.78114851962E+03  0.89632605505E+03  0.00000000000E+00 0. -1.
<mgrwt>
<rscale>  0 0.10104001E+04</rscale>
<asrwt>0</asrwt>
<pdfrwt beam="1">  1        2 0.17568158E+00 0.10104001E+04</pdfrwt>
<pdfrwt beam="2">  1       -2 0.34385378E-01 0.10104001E+04</pdfrwt>
<totfact> 0.16216402E+02</totfact>
</mgrwt>
</event>
<event>
 6    1  0.1817112E-005  0.2663699E+04  0.7818608E-02  0.8346880E-01
          2   -1    0    0  501    0  0.00000000000E+00  0.00000000000E+00  0.16455122972E+04  0.16455122972E+04  0.00000000000E+00 0. -1.
         -2   -1    0    0    0  501 -0.00000000000E+00 -0.00000000000E+00 -0.10779761398E+04  0.10779761398E+04  0.00000000000E+00 0.  1.
         23    2    1    2    0    0  0.76486709009E+03 -0.79116254698E+03 -0.48041409029E+03  0.12038965302E+04  0.87231394081E+02 0.  0.
         11    1    3    3    0    0  0.63606159894E+02 -0.10505974535E+03 -0.54026654222E+02  0.13417217683E+03  0.00000000000E+00 0. -1.
        -11    1    3    3    0    0  0.70126093020E+03 -0.68610280163E+03 -0.42638743606E+03  0.10697243534E+04  0.00000000000E+00 0.  1.
         22    1    1    2    0    0 -0.76486709009E+03  0.79116254698E+03  0.10479502477E+04  0.15195919067E+04  0.00000000000E+00 0. -1.
<mgrwt>
<rscale>  0 0.26636989E+04</rscale>
<asrwt>0</asrwt>
<pdfrwt beam="1">  1        2 0.25315574E+00 0.26636989E+04</pdfrwt>
<pdfrwt beam="2">  1       -2 0.16584248E+00 0.26636989E+04</pdfrwt>
<totfact> 0.21130178E+00</totfact>
</mgrwt>
</event>
<event>
 6    1  0.1817112E-005  0.4524465E+04  0.7818608E-02  0.7906368E-01
         -2   -1    0    0    0  501 -0.00000000000E+00  0.00000000000E+00  0.10943637839E+04  0.10943637839E+04  0.00000000000E+00 0.  1.
          2   -1    0    0  501    0  0.00000000000E+00 -0.00000000000E+00 -0.46764111010E+04  0.46764111010E+04  0.00000000000E+00 0. -1.
         23    2    1    2    0    0 -0.18647872049E+04 -0.50502535451E+02 -0.34219624729E+04  0.38984477278E+04  0.89920491539E+02 0.  0.
         13    1    3    3    0    0 -0.81317824926E+03  0.22401750247E+02 -0.14822501893E+04  0.16908064133E+04  0.00000000000E+00 0. -1.
        -13    1    3    3    0    0 -0.10516089557E+04 -0.72904285699E+02 -0.19397122835E+04  0.22076413145E+04  0.00000000000E+00 0.  1.
         22    1    1    2    0    0  0.18647872049E+04  0.50502535451E+02 -0.16008484427E+03  0.18723271571E+04  0.00000000000E+00 0.  1.
<mgrwt>
<rscale>  0 0.45244646E+04</rscale>
<asrwt>0</asrwt>
<pdfrwt beam="1">  1        2 0.71944786E+00 0.45244646E+04</pdfrwt>
<pdfrwt beam="2">  1       -2 0.16836366E+00 0.45244646E+04</pdfrwt>
<totfact> 0.13321976E-02</totfact>
</mgrwt>
</event>
<event>
 6    1  0.1817112E-005  0.2463831E+04  0.7818608E-02  0.8415985E-01
          2   -1    0    0  501    0  0.00000000000E+00  0.00000000000E+00  0.31971975617E+04  0.31971975617E+04  0.00000000000E+00 0. -1.
         -2   -1    0    0    0  501 -0.00000000000E+00 -0.00000000000E+00 -0.47467065837E+03  0.47467065837E+03  0.00000000000E+00 0.  1.
         23    2    1    2    0    0 -0.42521624452E+03 -0.10868930174E+04  0.19427237233E+04  0.22682164522E+04  0.92114727785E+02 0.  0.
         11    1    3    3    0    0 -0.28865512464E+03 -0.81884040115E+03  0.14945219220E+04  0.17284146374E+04  0.00000000000E+00 0. -1.
        -11    1    3    3    0    0 -0.13656111988E+03 -0.26805261624E+03  0.44820180130E+03  0.53980181476E+03  0.00000000000E+00 0.  1.
         22    1    1    2    0    0  0.42521624452E+03  0.10868930174E+04  0.77980318001E+03  0.14036517679E+04  0.00000000000E+00 0.  1.
<mgrwt>
<rscale>  0 0.24638311E+04</rscale>
<asrwt>0</asrwt>
<pdfrwt beam="1">  1        2 0.49187653E+00 0.24638311E+04</pdfrwt>
<pdfrwt beam="2">  1       -2 0.73026257E-01 0.24638311E+04</pdfrwt>
<totfact> 0.19745004E+00</totfact>
</mgrwt>
</event>
<event>
 6    1  0.1817112E-005  0.1106616E+04  0.7818608E-02  0.9198767E-01
         -2   -1    0    0    0  501 -0.00000000000E+00  0.00000000000E+00  0.16008694417E+03  0.16008694417E+03  0.00000000000E+00 0.  1.
          2   -1    0    0  501    0  0.00000000000E+00 -0.00000000000E+00 -0.19123968362E+04  0.19123968362E+04  0.00000000000E+00 0. -1.
         23    2    1    2    0    0 -0.28711851777E+03  0.44485958845E+03 -0.60657950386E+03  0.81032879026E+03  0.91416394245E+02 0.  0.
         11    1    3    3    0    0 -0.17258157801E+03  0.31373057320E+03 -0.35366471419E+03  0.50327925021E+03  0.00000000000E+00 0.  1.
        -11    1    3    3    0    0 -0.11453693977E+03  0.13112901525E+03 -0.25291478967E+03  0.30704954005E+03  0.00000000000E+00 0. -1.
         22    1    1    2    0    0  0.28711851777E+03 -0.44485958845E+03 -0.11457303881E+04  0.12621549901E+04  0.00000000000E+00 0.  1.
<mgrwt>
<rscale>  0 0.11066160E+04</rscale>
<asrwt>0</asrwt>
<pdfrwt beam="1">  1        2 0.29421489E+00 0.11066160E+04</pdfrwt>
<pdfrwt beam="2">  1       -2 0.24628761E-01 0.11066160E+04</pdfrwt>
<totfact> 0.10949134E+02</totfact>
</mgrwt>
</event>
<event>
 6    1  0.1817112E-005  0.2939981E+04  0.7818608E-02  0.8261080E-01
          2   -1    0    0  501    0  0.00000000000E+00  0.00000000000E+00  0.11327475043E+04  0.11327475043E+04  0.00000000000E+00 0. -1.
         -2   -1    0    0    0  501 -0.00000000000E+00 -0.00000000000E+00 -0.19076375955E+04  0.19076375955E+04  0.00000000000E+00 0.  1.
         23    2    1    2    0    0  0.71836710439E+03 -0.16109820216E+03 -0.17019272165E+04  0.18565769400E+04  0.91201736356E+02 0.  0.
         13    1    3    3    0    0  0.48159970452E+03 -0.63676394056E+02 -0.11207805272E+04  0.12215326229E+04  0.00000000000E+00 0. -1.
        -13    1    3    3    0    0  0.23676739987E+03 -0.97421808102E+02 -0.58114668926E+03  0.63504431717E+03  0.00000000000E+00 0.  1.
         22    1    1    2    0    0 -0.71836710439E+03  0.16109820216E+03  0.92703712534E+03  0.11838081598E+04  0.00000000000E+00 0. -1.
<mgrwt>
<rscale>  0 0.29399808E+04</rscale>
<asrwt>0</asrwt>
<pdfrwt beam="1">  1        2 0.17426885E+00 0.29399808E+04</pdfrwt>
<pdfrwt beam="2">  1       -2 0.29348270E+00 0.29399808E+04</pdfrwt>
<totfact> 0.62335060E-01</totfact>
</mgrwt>
</event>
<event>
 6    1  0.1817112E-005  0.4054759E+04  0.7818608E-02  0.7993590E-01
          2   -1    0    0  501    0  0.00000000000E+00  0.00000000000E+00  0.16183771928E+04  0.16183771928E+04  0.00000000000E+00 0. -1.
         -2   -1    0    0    0  501 -0.00000000000E+00 -0.00000000000E+00 -0.25397465035E+04  0.25397465035E+04  0.00000000000E+00 0.  1.
         23    2    1    2    0    0  0.10458402186E+04  0.98862447061E+03 -0.19238121593E+04  0.24042560355E+04  0.90740029674E+02 0.  0.
         11    1    3    3    0    0  0.25214791104E+03  0.18711725781E+03 -0.41278350527E+03  0.51863441791E+03  0.00000000000E+00 0. -1.
        -11    1    3    3    0    0  0.79369230760E+03  0.80150721279E+03 -0.15110286540E+04  0.18856216176E+04  0.00000000000E+00 0.  1.
         22    1    1    2    0    0 -0.10458402186E+04 -0.98862447061E+03  0.10024428486E+04  0.17538676608E+04  0.00000000000E+00 0. -1.
<mgrwt>
<rscale>  0 0.40547591E+04</rscale>
<asrwt>0</asrwt>
<pdfrwt beam="1">  1        2 0.24898111E+00 0.40547591E+04</pdfrwt>
<pdfrwt beam="2">  1       -2 0.39073023E+00 0.40547591E+04</pdfrwt>
<totfact> 0.72944468E-02</totfact>
</mgrwt>
</event>
<event>
 6    1  0.1817112E-005  0.2534946E+04  0.7818608E-02  0.8390640E-01
         -2   -1    0    0    0  501 -0.00000000000E+00  0.00000000000E+00  0.50344556382E+03  0.50344556382E+03  0.00000000000E+00 0.  1.
          2   -1    0    0  501    0  0.00000000000E+00 -0.00000000000E+00 -0.31909869389E+04  0.31909869389E+04  0.00000000000E+00 0. -1.
         23    2    1    2    0    0  0.62097098692E+03  0.84447197792E+02 -0.29484057559E+04  0.30156199211E+04  0.90170458334E+02 0.  0.
         13    1    3    3    0    0  0.22984817420E+03  0.74906400743E+02 -0.11586672929E+04  0.11836177794E+04  0.00000000000E+00 0.  1.
        -13    1    3    3    0    0  0.39112281273E+03  0.95407970490E+01 -0.17897384629E+04  0.18320021417E+04  0.00000000000E+00 0. -1.
         22    1    1    2    0    0 -0.62097098692E+03 -0.84447197792E+02  0.26086438077E+03  0.67881258162E+03  0.00000000000E+00 0.  1.
<mgrwt>
<rscale>  0 0.25349463E+04</rscale>
<asrwt>0</asrwt>
<pdfrwt beam="1">  1        2 0.49092108E+00 0.25349463E+04</pdfrwt>
<pdfrwt beam="2">  1       -2 0.77453161E-01 0.25349463E+04</pdfrwt>
<totfact> 0.17381033E+00</totfact>
</mgrwt>
</event>
<event>
 6    1  0.1817112E-005  0.1629313E+04  0.7818608E-02  0.8802740E-01
          2   -1    0    0  501    0  0.00000000000E+00  0.00000000000E+00  0.74183642482E+03  0.74183642482E+03  0.00000000000E+00 0. -1.
         -2   -1    0    0    0  501 -0.00000000000E+00 -0.00000000000E+00 -0.89462471239E+03  0.89462471239E+03  0.00000000000E+00 0.  1.
         23    2    1    2    0    0  0.89286937637E+02 -0.80498572103E+03 -0.13380827110E+03  0.82631645302E+03  0.94446063007E+02 0.  0.
         11    1    3    3    0    0 -0.11587197128E+02 -0.25166851655E+03 -0.60732217771E+02  0.25915190070E+03  0.00000000000E+00 0.  1.
        -11    1    3    3    0    0  0.10087413476E+03 -0.55331720448E+03 -0.73076053333E+02  0.56716455232E+03  0.00000000000E+00 0. -1.
         22    1    1    2    0    0 -0.89286937637E+02  0.80498572103E+03 -0.18980016463E+02  0.81014468419E+03  0.00000000000E+00 0.  1.
<mgrwt>
<rscale>  0 0.16293130E+04</rscale>
<asrwt>0</asrwt>
<pdfrwt beam="1">  1        2 0.11412868E+00 0.16293130E+04</pdfrwt>
<pdfrwt beam="2">  1       -2 0.13763457E+00 0.16293130E+04</pdfrwt>
<totfact> 0.13656628E+01</totfact>
</mgrwt>
</event>
<event>
 6    1  0.1817112E-005  0.1084874E+04  0.7818608E-02  0.9220061E-01
         -1   -1    0    0    0  501 -0.00000000000E+00  0.00000000000E+00  0.31670512123E+03  0.31670512123E+03  0.00000000000E+00 0.  1.
          1   -1    0    0  501    0  0.00000000000E+00 -0.00000000000E+00 -0.92905999078E+03  0.92905999078E+03  0.00000000000E+00 0. -1.
         23    2    1    2    0    0  0.40718268512E+03 -0.31981990751E+02 -0.71204423476E+03  0.82533847593E+03  0.85767247884E+02 0.  0.
         11    1    3    3    0    0  0.29209843906E+03  0.13763800770E+02 -0.47232788073E+03  0.55552188727E+03  0.00000000000E+00 0.  1.
        -11    1    3    3    0    0  0.11508424605E+03 -0.45745791521E+02 -0.23971635403E+03  0.26981658867E+03  0.00000000000E+00 0. -1.
         22    1    1    2    0    0 -0.40718268512E+03  0.31981990751E+02  0.99689365212E+02  0.42042663608E+03  0.00000000000E+00 0. -1.
<mgrwt>
<rscale>  0 0.10848743E+04</rscale>
<asrwt>0</asrwt>
<pdfrwt beam="1">  1        1 0.14293231E+00 0.10848743E+04</pdfrwt>
<pdfrwt beam="2">  1       -1 0.48723865E-01 0.10848743E+04</pdfrwt>
<totfact> 0.72433472E+01</totfact>
</mgrwt>
</event>
<event>
 6    1  0.1817112E-005  0.2980899E+04  0.7818608E-02  0.8249206E-01
          2   -1    0    0  501    0  0.00000000000E+00  0.00000000000E+00  0.18731583518E+04  0.18731583518E+04  0.00000000000E+00 0. -1.
         -2   -1    0    0    0  501 -0.00000000000E+00 -0.00000000000E+00 -0.11859324789E+04  0.11859324789E+04  0.00000000000E+00 0.  1.
         23    2    1    2    0    0  0.40075980979E+03  0.20910884950E+03 -0.11120835349E+04  0.12038686659E+04  0.90747121722E+02 0.  0.
         11    1    3    3    0    0  0.23020428669E+03  0.11614785384E+03 -0.51427203249E+03  0.57529128358E+03  0.00000000000E+00 0.  1.
        -11    1    3    3    0    0  0.17055552310E+03  0.92960995663E+02 -0.59781150238E+03  0.62857738231E+03  0.00000000000E+00 0. -1.
         22    1    1    2    0    0 -0.40075980979E+03 -0.20910884950E+03  0.17993094078E+04  0.18552221649E+04  0.00000000000E+00 0. -1.
<mgrwt>
<rscale>  0 0.29808987E+04</rscale>
<asrwt>0</asrwt>
<pdfrwt beam="1">  1        2 0.28817821E+00 0.29808987E+04</pdfrwt>
<pdfrwt beam="2">  1       -2 0.18245115E+00 0.29808987E+04</pdfrwt>
<totfact> 0.11752519E+00</totfact>
</mgrwt>
</event>
<event>
 6    1  0.3849249E-005  0.3620797E+04  0.7818608E-02  0.8085745E-01
         -2   -1    0    0    0  501 -0.00000000000E+00  0.00000000000E+00  0.15634805399E+04  0.15634805399E+04  0.00000000000E+00 0.  1.
          2   -1    0    0  501    0  0.00000000000E+00 -0.00000000000E+00 -0.20963114611E+04  0.20963114611E+04  0.00000000000E+00 0. -1.
         23    2    1    2    0    0  0.31600960347E+03  0.28788872244E+03  0.15094533627E+04  0.15732477091E+04  0.11796997098E+03 0.  0.
         13    1    3    3    0    0  0.22842715151E+03  0.16928652631E+03  0.81073854702E+03  0.85914718364E+03  0.00000000000E+00 0.  1.
        -13    1    3    3    0    0  0.87582451957E+02  0.11860219613E+03  0.69871481567E+03  0.71410052545E+03  0.00000000000E+00 0. -1.
         22    1    1    2    0    0 -0.31600960347E+03 -0.28788872244E+03 -0.20422842838E+04  0.20865442919E+04  0.00000000000E+00 0. -1.
<mgrwt>
<rscale>  0 0.36207967E+04</rscale>
<asrwt>0</asrwt>
<pdfrwt beam="1">  1        2 0.32250946E+00 0.36207967E+04</pdfrwt>
<pdfrwt beam="2">  1       -2 0.24053547E+00 0.36207967E+04</pdfrwt>
<totfact> 0.35314823E-01</totfact>
</mgrwt>
</event>
<event>
 6    1  0.1906352E-005  0.3031462E+04  0.7818608E-02  0.8234803E-01
         -2   -1    0    0    0  501 -0.00000000000E+00  0.00000000000E+00  0.73402451973E+03  0.73402451973E+03  0.00000000000E+00 0.  1.
          2   -1    0    0  501    0  0.00000000000E+00 -0.00000000000E+00 -0.31299227883E+04  0.31299227883E+04  0.00000000000E+00 0. -1.
         23    2    1    2    0    0  0.60999730511E+03 -0.24435231010E+03  0.54007652446E+03  0.85533421411E+03  0.90051107001E+02 0.  0.
         13    1    3    3    0    0  0.28205504803E+03 -0.13061951701E+03  0.30938670820E+03  0.43856201791E+03  0.00000000000E+00 0.  1.
        -13    1    3    3    0    0  0.32794225708E+03 -0.11373279310E+03  0.23068981625E+03  0.41677219620E+03  0.00000000000E+00 0. -1.
         22    1    1    2    0    0 -0.60999730511E+03  0.24435231010E+03 -0.29359747931E+04  0.30086130940E+04  0.00000000000E+00 0. -1.
<mgrwt>
<rscale>  0 0.30314617E+04</rscale>
<asrwt>0</asrwt>
<pdfrwt beam="1">  1        2 0.48152657E+00 0.30314617E+04</pdfrwt>
<pdfrwt beam="2">  1       -2 0.11292685E+00 0.30314617E+04</pdfrwt>
<totfact> 0.75720063E-01</totfact>
</mgrwt>
</event>
<event>
 6    1  0.1817112E-005  0.1484959E+04  0.7818608E-02  0.8894517E-01
          2   -1    0    0  501    0  0.00000000000E+00  0.00000000000E+00  0.11540103496E+04  0.11540103496E+04  0.00000000000E+00 0. -1.
         -2   -1    0    0    0  501 -0.00000000000E+00 -0.00000000000E+00 -0.47770464601E+03  0.47770464601E+03  0.00000000000E+00 0.  1.
         23    2    1    2    0    0 -0.41585228175E+03  0.46721073370E+03  0.77298791793E+03  0.99881181147E+03  0.94317143432E+02 0.  0.
         13    1    3    3    0    0 -0.72864159627E+02  0.56317369826E+02  0.16366090096E+03  0.18779169951E+03  0.00000000000E+00 0. -1.
        -13    1    3    3    0    0 -0.34298812212E+03  0.41089336387E+03  0.60932701698E+03  0.81102011196E+03  0.00000000000E+00 0.  1.
         22    1    1    2    0    0  0.41585228175E+03 -0.46721073370E+03 -0.96682214345E+02  0.63290318414E+03  0.00000000000E+00 0.  1.
<mgrwt>
<rscale>  0 0.14849594E+04</rscale>
<asrwt>0</asrwt>
<pdfrwt beam="1">  1        2 0.17754005E+00 0.14849594E+04</pdfrwt>
<pdfrwt beam="2">  1       -2 0.73493023E-01 0.14849594E+04</pdfrwt>
<totfact> 0.32621000E+01</totfact>
</mgrwt>
</event>
<event>
 6    1  0.1817112E-005  0.1166385E+04  0.7818608E-02  0.9142799E-01
         -2   -1    0    0    0  501 -0.00000000000E+00  0.00000000000E+00  0.12649981367E+04  0.12649981367E+04  0.00000000000E+00 0.  1.
          2   -1    0    0  501    0  0.00000000000E+00 -0.00000000000E+00 -0.26886504683E+03  0.26886504683E+03  0.00000000000E+00 0. -1.
         23    2    1    2    0    0  0.86158319369E+02  0.56971210683E+03  0.58315842651E+03  0.82496035997E+03  0.92145018629E+02 0.  0.
         13    1    3    3    0    0  0.66488409358E+02  0.33581150821E+03  0.40488879902E+03  0.53021223788E+03  0.00000000000E+00 0.  1.
        -13    1    3    3    0    0  0.19669910011E+02  0.23390059862E+03  0.17826962749E+03  0.29474812209E+03  0.00000000000E+00 0. -1.
         22    1    1    2    0    0 -0.86158319369E+02 -0.56971210683E+03  0.41297466335E+03  0.70890282355E+03  0.00000000000E+00 0.  1.
<mgrwt>
<rscale>  0 0.11663855E+04</rscale>
<asrwt>0</asrwt>
<pdfrwt beam="1">  1        2 0.41363854E-01 0.11663855E+04</pdfrwt>
<pdfrwt beam="2">  1       -2 0.19461509E+00 0.11663855E+04</pdfrwt>
<totfact> 0.17701561E+01</totfact>
</mgrwt>
</event>
<event>
 6    1  0.1817112E-005  0.2543281E+04  0.7818608E-02  0.8387727E-01
          2   -1    0    0  501    0  0.00000000000E+00  0.00000000000E+00  0.26889500067E+04  0.26889500067E+04  0.00000000000E+00 0. -1.
         -2   -1    0    0    0  501 -0.00000000000E+00 -0.00000000000E+00 -0.60137567508E+03  0.60137567508E+03  0.00000000000E+00 0.  1.
         23    2    1    2    0    0 -0.53019769458E+03  0.57237574496E+03 -0.25120941306E+03  0.82483729341E+03  0.92340687817E+02 0.  0.
         13    1    3    3    0    0 -0.20492301504E+03  0.17076355306E+03 -0.11425272444E+03  0.29018497236E+03  0.00000000000E+00 0. -1.
        -13    1    3    3    0    0 -0.32527467954E+03  0.40161219190E+03 -0.13695668863E+03  0.53465232104E+03  0.00000000000E+00 0.  1.
         22    1    1    2    0    0  0.53019769458E+03 -0.57237574496E+03  0.23387837447E+04  0.24654883883E+04  0.00000000000E+00 0. -1.
<mgrwt>
<rscale>  0 0.25432807E+04</rscale>
<asrwt>0</asrwt>
<pdfrwt beam="1">  1        2 0.41368461E+00 0.25432807E+04</pdfrwt>
<pdfrwt beam="2">  1       -2 0.92519336E-01 0.25432807E+04</pdfrwt>
<totfact> 0.23748214E+00</totfact>
</mgrwt>
</event>
<event>
 6    1  0.1817112E-005  0.1124565E+04  0.7818608E-02  0.9181574E-01
          2   -1    0    0  501    0  0.00000000000E+00  0.00000000000E+00  0.18195627623E+04  0.18195627623E+04  0.00000000000E+00 0. -1.
         -2   -1    0    0    0  501 -0.00000000000E+00 -0.00000000000E+00 -0.17375704123E+03  0.17375704123E+03  0.00000000000E+00 0.  1.
         23    2    1    2    0    0  0.31082480020E+03 -0.43876062819E+03  0.56071141680E+03  0.78230675884E+03  0.92106605214E+02 0.  0.
         11    1    3    3    0    0  0.11519531312E+03 -0.24129466860E+03  0.26465585668E+03  0.37621243964E+03  0.00000000000E+00 0.  1.
        -11    1    3    3    0    0  0.19562948708E+03 -0.19746595958E+03  0.29605556012E+03  0.40609431920E+03  0.00000000000E+00 0. -1.
         22    1    1    2    0    0 -0.31082480020E+03  0.43876062819E+03  0.10850943042E+04  0.12110130447E+04  0.00000000000E+00 0.  1.
<mgrwt>
<rscale>  0 0.11245654E+04</rscale>
<asrwt>0</asrwt>
<pdfrwt beam="1">  1        2 0.27993272E+00 0.11245654E+04</pdfrwt>
<pdfrwt beam="2">  1       -2 0.26731854E-01 0.11245654E+04</pdfrwt>
<totfact> 0.10598453E+02</totfact>
</mgrwt>
</event>
<event>
 6    1  0.1817112E-005  0.7706556E+03  0.7818608E-02  0.9603491E-01
         -1   -1    0    0    0  501 -0.00000000000E+00  0.00000000000E+00  0.14046889933E+03  0.14046889933E+03  0.00000000000E+00 0.  1.
          1   -1    0    0  501    0  0.00000000000E+00 -0.00000000000E+00 -0.10570133243E+04  0.10570133243E+04  0.00000000000E+00 0. -1.
         23    2    1    2    0    0 -0.88175543171E+02  0.21755450784E+03 -0.74726692859E+00  0.25207790537E+03  0.91857616291E+02 0.  0.
         13    1    3    3    0    0 -0.10462267029E+03  0.20828123383E+03  0.13077910504E+01  0.23308514715E+03  0.00000000000E+00 0. -1.
        -13    1    3    3    0    0  0.16447127120E+02  0.92732740129E+01 -0.20550579790E+01  0.18992758218E+02  0.00000000000E+00 0.  1.
         22    1    1    2    0    0  0.88175543171E+02 -0.21755450784E+03 -0.91579715800E+03  0.94540431822E+03  0.00000000000E+00 0. -1.
<mgrwt>
<rscale>  0 0.77065556E+03</rscale>
<asrwt>0</asrwt>
<pdfrwt beam="1">  1        1 0.16261744E+00 0.77065556E+03</pdfrwt>
<pdfrwt beam="2">  1       -1 0.21610599E-01 0.77065556E+03</pdfrwt>
<totfact> 0.24811583E+02</totfact>
</mgrwt>
</event>
<event>
 6    1  0.1817112E-005  0.8106783E+03  0.7818608E-02  0.9544688E-01
          1   -1    0    0  501    0  0.00000000000E+00  0.00000000000E+00  0.12844454104E+04  0.12844454104E+04  0.00000000000E+00 0. -1.
         -1   -1    0    0    0  501 -0.00000000000E+00 -0.00000000000E+00 -0.12791498443E+03  0.12791498443E+03  0.00000000000E+00 0.  1.
         23    2    1    2    0    0 -0.53788730423E+02  0.35589521931E+03  0.28036499418E+03  0.46514315549E+03  0.90548277127E+02 0.  0.
         13    1    3    3    0    0 -0.54198988745E+02  0.12605668679E+03  0.13896101135E+03  0.19528948088E+03  0.00000000000E+00 0.  1.
        -13    1    3    3    0    0  0.41025832204E+00  0.22983853252E+03  0.14140398283E+03  0.26985367462E+03  0.00000000000E+00 0. -1.
         22    1    1    2    0    0  0.53788730423E+02 -0.35589521931E+03  0.87616543183E+03  0.94721723939E+03  0.00000000000E+00 0. -1.
<mgrwt>
<rscale>  0 0.81067827E+03</rscale>
<asrwt>0</asrwt>
<pdfrwt beam="1">  1        1 0.19760698E+00 0.81067827E+03</pdfrwt>
<pdfrwt beam="2">  1       -1 0.19679229E-01 0.81067827E+03</pdfrwt>
<totfact> 0.19728020E+02</totfact>
</mgrwt>
</event>
<event>
 6    1  0.1817112E-005  0.3189044E+04  0.7818608E-02  0.8191717E-01
         -2   -1    0    0    0  501 -0.00000000000E+00  0.00000000000E+00  0.12862099095E+04  0.12862099095E+04  0.00000000000E+00 0.  1.
          2   -1    0    0  501    0  0.00000000000E+00 -0.00000000000E+00 -0.19767386214E+04  0.19767386214E+04  0.00000000000E+00 0. -1.
         23    2    1    2    0    0 -0.10957756127E+03 -0.67728372099E+03 -0.18167694661E+04  0.19441844439E+04  0.92094398864E+02 0.  0.
         13    1    3    3    0    0 -0.10663483795E+03 -0.55071234240E+03 -0.13864362709E+04  0.14956137890E+04  0.00000000000E+00 0. -1.
        -13    1    3    3    0    0 -0.29427233179E+01 -0.12657137859E+03 -0.43033319527E+03  0.44857065492E+03  0.00000000000E+00 0.  1.
         22    1    1    2    0    0  0.10957756127E+03  0.67728372099E+03  0.11262407543E+04  0.13187640870E+04  0.00000000000E+00 0.  1.
<mgrwt>
<rscale>  0 0.31890442E+04</rscale>
<asrwt>0</asrwt>
<pdfrwt beam="1">  1        2 0.30411363E+00 0.31890442E+04</pdfrwt>
<pdfrwt beam="2">  1       -2 0.19787845E+00 0.31890442E+04</pdfrwt>
<totfact> 0.79689010E-01</totfact>
</mgrwt>
</event>
<event>
 6    1  0.1817112E-005  0.2819944E+04  0.7818608E-02  0.8297103E-01
         -2   -1    0    0    0  501 -0.00000000000E+00  0.00000000000E+00  0.61596084230E+03  0.61596084230E+03  0.00000000000E+00 0.  1.
          2   -1    0    0  501    0  0.00000000000E+00 -0.00000000000E+00 -0.32275110626E+04  0.32275110626E+04  0.00000000000E+00 0. -1.
         23    2    1    2    0    0 -0.60062415110E+03  0.65269035726E+03  0.18418203735E+03  0.91040645562E+03  0.90348316006E+02 0.  0.
         11    1    3    3    0    0 -0.23893230785E+03  0.26872560120E+03  0.11970061431E+03  0.37898592790E+03  0.00000000000E+00 0.  1.
        -11    1    3    3    0    0 -0.36169184325E+03  0.38396475606E+03  0.64481423032E+02  0.53142052772E+03  0.00000000000E+00 0. -1.
         22    1    1    2    0    0  0.60062415110E+03 -0.65269035726E+03 -0.27957322576E+04  0.29330654493E+04  0.00000000000E+00 0. -1.
<mgrwt>
<rscale>  0 0.28199436E+04</rscale>
<asrwt>0</asrwt>
<pdfrwt beam="1">  1        2 0.49654017E+00 0.28199436E+04</pdfrwt>
<pdfrwt beam="2">  1       -2 0.94763204E-01 0.28199436E+04</pdfrwt>
<totfact> 0.10127565E+00</totfact>
</mgrwt>
</event>
<event>
 6    1  0.1817112E-005  0.1762514E+04  0.7818608E-02  0.8726492E-01
          2   -1    0    0  501    0  0.00000000000E+00  0.00000000000E+00  0.19382593157E+04  0.19382593157E+04  0.00000000000E+00 0. -1.
         -2   -1    0    0    0  501 -0.00000000000E+00 -0.00000000000E+00 -0.40067604756E+03  0.40067604756E+03  0.00000000000E+00 0.  1.
         23    2    1    2    0    0  0.73882932024E+03 -0.12982077748E+03  0.13785968778E+04  0.15721245189E+04  0.91235698436E+02 0.  0.
         11    1    3    3    0    0  0.67874491276E+03 -0.11165281455E+03  0.12047681582E+04  0.13873093825E+04  0.00000000000E+00 0. -1.
        -11    1    3    3    0    0  0.60084407486E+02 -0.18167962935E+02  0.17382871961E+03  0.18481513645E+03  0.00000000000E+00 0.  1.
         22    1    1    2    0    0 -0.73882932024E+03  0.12982077748E+03  0.15898639032E+03  0.76681084436E+03  0.00000000000E+00 0.  1.
<mgrwt>
<rscale>  0 0.17625142E+04</rscale>
<asrwt>0</asrwt>
<pdfrwt beam="1">  1        2 0.29819374E+00 0.17625142E+04</pdfrwt>
<pdfrwt beam="2">  1       -2 0.61642470E-01 0.17625142E+04</pdfrwt>
<totfact> 0.16744144E+01</totfact>
</mgrwt>
</event>
<event>
 6    1  0.1817112E-005  0.2798693E+04  0.7818608E-02  0.8303674E-01
          2   -1    0    0  501    0  0.00000000000E+00  0.00000000000E+00  0.27142160087E+04  0.27142160087E+04  0.00000000000E+00 0. -1.
         -2   -1    0    0    0  501 -0.00000000000E+00 -0.00000000000E+00 -0.72144982712E+03  0.72144982712E+03  0.00000000000E+00 0.  1.
         23    2    1    2    0    0 -0.33288843691E+03 -0.85432870872E+03  0.22926442786E+04  0.24709798107E+04  0.93974372221E+02 0.  0.
         11    1    3    3    0    0 -0.21487317056E+03 -0.60681522127E+03  0.15020160445E+04  0.16341503573E+04  0.00000000000E+00 0.  1.
        -11    1    3    3    0    0 -0.11801526635E+03 -0.24751348745E+03  0.79062823415E+03  0.83682945347E+03  0.00000000000E+00 0. -1.
         22    1    1    2    0    0  0.33288843691E+03  0.85432870872E+03 -0.29987809705E+03  0.96468602512E+03  0.00000000000E+00 0.  1.
<mgrwt>
<rscale>  0 0.27986930E+04</rscale>
<asrwt>0</asrwt>
<pdfrwt beam="1">  1        2 0.41757169E+00 0.27986930E+04</pdfrwt>
<pdfrwt beam="2">  1       -2 0.11099228E+00 0.27986930E+04</pdfrwt>
<totfact> 0.14563762E+00</totfact>
</mgrwt>
</event>
<event>
 6    1  0.1817112E-005  0.1267670E+04  0.7818608E-02  0.9055603E-01
          2   -1    0    0  501    0  0.00000000000E+00  0.00000000000E+00  0.62911118411E+03  0.62911118411E+03  0.00000000000E+00 0. -1.
         -2   -1    0    0    0  501 -0.00000000000E+00 -0.00000000000E+00 -0.63859465569E+03  0.63859465569E+03  0.00000000000E+00 0.  1.
         23    2    1    2    0    0 -0.47593859184E+02  0.48358337815E+03  0.39693223698E+03  0.63422988350E+03  0.92597436862E+02 0.  0.
         11    1    3    3    0    0 -0.10752531595E+02  0.22259490344E+03  0.23982190216E+03  0.32738150945E+03  0.00000000000E+00 0. -1.
        -11    1    3    3    0    0 -0.36841327589E+02  0.26098847471E+03  0.15711033482E+03  0.30684837405E+03  0.00000000000E+00 0.  1.
         22    1    1    2    0    0  0.47593859184E+02 -0.48358337815E+03 -0.40641570855E+03  0.63347595631E+03  0.00000000000E+00 0. -1.
<mgrwt>
<rscale>  0 0.12676704E+04</rscale>
<asrwt>0</asrwt>
<pdfrwt beam="1">  1        2 0.96786336E-01 0.12676704E+04</pdfrwt>
<pdfrwt beam="2">  1       -2 0.98245331E-01 0.12676704E+04</pdfrwt>
<totfact> 0.39617409E+01</totfact>
</mgrwt>
</event>
<event>
 6    1  0.1817112E-005  0.7651208E+03  0.7818608E-02  0.9611922E-01
         -2   -1    0    0    0  501 -0.00000000000E+00  0.00000000000E+00  0.66010053688E+03  0.66010053688E+03  0.00000000000E+00 0.  1.
          2   -1    0    0  501    0  0.00000000000E+00 -0.00000000000E+00 -0.22171239203E+03  0.22171239203E+03  0.00000000000E+00 0. -1.
         23    2    1    2    0    0 -0.29345797255E+03 -0.83663171979E+02 -0.33362343757E+02  0.31997164215E+03  0.90286753167E+02 0.  0.
         11    1    3    3    0    0 -0.18054247250E+03 -0.39743741791E+02  0.23103545168E+02  0.18630330965E+03  0.00000000000E+00 0. -1.
        -11    1    3    3    0    0 -0.11291550005E+03 -0.43919430188E+02 -0.56465888925E+02  0.13366833250E+03  0.00000000000E+00 0.  1.
         22    1    1    2    0    0  0.29345797255E+03  0.83663171979E+02  0.47175048861E+03  0.56184128676E+03  0.00000000000E+00 0.  1.
<mgrwt>
<rscale>  0 0.76512082E+03</rscale>
<asrwt>0</asrwt>
<pdfrwt beam="1">  1        2 0.34109599E-01 0.76512082E+03</pdfrwt>
<pdfrwt beam="2">  1       -2 0.10155393E+00 0.76512082E+03</pdfrwt>
<totfact> 0.12362973E+02</totfact>
</mgrwt>
</event>
<event>
 6    1  0.1817112E-005  0.1649733E+04  0.7818608E-02  0.8790564E-01
          2   -1    0    0  501    0  0.00000000000E+00  0.00000000000E+00  0.18539572285E+04  0.18539572285E+04  0.00000000000E+00 0. -1.
         -2   -1    0    0    0  501 -0.00000000000E+00 -0.00000000000E+00 -0.36700128069E+03  0.36700128069E+03  0.00000000000E+00 0.  1.
         23    2    1    2    0    0 -0.70663752227E+03 -0.10549563330E+03  0.12940065373E+04  0.14808940583E+04  0.90157510785E+02 0.  0.
         11    1    3    3    0    0 -0.16005138720E+03 -0.30002391395E+02  0.37725938335E+03  0.41090294762E+03  0.00000000000E+00 0.  1.
        -11    1    3    3    0    0 -0.54658613507E+03 -0.75493241905E+02  0.91674715393E+03  0.10699911106E+04  0.00000000000E+00 0. -1.
         22    1    1    2    0    0  0.70663752227E+03  0.10549563330E+03  0.19294941055E+03  0.74006445094E+03  0.00000000000E+00 0.  1.
<mgrwt>
<rscale>  0 0.16497329E+04</rscale>
<asrwt>0</asrwt>
<pdfrwt beam="1">  1        2 0.28522418E+00 0.16497329E+04</pdfrwt>
<pdfrwt beam="2">  1       -2 0.56461736E-01 0.16497329E+04</pdfrwt>
<totfact> 0.22644122E+01</totfact>
</mgrwt>
</event>
<event>
 6    1  0.1817112E-005  0.2052783E+04  0.7818608E-02  0.8582333E-01
          2   -1    0    0  501    0  0.00000000000E+00  0.00000000000E+00  0.20389719457E+04  0.20389719457E+04  0.00000000000E+00 0.  1.
         -2   -1    0    0    0  501 -0.00000000000E+00 -0.00000000000E+00 -0.51667171360E+03  0.51667171360E+03  0.00000000000E+00 0. -1.
         23    2    1    2    0    0  0.11439543458E+03  0.25469034862E+03  0.19896709483E+04  0.20112275726E+04  0.91062490374E+02 0.  0.
         11    1    3    3    0    0  0.36718074879E+02  0.14587776860E+03  0.13036955033E+04  0.13123454216E+04  0.00000000000E+00 0. -1.
        -11    1    3    3    0    0  0.77677359697E+02  0.10881258002E+03  0.68597544499E+03  0.69888215095E+03  0.00000000000E+00 0.  1.
         22    1    1    2    0    0 -0.11439543458E+03 -0.25469034862E+03 -0.46737071618E+03  0.54441608671E+03  0.00000000000E+00 0. -1.
<mgrwt>
<rscale>  0 0.20527826E+04</rscale>
<asrwt>0</asrwt>
<pdfrwt beam="1">  1        2 0.31368799E+00 0.20527826E+04</pdfrwt>
<pdfrwt beam="2">  1       -2 0.79487957E-01 0.20527826E+04</pdfrwt>
<totfact> 0.82446127E+00</totfact>
</mgrwt>
</event>
<event>
 6    1  0.1817112E-005  0.4697571E+04  0.7818608E-02  0.7876932E-01
          2   -1    0    0  501    0  0.00000000000E+00  0.00000000000E+00  0.19539506324E+04  0.19539506324E+04  0.00000000000E+00 0.  1.
         -2   -1    0    0    0  501 -0.00000000000E+00 -0.00000000000E+00 -0.28234051538E+04  0.28234051538E+04  0.00000000000E+00 0. -1.
         23    2    1    2    0    0  0.69786182180E+03  0.11030240106E+04 -0.24197123614E+04  0.27507891180E+04  0.90331441020E+02 0.  0.
         11    1    3    3    0    0  0.55763052867E+03  0.93630646537E+03 -0.20501071207E+04  0.23217581291E+04  0.00000000000E+00 0. -1.
        -11    1    3    3    0    0  0.14023129312E+03  0.16671754519E+03 -0.36960524076E+03  0.42903098891E+03  0.00000000000E+00 0.  1.
         22    1    1    2    0    0 -0.69786182180E+03 -0.11030240106E+04  0.15502578400E+04  0.20265666682E+04  0.00000000000E+00 0.  1.
<mgrwt>
<rscale>  0 0.46975714E+04</rscale>
<asrwt>0</asrwt>
<pdfrwt beam="1">  1        2 0.30060779E+00 0.46975714E+04</pdfrwt>
<pdfrwt beam="2">  1       -2 0.43437002E+00 0.46975714E+04</pdfrwt>
<totfact> 0.23308370E-02</totfact>
</mgrwt>
</event>
<event>
 6    1  0.1817112E-005  0.1235427E+04  0.7818608E-02  0.9082401E-01
         -2   -1    0    0    0  501 -0.00000000000E+00  0.00000000000E+00  0.28505202365E+03  0.28505202365E+03  0.00000000000E+00 0.  1.
          2   -1    0    0  501    0  0.00000000000E+00 -0.00000000000E+00 -0.13385970072E+04  0.13385970072E+04  0.00000000000E+00 0. -1.
         23    2    1    2    0    0 -0.44082145086E+03 -0.37862353963E+03 -0.26717601009E+03  0.64586812557E+03  0.89907057371E+02 0.  0.
         13    1    3    3    0    0 -0.20108366181E+03 -0.13785952387E+03 -0.15105656976E+03  0.28680651080E+03  0.00000000000E+00 0. -1.
        -13    1    3    3    0    0 -0.23973778905E+03 -0.24076401576E+03 -0.11611944033E+03  0.35906161477E+03  0.00000000000E+00 0.  1.
         22    1    1    2    0    0  0.44082145086E+03  0.37862353963E+03 -0.78636897344E+03  0.97778090526E+03  0.00000000000E+00 0. -1.
<mgrwt>
<rscale>  0 0.12354267E+04</rscale>
<asrwt>0</asrwt>
<pdfrwt beam="1">  1        2 0.20593800E+00 0.12354267E+04</pdfrwt>
<pdfrwt beam="2">  1       -2 0.43854157E-01 0.12354267E+04</pdfrwt>
<totfact> 0.76168303E+01</totfact>
</mgrwt>
</event>
<event>
 6    1  0.2447149E-005  0.3501835E+04  0.7818608E-02  0.8113355E-01
          2   -1    0    0  501    0  0.00000000000E+00  0.00000000000E+00  0.28193851048E+04  0.28193851048E+04  0.00000000000E+00 0. -1.
         -2   -1    0    0    0  501 -0.00000000000E+00 -0.00000000000E+00 -0.10873691160E+04  0.10873691160E+04  0.00000000000E+00 0.  1.
         23    2    1    2    0    0 -0.14893872343E+03  0.44063616255E+03 -0.10152251521E+04  0.11204166860E+04  0.91150807290E+02 0.  0.
         13    1    3    3    0    0 -0.71967637634E+02  0.24738710212E+03 -0.66374632105E+03  0.71199641703E+03  0.00000000000E+00 0. -1.
        -13    1    3    3    0    0 -0.76971085798E+02  0.19324906043E+03 -0.35147883107E+03  0.40842026896E+03  0.00000000000E+00 0.  1.
         22    1    1    2    0    0  0.14893872343E+03 -0.44063616255E+03  0.27472411410E+04  0.27863375348E+04  0.00000000000E+00 0. -1.
<mgrwt>
<rscale>  0 0.35018351E+04</rscale>
<asrwt>0</asrwt>
<pdfrwt beam="1">  1        2 0.43375155E+00 0.35018351E+04</pdfrwt>
<pdfrwt beam="2">  1       -2 0.16728756E+00 0.35018351E+04</pdfrwt>
<totfact> 0.41193339E-01</totfact>
</mgrwt>
</event>
<event>
 6    1  0.1817112E-005  0.1150793E+04  0.7818608E-02  0.9157052E-01
         -2   -1    0    0    0  501 -0.00000000000E+00  0.00000000000E+00  0.32236266905E+03  0.32236266905E+03  0.00000000000E+00 0.  1.
          2   -1    0    0  501    0  0.00000000000E+00 -0.00000000000E+00 -0.10270451338E+04  0.10270451338E+04  0.00000000000E+00 0. -1.
         23    2    1    2    0    0 -0.30505307969E+02  0.51727896904E+03 -0.63791061848E+03  0.82694576109E+03  0.91658218339E+02 0.  0.
         11    1    3    3    0    0  0.32412437339E+02  0.14467626819E+03 -0.17324744442E+03  0.22802733536E+03  0.00000000000E+00 0. -1.
        -11    1    3    3    0    0 -0.62917745307E+02  0.37260270085E+03 -0.46466317406E+03  0.59891842573E+03  0.00000000000E+00 0.  1.
         22    1    1    2    0    0  0.30505307969E+02 -0.51727896904E+03 -0.66771846265E+02  0.52246204176E+03  0.00000000000E+00 0.  1.
<mgrwt>
<rscale>  0 0.11507928E+04</rscale>
<asrwt>0</asrwt>
<pdfrwt beam="1">  1        2 0.15800694E+00 0.11507928E+04</pdfrwt>
<pdfrwt beam="2">  1       -2 0.49594256E-01 0.11507928E+04</pdfrwt>
<totfact> 0.92164199E+01</totfact>
</mgrwt>
</event>
<event>
 6    1  0.1817112E-005  0.1159617E+04  0.7818608E-02  0.9148957E-01
         -2   -1    0    0    0  501 -0.00000000000E+00  0.00000000000E+00  0.23421935502E+03  0.23421935502E+03  0.00000000000E+00 0.  1.
          2   -1    0    0  501    0  0.00000000000E+00 -0.00000000000E+00 -0.14353113535E+04  0.14353113535E+04  0.00000000000E+00 0. -1.
         23    2    1    2    0    0 -0.29232454106E+03  0.13225982833E+03 -0.12933285463E+04  0.13356836174E+04  0.91682592060E+02 0.  0.
         13    1    3    3    0    0 -0.28875777695E+02  0.45057641436E+02 -0.15354924518E+03  0.16260803266E+03  0.00000000000E+00 0.  1.
        -13    1    3    3    0    0 -0.26344876336E+03  0.87202186899E+02 -0.11397793011E+04  0.11730755847E+04  0.00000000000E+00 0. -1.
         22    1    1    2    0    0  0.29232454106E+03 -0.13225982833E+03  0.92236547797E+02  0.33384709111E+03  0.00000000000E+00 0.  1.
<mgrwt>
<rscale>  0 0.11596167E+04</rscale>
<asrwt>0</asrwt>
<pdfrwt beam="1">  1        2 0.22081713E+00 0.11596167E+04</pdfrwt>
<pdfrwt beam="2">  1       -2 0.36033748E-01 0.11596167E+04</pdfrwt>
<totfact> 0.98926476E+01</totfact>
</mgrwt>
</event>
<event>
 6    1  0.1817112E-005  0.7514581E+03  0.7818608E-02  0.9633066E-01
          2   -1    0    0  501    0  0.00000000000E+00  0.00000000000E+00  0.11801090845E+04  0.11801090845E+04  0.00000000000E+00 0. -1.
         -2   -1    0    0    0  501 -0.00000000000E+00 -0.00000000000E+00 -0.11962648416E+03  0.11962648416E+03  0.00000000000E+00 0.  1.
         23    2    1    2    0    0 -0.48265137217E+02 -0.35772325662E+03  0.68424990158E+03  0.77834656283E+03  0.85615373971E+02 0.  0.
         11    1    3    3    0    0  0.26576353007E+01 -0.17057111645E+03  0.39295675134E+03  0.42838834860E+03  0.00000000000E+00 0.  1.
        -11    1    3    3    0    0 -0.50922772517E+02 -0.18715214017E+03  0.29129315024E+03  0.34995821423E+03  0.00000000000E+00 0. -1.
         22    1    1    2    0    0  0.48265137217E+02  0.35772325662E+03  0.37623269880E+03  0.52138900587E+03  0.00000000000E+00 0.  1.
<mgrwt>
<rscale>  0 0.75145805E+03</rscale>
<asrwt>0</asrwt>
<pdfrwt beam="1">  1        2 0.18155524E+00 0.75145805E+03</pdfrwt>
<pdfrwt beam="2">  1       -2 0.18404075E-01 0.75145805E+03</pdfrwt>
<totfact> 0.48400667E+02</totfact>
</mgrwt>
</event>
<event>
 6    1  0.1817112E-005  0.1953078E+04  0.7818608E-02  0.8628878E-01
          1   -1    0    0  501    0  0.00000000000E+00  0.00000000000E+00  0.69866988945E+03  0.69866988945E+03  0.00000000000E+00 0. -1.
         -1   -1    0    0    0  501 -0.00000000000E+00 -0.00000000000E+00 -0.13649196540E+04  0.13649196540E+04  0.00000000000E+00 0.  1.
         23    2    1    2    0    0  0.38098932509E+03 -0.30572931429E+03 -0.12249168267E+04  0.13214762329E+04  0.85175832901E+02 0.  0.
         13    1    3    3    0    0  0.20692058391E+03 -0.11981188478E+03 -0.65357331410E+03  0.69593756378E+03  0.00000000000E+00 0. -1.
        -13    1    3    3    0    0  0.17406874117E+03 -0.18591742951E+03 -0.57134351257E+03  0.62553866915E+03  0.00000000000E+00 0.  1.
         22    1    1    2    0    0 -0.38098932509E+03  0.30572931429E+03  0.55866706208E+03  0.74211331055E+03  0.00000000000E+00 0. -1.
<mgrwt>
<rscale>  0 0.19530778E+04</rscale>
<asrwt>0</asrwt>
<pdfrwt beam="1">  1        1 0.10748768E+00 0.19530778E+04</pdfrwt>
<pdfrwt beam="2">  1       -1 0.20998764E+00 0.19530778E+04</pdfrwt>
<totfact> 0.32717838E+00</totfact>
</mgrwt>
</event>
<event>
 6    1  0.1817112E-005  0.4519320E+04  0.7818608E-02  0.7907263E-01
         -2   -1    0    0    0  501 -0.00000000000E+00  0.00000000000E+00  0.21477889889E+04  0.21477889889E+04  0.00000000000E+00 0.  1.
          2   -1    0    0  501    0  0.00000000000E+00 -0.00000000000E+00 -0.23773580613E+04  0.23773580613E+04  0.00000000000E+00 0. -1.
         23    2    1    2    0    0 -0.85272247507E+03 -0.14530143462E+04 -0.16212411274E+04  0.23399382689E+04  0.92206285969E+02 0.  0.
         11    1    3    3    0    0 -0.32535958115E+03 -0.58474626034E+03 -0.70310732870E+03  0.97064255094E+03  0.00000000000E+00 0. -1.
        -11    1    3    3    0    0 -0.52736289392E+03 -0.86826808584E+03 -0.91813379870E+03  0.13692957179E+04  0.00000000000E+00 0.  1.
         22    1    1    2    0    0  0.85272247507E+03  0.14530143462E+04  0.13916720549E+04  0.21852087814E+04  0.00000000000E+00 0.  1.
<mgrwt>
<rscale>  0 0.45193201E+04</rscale>
<asrwt>0</asrwt>
<pdfrwt beam="1">  1        2 0.36574739E+00 0.45193201E+04</pdfrwt>
<pdfrwt beam="2">  1       -2 0.33042908E+00 0.45193201E+04</pdfrwt>
<totfact> 0.63932000E-02</totfact>
</mgrwt>
</event>
<event>
 6    1  0.1817112E-005  0.1155029E+04  0.7818608E-02  0.9153156E-01
          2   -1    0    0  501    0  0.00000000000E+00  0.00000000000E+00  0.46481537661E+03  0.46481537661E+03  0.00000000000E+00 0.  1.
         -2   -1    0    0    0  501 -0.00000000000E+00 -0.00000000000E+00 -0.71753883422E+03  0.71753883422E+03  0.00000000000E+00 0. -1.
         23    2    1    2    0    0  0.13175913138E+03  0.17455393516E+03  0.41588587823E+03  0.47888566927E+03  0.92416857429E+02 0.  0.
         13    1    3    3    0    0  0.39015293504E+02  0.77922254134E+02  0.25537098145E+03  0.26983033370E+03  0.00000000000E+00 0. -1.
        -13    1    3    3    0    0  0.92743837881E+02  0.96631681030E+02  0.16051489679E+03  0.20905533558E+03  0.00000000000E+00 0.  1.
         22    1    1    2    0    0 -0.13175913138E+03 -0.17455393516E+03 -0.66860933584E+03  0.70346854156E+03  0.00000000000E+00 0. -1.
<mgrwt>
<rscale>  0 0.11550291E+04</rscale>
<asrwt>0</asrwt>
<pdfrwt beam="1">  1        2 0.71510058E-01 0.11550291E+04</pdfrwt>
<pdfrwt beam="2">  1       -2 0.11039059E+00 0.11550291E+04</pdfrwt>
<totfact> 0.43191381E+01</totfact>
</mgrwt>
</event>
<event>
 6    1  0.1817112E-005  0.9799453E+03  0.7818608E-02  0.9330818E-01
          2   -1    0    0  501    0  0.00000000000E+00  0.00000000000E+00  0.41993760419E+03  0.41993760419E+03  0.00000000000E+00 0. -1.
         -2   -1    0    0    0  501 -0.00000000000E+00 -0.00000000000E+00 -0.57168777390E+03  0.57168777390E+03  0.00000000000E+00 0.  1.
         23    2    1    2    0    0  0.44390695713E+03 -0.19712334356E+03 -0.86345732089E+02  0.50153483581E+03  0.90391409524E+02 0.  0.
         11    1    3    3    0    0  0.84181059830E+02 -0.29297628386E+01 -0.27352495046E+01  0.84276425732E+02  0.00000000000E+00 0.  1.
        -11    1    3    3    0    0  0.35972589730E+03 -0.19419358073E+03 -0.83610482584E+02  0.41725841008E+03  0.00000000000E+00 0. -1.
         22    1    1    2    0    0 -0.44390695713E+03  0.19712334356E+03 -0.65404437620E+02  0.49009054227E+03  0.00000000000E+00 0. -1.
<mgrwt>
<rscale>  0 0.97994529E+03</rscale>
<asrwt>0</asrwt>
<pdfrwt beam="1">  1        2 0.64605785E-01 0.97994529E+03</pdfrwt>
<pdfrwt beam="2">  1       -2 0.87951965E-01 0.97994529E+03</pdfrwt>
<totfact> 0.83862368E+01</totfact>
</mgrwt>
</event>
<event>
 6    1  0.1817112E-005  0.1268029E+04  0.7818608E-02  0.9055310E-01
          2   -1    0    0  501    0  0.00000000000E+00  0.00000000000E+00  0.44122651626E+03  0.44122651626E+03  0.00000000000E+00 0. -1.
         -2   -1    0    0    0  501 -0.00000000000E+00 -0.00000000000E+00 -0.91103789545E+03  0.91103789545E+03  0.00000000000E+00 0.  1.
         23    2    1    2    0    0 -0.29345015340E+03 -0.46432459879E+03  0.94324054518E+02  0.56488958792E+03  0.92156897244E+02 0.  0.
         11    1    3    3    0    0 -0.22384843696E+03 -0.30710713877E+03  0.29621268989E+02  0.38118281308E+03  0.00000000000E+00 0.  1.
        -11    1    3    3    0    0 -0.69601716436E+02 -0.15721746001E+03  0.64702785529E+02  0.18370677483E+03  0.00000000000E+00 0. -1.
         22    1    1    2    0    0  0.29345015340E+03  0.46432459879E+03 -0.56413543371E+03  0.78737482379E+03  0.00000000000E+00 0.  1.
<mgrwt>
<rscale>  0 0.12680285E+04</rscale>
<asrwt>0</asrwt>
<pdfrwt beam="1">  1        2 0.67881003E-01 0.12680285E+04</pdfrwt>
<pdfrwt beam="2">  1       -2 0.14015967E+00 0.12680285E+04</pdfrwt>
<totfact> 0.25001166E+01</totfact>
</mgrwt>
</event>
<event>
 6    1  0.1817112E-005  0.2100489E+04  0.7818608E-02  0.8561028E-01
          1   -1    0    0  501    0  0.00000000000E+00  0.00000000000E+00  0.17387826855E+04  0.17387826855E+04  0.00000000000E+00 0. -1.
         -1   -1    0    0    0  501 -0.00000000000E+00 -0.00000000000E+00 -0.63435982754E+03  0.63435982754E+03  0.00000000000E+00 0.  1.
         23    2    1    2    0    0  0.30540192771E+03  0.97962011435E+03  0.79491556460E+03  0.13013586400E+04  0.93368352030E+02 0.  0.
         11    1    3    3    0    0  0.15658446104E+03  0.41763458955E+03  0.29637094354E+03  0.53551197933E+03  0.00000000000E+00 0.  1.
        -11    1    3    3    0    0  0.14881746667E+03  0.56198552480E+03  0.49854462106E+03  0.76584666067E+03  0.00000000000E+00 0. -1.
         22    1    1    2    0    0 -0.30540192771E+03 -0.97962011435E+03  0.30950729335E+03  0.10717838730E+04  0.00000000000E+00 0.  1.
<mgrwt>
<rscale>  0 0.21004894E+04</rscale>
<asrwt>0</asrwt>
<pdfrwt beam="1">  1        1 0.26750503E+00 0.21004894E+04</pdfrwt>
<pdfrwt beam="2">  1       -1 0.97593820E-01 0.21004894E+04</pdfrwt>
<totfact> 0.41545719E+00</totfact>
</mgrwt>
</event>
<event>
 6    1  0.1817112E-005  0.2260661E+04  0.7818608E-02  0.8493595E-01
          2   -1    0    0  501    0  0.00000000000E+00  0.00000000000E+00  0.58546570763E+03  0.58546570763E+03  0.00000000000E+00 0. -1.
         -2   -1    0    0    0  501 -0.00000000000E+00 -0.00000000000E+00 -0.21822747839E+04  0.21822747839E+04  0.00000000000E+00 0.  1.
         23    2    1    2    0    0  0.65424806244E+03 -0.84311410107E+02 -0.19207026424E+04  0.20328554779E+04  0.90850493415E+02 0.  0.
         11    1    3    3    0    0  0.50369587324E+02  0.17445868616E+02 -0.16736630059E+03  0.17565002770E+03  0.00000000000E+00 0. -1.
        -11    1    3    3    0    0  0.60387847511E+03 -0.10175727872E+03 -0.17533363418E+04  0.18572054502E+04  0.00000000000E+00 0.  1.
         22    1    1    2    0    0 -0.65424806244E+03  0.84311410107E+02  0.32389356618E+03  0.73488501365E+03  0.00000000000E+00 0. -1.
<mgrwt>
<rscale>  0 0.22606610E+04</rscale>
<asrwt>0</asrwt>
<pdfrwt beam="1">  1        2 0.90071648E-01 0.22606610E+04</pdfrwt>
<pdfrwt beam="2">  1       -2 0.33573458E+00 0.22606610E+04</pdfrwt>
<totfact> 0.88929294E-01</totfact>
</mgrwt>
</event>
<event>
 6    1  0.1817112E-005  0.1797069E+04  0.7818608E-02  0.8707860E-01
         -4   -1    0    0    0  501 -0.00000000000E+00  0.00000000000E+00  0.78470366816E+03  0.78470366816E+03  0.00000000000E+00 0.  1.
          4   -1    0    0  501    0  0.00000000000E+00 -0.00000000000E+00 -0.10288775323E+04  0.10288775323E+04  0.00000000000E+00 0. -1.
         23    2    1    2    0    0  0.25208734619E+03  0.22433794101E+03 -0.96026631334E+03  0.10219601184E+04  0.91736302407E+02 0.  0.
         11    1    3    3    0    0  0.12487879041E+03  0.59273786643E+02 -0.31840886510E+03  0.34712000727E+03  0.00000000000E+00 0.  1.
        -11    1    3    3    0    0  0.12720855578E+03  0.16506415437E+03 -0.64185744825E+03  0.67484011113E+03  0.00000000000E+00 0. -1.
         22    1    1    2    0    0 -0.25208734619E+03 -0.22433794101E+03  0.71609244916E+03  0.79162108210E+03  0.00000000000E+00 0.  1.
<mgrwt>
<rscale>  0 0.17970687E+04</rscale>
<asrwt>0</asrwt>
<pdfrwt beam="1">  1        4 0.15828885E+00 0.17970687E+04</pdfrwt>
<pdfrwt beam="2">  1       -4 0.12072364E+00 0.17970687E+04</pdfrwt>
<totfact> 0.25389902E-01</totfact>
</mgrwt>
</event>
<event>
 6    1  0.1817112E-005  0.1164267E+04  0.7818608E-02  0.9144721E-01
         -2   -1    0    0    0  501 -0.00000000000E+00  0.00000000000E+00  0.20430602602E+03  0.20430602602E+03  0.00000000000E+00 0.  1.
          2   -1    0    0  501    0  0.00000000000E+00 -0.00000000000E+00 -0.16586866035E+04  0.16586866035E+04  0.00000000000E+00 0. -1.
         23    2    1    2    0    0 -0.47128231373E+03  0.25276353432E+03 -0.10846876124E+04  0.12128624026E+04  0.92149702187E+02 0.  0.
         11    1    3    3    0    0 -0.38606383589E+03  0.24447083412E+03 -0.92135196742E+03  0.10284457798E+04  0.00000000000E+00 0. -1.
        -11    1    3    3    0    0 -0.85218477842E+02  0.82927002043E+01 -0.16333564498E+03  0.18441662280E+03  0.00000000000E+00 0.  1.
         22    1    1    2    0    0  0.47128231373E+03 -0.25276353432E+03 -0.36969296503E+03  0.65013022689E+03  0.00000000000E+00 0.  1.
<mgrwt>
<rscale>  0 0.11642674E+04</rscale>
<asrwt>0</asrwt>
<pdfrwt beam="1">  1        2 0.25518256E+00 0.11642674E+04</pdfrwt>
<pdfrwt beam="2">  1       -2 0.31431696E-01 0.11642674E+04</pdfrwt>
<totfact> 0.96067201E+01</totfact>
</mgrwt>
</event>
<event>
 6    1  0.1817112E-005  0.4699097E+04  0.7818608E-02  0.7876679E-01
         -2   -1    0    0    0  501 -0.00000000000E+00  0.00000000000E+00  0.15225941393E+04  0.15225941393E+04  0.00000000000E+00 0.  1.
          2   -1    0    0  501    0  0.00000000000E+00 -0.00000000000E+00 -0.36256404141E+04  0.36256404141E+04  0.00000000000E+00 0. -1.
         23    2    1    2    0    0 -0.17577972053E+04 -0.12777741292E+04 -0.75944777716E+02  0.21764172273E+04  0.92014117618E+02 0.  0.
         13    1    3    3    0    0 -0.15761628065E+04 -0.11101681840E+04 -0.62550108917E+02  0.19289051572E+04  0.00000000000E+00 0.  1.
        -13    1    3    3    0    0 -0.18163439878E+03 -0.16760594521E+03 -0.13394668798E+02  0.24751207009E+03  0.00000000000E+00 0. -1.
         22    1    1    2    0    0  0.17577972053E+04  0.12777741292E+04 -0.20271014970E+04  0.29718173261E+04  0.00000000000E+00 0. -1.
<mgrwt>
<rscale>  0 0.46990973E+04</rscale>
<asrwt>0</asrwt>
<pdfrwt beam="1">  1        2 0.55779082E+00 0.46990973E+04</pdfrwt>
<pdfrwt beam="2">  1       -2 0.23424526E+00 0.46990973E+04</pdfrwt>
<totfact> 0.39580799E-02</totfact>
</mgrwt>
</event>
<event>
 6    1  0.1817112E-005  0.1809925E+04  0.7818608E-02  0.8701039E-01
          1   -1    0    0  501    0  0.00000000000E+00  0.00000000000E+00  0.10172707119E+04  0.10172707119E+04  0.00000000000E+00 0. -1.
         -1   -1    0    0    0  501 -0.00000000000E+00 -0.00000000000E+00 -0.80505309600E+03  0.80505309600E+03  0.00000000000E+00 0.  1.
         23    2    1    2    0    0 -0.16342812595E+03  0.77511890539E+03 -0.32926868692E+03  0.86277939207E+03  0.91936615926E+02 0.  0.
         13    1    3    3    0    0  0.38939847394E+01  0.15529434914E+03 -0.58188899734E+02  0.16588383298E+03  0.00000000000E+00 0. -1.
        -13    1    3    3    0    0 -0.16732211069E+03  0.61982455624E+03 -0.27107978719E+03  0.69689555908E+03  0.00000000000E+00 0.  1.
         22    1    1    2    0    0  0.16342812595E+03 -0.77511890539E+03  0.54148630286E+03  0.95954441587E+03  0.00000000000E+00 0. -1.
<mgrwt>
<rscale>  0 0.18099248E+04</rscale>
<asrwt>0</asrwt>
<pdfrwt beam="1">  1        1 0.15650319E+00 0.18099248E+04</pdfrwt>
<pdfrwt beam="2">  1       -1 0.12385432E+00 0.18099248E+04</pdfrwt>
<totfact> 0.79202363E+00</totfact>
</mgrwt>
</event>
<event>
 6    1  0.1817112E-005  0.1924828E+04  0.7818608E-02  0.8642596E-01
          2   -1    0    0  501    0  0.00000000000E+00  0.00000000000E+00  0.27281976292E+04  0.27281976292E+04  0.00000000000E+00 0. -1.
         -2   -1    0    0    0  501 -0.00000000000E+00 -0.00000000000E+00 -0.33950649641E+03  0.33950649641E+03  0.00000000000E+00 0.  1.
         23    2    1    2    0    0 -0.40917120740E+01 -0.50329959244E+03 -0.10589996394E+03  0.52284421557E+03  0.93936412130E+02 0.  0.
         13    1    3    3    0    0 -0.10306234332E+02 -0.32141262015E+03 -0.21677429932E+02  0.32230761987E+03  0.00000000000E+00 0.  1.
        -13    1    3    3    0    0  0.62145222576E+01 -0.18188697229E+03 -0.84222534012E+02  0.20053659569E+03  0.00000000000E+00 0. -1.
         22    1    1    2    0    0  0.40917120740E+01  0.50329959244E+03  0.24945910968E+04  0.25448599101E+04  0.00000000000E+00 0. -1.
<mgrwt>
<rscale>  0 0.19248281E+04</rscale>
<asrwt>0</asrwt>
<pdfrwt beam="1">  1        2 0.41972270E+00 0.19248281E+04</pdfrwt>
<pdfrwt beam="2">  1       -2 0.52231770E-01 0.19248281E+04</pdfrwt>
<totfact> 0.82740947E+00</totfact>
</mgrwt>
</event>
<event>
 6    1  0.1817112E-005  0.7954604E+03  0.7818608E-02  0.9566611E-01
          1   -1    0    0  501    0  0.00000000000E+00  0.00000000000E+00  0.28440458410E+03  0.28440458410E+03  0.00000000000E+00 0. -1.
         -1   -1    0    0    0  501 -0.00000000000E+00 -0.00000000000E+00 -0.55621221535E+03  0.55621221535E+03  0.00000000000E+00 0.  1.
         23    2    1    2    0    0  0.34318398283E+03  0.14051998637E+03 -0.27691886257E+03  0.46974318577E+03  0.80333626148E+02 0.  0.
         11    1    3    3    0    0  0.14360078015E+03  0.10106110218E+03 -0.11761220216E+03  0.21134606817E+03  0.00000000000E+00 0. -1.
        -11    1    3    3    0    0  0.19958320268E+03  0.39458884190E+02 -0.15930666041E+03  0.25839711760E+03  0.00000000000E+00 0.  1.
         22    1    1    2    0    0 -0.34318398283E+03 -0.14051998637E+03  0.51112313129E+01  0.37087361368E+03  0.00000000000E+00 0. -1.
<mgrwt>
<rscale>  0 0.79546038E+03</rscale>
<asrwt>0</asrwt>
<pdfrwt beam="1">  1        1 0.43754552E-01 0.79546038E+03</pdfrwt>
<pdfrwt beam="2">  1       -1 0.85571109E-01 0.79546038E+03</pdfrwt>
<totfact> 0.12845646E+02</totfact>
</mgrwt>
</event>
<event>
 6    1  0.1817112E-005  0.8477946E+03  0.7818608E-02  0.9493302E-01
          1   -1    0    0  501    0  0.00000000000E+00  0.00000000000E+00  0.16301919262E+03  0.16301919262E+03  0.00000000000E+00 0. -1.
         -1   -1    0    0    0  501 -0.00000000000E+00 -0.00000000000E+00 -0.11022561817E+04  0.11022561817E+04  0.00000000000E+00 0.  1.
         23    2    1    2    0    0 -0.17831076158E+02  0.31930168300E+03 -0.87923726238E+03  0.93989639639E+03  0.89864121601E+02 0.  0.
         11    1    3    3    0    0  0.32904875760E+02  0.82639568926E+02 -0.20238367792E+03  0.22106827517E+03  0.00000000000E+00 0. -1.
        -11    1    3    3    0    0 -0.50735951918E+02  0.23666211408E+03 -0.67685358446E+03  0.71882812122E+03  0.00000000000E+00 0.  1.
         22    1    1    2    0    0  0.17831076158E+02 -0.31930168300E+03 -0.59999726655E+02  0.32537897788E+03  0.00000000000E+00 0. -1.
<mgrwt>
<rscale>  0 0.84779458E+03</rscale>
<asrwt>0</asrwt>
<pdfrwt beam="1">  1        1 0.25079876E-01 0.84779458E+03</pdfrwt>
<pdfrwt beam="2">  1       -1 0.16957787E+00 0.84779458E+03</pdfrwt>
<totfact> 0.48825984E+01</totfact>
</mgrwt>
</event>
<event>
 6    1  0.1817112E-005  0.7680451E+03  0.7818608E-02  0.9607458E-01
          2   -1    0    0  501    0  0.00000000000E+00  0.00000000000E+00  0.19293354771E+04  0.19293354771E+04  0.00000000000E+00 0. -1.
         -2   -1    0    0    0  501 -0.00000000000E+00 -0.00000000000E+00 -0.76437366614E+02  0.76437366614E+02  0.00000000000E+00 0.  1.
         23    2    1    2    0    0 -0.86138667288E+02  0.25715691064E+03  0.24822207864E+03  0.37834090539E+03  0.89320175059E+02 0.  0.
         11    1    3    3    0    0 -0.90476917562E+02  0.13391185511E+03  0.15283614393E+03  0.22243503420E+03  0.00000000000E+00 0. -1.
        -11    1    3    3    0    0  0.43382502741E+01  0.12324505554E+03  0.95385934709E+02  0.15590587119E+03  0.00000000000E+00 0.  1.
         22    1    1    2    0    0  0.86138667288E+02 -0.25715691064E+03  0.16046760319E+04  0.16274319383E+04  0.00000000000E+00 0. -1.
<mgrwt>
<rscale>  0 0.76804511E+03</rscale>
<asrwt>0</asrwt>
<pdfrwt beam="1">  1        2 0.29682081E+00 0.76804511E+03</pdfrwt>
<pdfrwt beam="2">  1       -2 0.11759596E-01 0.76804511E+03</pdfrwt>
<totfact> 0.39277040E+02</totfact>
</mgrwt>
</event>
<event>
 6    1  0.1817112E-005  0.1258639E+04  0.7818608E-02  0.9063024E-01
         -2   -1    0    0    0  501 -0.00000000000E+00  0.00000000000E+00  0.92821778774E+03  0.92821778774E+03  0.00000000000E+00 0. -1.
          2   -1    0    0  501    0  0.00000000000E+00 -0.00000000000E+00 -0.42667028907E+03  0.42667028907E+03  0.00000000000E+00 0.  1.
         23    2    1    2    0    0  0.53441930523E+03 -0.15950661486E+03  0.55753459731E+03  0.79436964785E+03  0.95561269553E+02 0.  0.
         11    1    3    3    0    0  0.16704548537E+03 -0.23615512663E+02  0.11948798610E+03  0.20673477076E+03  0.00000000000E+00 0.  1.
        -11    1    3    3    0    0  0.36737381987E+03 -0.13589110219E+03  0.43804661121E+03  0.58763487709E+03  0.00000000000E+00 0. -1.
         22    1    1    2    0    0 -0.53441930523E+03  0.15950661486E+03 -0.55987098640E+02  0.56051842896E+03  0.00000000000E+00 0.  1.
<mgrwt>
<rscale>  0 0.12586389E+04</rscale>
<asrwt>0</asrwt>
<pdfrwt beam="1">  1        2 0.65641583E-01 0.12586389E+04</pdfrwt>
<pdfrwt beam="2">  1       -2 0.14280274E+00 0.12586389E+04</pdfrwt>
<totfact> 0.24754361E+01</totfact>
</mgrwt>
</event>
<event>
 6    1  0.1817112E-005  0.2276460E+04  0.7818608E-02  0.8487261E-01
          2   -1    0    0  501    0  0.00000000000E+00  0.00000000000E+00  0.12520632816E+04  0.12520632816E+04  0.00000000000E+00 0. -1.
         -2   -1    0    0    0  501 -0.00000000000E+00 -0.00000000000E+00 -0.10347460954E+04  0.10347460954E+04  0.00000000000E+00 0.  1.
         23    2    1    2    0    0 -0.33405492624E+02  0.88877679090E+03 -0.60196771916E+03  0.10775666937E+04  0.88004166915E+02 0.  0.
         11    1    3    3    0    0 -0.37956102808E+02  0.42120160644E+03 -0.24019678349E+03  0.48635990152E+03  0.00000000000E+00 0. -1.
        -11    1    3    3    0    0  0.45506101841E+01  0.46757518446E+03 -0.36177093567E+03  0.59120679214E+03  0.00000000000E+00 0.  1.
         22    1    1    2    0    0  0.33405492624E+02 -0.88877679090E+03  0.81928490543E+03  0.12092426834E+04  0.00000000000E+00 0. -1.
<mgrwt>
<rscale>  0 0.22764601E+04</rscale>
<asrwt>0</asrwt>
<pdfrwt beam="1">  1        2 0.19262512E+00 0.22764601E+04</pdfrwt>
<pdfrwt beam="2">  1       -2 0.15919171E+00 0.22764601E+04</pdfrwt>
<totfact> 0.40921456E+00</totfact>
</mgrwt>
</event>
<event>
 6    1  0.1817112E-005  0.1561092E+04  0.7818608E-02  0.8844814E-01
          2   -1    0    0  501    0  0.00000000000E+00  0.00000000000E+00  0.16519438963E+04  0.16519438963E+04  0.00000000000E+00 0. -1.
         -2   -1    0    0    0  501 -0.00000000000E+00 -0.00000000000E+00 -0.36880916707E+03  0.36880916707E+03  0.00000000000E+00 0.  1.
         23    2    1    2    0    0 -0.35710376910E+03  0.25886523302E+03 -0.18589370125E+03  0.48694119735E+03  0.89559760699E+02 0.  0.
         11    1    3    3    0    0 -0.16740923288E+03  0.88712733662E+02 -0.11808470892E+03  0.22324828969E+03  0.00000000000E+00 0.  1.
        -11    1    3    3    0    0 -0.18969453622E+03  0.17015249936E+03 -0.67808992334E+02  0.26369290766E+03  0.00000000000E+00 0. -1.
         22    1    1    2    0    0  0.35710376910E+03 -0.25886523302E+03  0.14690284305E+04  0.15338118660E+04  0.00000000000E+00 0. -1.
<mgrwt>
<rscale>  0 0.15610920E+04</rscale>
<asrwt>0</asrwt>
<pdfrwt beam="1">  1        2 0.25414521E+00 0.15610920E+04</pdfrwt>
<pdfrwt beam="2">  1       -2 0.56739873E-01 0.15610920E+04</pdfrwt>
<totfact> 0.29221413E+01</totfact>
</mgrwt>
</event>
<event>
 6    1  0.1817112E-005  0.1148254E+04  0.7818608E-02  0.9159396E-01
         -2   -1    0    0    0  501 -0.00000000000E+00  0.00000000000E+00  0.48189862411E+03  0.48189862411E+03  0.00000000000E+00 0.  1.
          2   -1    0    0  501    0  0.00000000000E+00 -0.00000000000E+00 -0.68400662968E+03  0.68400662968E+03  0.00000000000E+00 0. -1.
         23    2    1    2    0    0  0.27241101105E+02 -0.84603193625E+02 -0.67404478658E+03  0.68567186966E+03  0.88936834688E+02 0.  0.
         11    1    3    3    0    0  0.44482019095E+02 -0.69750625713E+02 -0.30788223047E+03  0.31880286644E+03  0.00000000000E+00 0. -1.
        -11    1    3    3    0    0 -0.17240917990E+02 -0.14852567913E+02 -0.36616255611E+03  0.36686900322E+03  0.00000000000E+00 0.  1.
         22    1    1    2    0    0 -0.27241101105E+02  0.84603193625E+02  0.47193678101E+03  0.48023338413E+03  0.00000000000E+00 0.  1.
<mgrwt>
<rscale>  0 0.11482541E+04</rscale>
<asrwt>0</asrwt>
<pdfrwt beam="1">  1        2 0.10523179E+00 0.11482541E+04</pdfrwt>
<pdfrwt beam="2">  1       -2 0.74138250E-01 0.11482541E+04</pdfrwt>
<totfact> 0.68459893E+01</totfact>
</mgrwt>
</event>
<event>
 6    1  0.1817112E-005  0.1690894E+04  0.7818608E-02  0.8766575E-01
          1   -1    0    0  501    0  0.00000000000E+00  0.00000000000E+00  0.96091333282E+03  0.96091333282E+03  0.00000000000E+00 0. -1.
         -1   -1    0    0    0  501 -0.00000000000E+00 -0.00000000000E+00 -0.74385520361E+03  0.74385520361E+03  0.00000000000E+00 0.  1.
         23    2    1    2    0    0  0.83387917010E+03  0.87411721692E+02  0.20594284734E+02  0.84361040833E+03  0.90879684523E+02 0.  0.
         13    1    3    3    0    0  0.17859284860E+02 -0.11486415936E+02  0.28788417446E+01  0.21428474900E+02  0.00000000000E+00 0.  1.
        -13    1    3    3    0    0  0.81601988524E+03  0.98898137628E+02  0.17715442989E+02  0.82218193343E+03  0.00000000000E+00 0. -1.
         22    1    1    2    0    0 -0.83387917010E+03 -0.87411721692E+02  0.19646384448E+03  0.86115812811E+03  0.00000000000E+00 0.  1.
<mgrwt>
<rscale>  0 0.16908937E+04</rscale>
<asrwt>0</asrwt>
<pdfrwt beam="1">  1        1 0.14783282E+00 0.16908937E+04</pdfrwt>
<pdfrwt beam="2">  1       -1 0.11443926E+00 0.16908937E+04</pdfrwt>
<totfact> 0.10747119E+01</totfact>
</mgrwt>
</event>
<event>
 6    1  0.1817112E-005  0.1069153E+04  0.7818608E-02  0.9235790E-01
         -4   -1    0    0    0  501 -0.00000000000E+00  0.00000000000E+00  0.23849667521E+04  0.23849667521E+04  0.00000000000E+00 0. -1.
          4   -1    0    0  501    0  0.00000000000E+00 -0.00000000000E+00 -0.11982225851E+03  0.11982225851E+03  0.00000000000E+00 0.  1.
         23    2    1    2    0    0  0.12198064265E+03 -0.38822561881E+03  0.19392486267E+04  0.19834383375E+04  0.87999967475E+02 0.  0.
         11    1    3    3    0    0  0.10480207916E+03 -0.34377039617E+03  0.15412803586E+04  0.15826265210E+04  0.00000000000E+00 0.  1.
        -11    1    3    3    0    0  0.17178563491E+02 -0.44455222636E+02  0.39796826810E+03  0.40081181654E+03  0.00000000000E+00 0. -1.
         22    1    1    2    0    0 -0.12198064265E+03  0.38822561881E+03  0.32589586690E+03  0.52135067310E+03  0.00000000000E+00 0.  1.
<mgrwt>
<rscale>  0 0.10691531E+04</rscale>
<asrwt>0</asrwt>
<pdfrwt beam="1">  1        4 0.18434195E-01 0.10691531E+04</pdfrwt>
<pdfrwt beam="2">  1       -4 0.36691793E+00 0.10691531E+04</pdfrwt>
<totfact> 0.62833264E-01</totfact>
</mgrwt>
</event>
<event>
 6    1  0.1817112E-005  0.4732279E+04  0.7818608E-02  0.7871187E-01
         -2   -1    0    0    0  501 -0.00000000000E+00  0.00000000000E+00  0.18059343689E+04  0.18059343689E+04  0.00000000000E+00 0. -1.
          2   -1    0    0  501    0  0.00000000000E+00 -0.00000000000E+00 -0.31001217687E+04  0.31001217687E+04  0.00000000000E+00 0.  1.
         23    2    1    2    0    0 -0.29038089781E+03 -0.11442440630E+04  0.14777395392E+04  0.18932178584E+04  0.83331701415E+02 0.  0.
         11    1    3    3    0    0 -0.20505294334E+03 -0.87398096626E+03  0.11723458894E+04  0.14765785870E+04  0.00000000000E+00 0. -1.
        -11    1    3    3    0    0 -0.85327954465E+02 -0.27026309670E+03  0.30539364973E+03  0.41663927149E+03  0.00000000000E+00 0.  1.
         22    1    1    2    0    0  0.29038089781E+03  0.11442440630E+04 -0.27719269390E+04  0.30128382792E+04  0.00000000000E+00 0.  1.
<mgrwt>
<rscale>  0 0.47322791E+04</rscale>
<asrwt>0</asrwt>
<pdfrwt beam="1">  1        2 0.47694181E+00 0.47322791E+04</pdfrwt>
<pdfrwt beam="2">  1       -2 0.27783606E+00 0.47322791E+04</pdfrwt>
<totfact> 0.48538037E-02</totfact>
</mgrwt>
</event>
<event>
 6    1  0.1817112E-005  0.1652700E+04  0.7818608E-02  0.8788811E-01
          1   -1    0    0  501    0  0.00000000000E+00  0.00000000000E+00  0.17403052531E+04  0.17403052531E+04  0.00000000000E+00 0. -1.
         -1   -1    0    0    0  501 -0.00000000000E+00 -0.00000000000E+00 -0.39237632981E+03  0.39237632981E+03  0.00000000000E+00 0.  1.
         23    2    1    2    0    0  0.38417783364E+03  0.63952652930E+02 -0.26080183354E+03  0.47747851450E+03  0.91025192978E+02 0.  0.
         11    1    3    3    0    0  0.21545376643E+03  0.75970845885E+02 -0.17519572952E+03  0.28789831284E+03  0.00000000000E+00 0. -1.
        -11    1    3    3    0    0  0.16872406721E+03 -0.12018192956E+02 -0.85606104024E+02  0.18958020166E+03  0.00000000000E+00 0.  1.
         22    1    1    2    0    0 -0.38417783364E+03 -0.63952652930E+02  0.16087307568E+04  0.16552030684E+04  0.00000000000E+00 0. -1.
<mgrwt>
<rscale>  0 0.16527003E+04</rscale>
<asrwt>0</asrwt>
<pdfrwt beam="1">  1        1 0.26773927E+00 0.16527003E+04</pdfrwt>
<pdfrwt beam="2">  1       -1 0.60365590E-01 0.16527003E+04</pdfrwt>
<totfact> 0.11893830E+01</totfact>
</mgrwt>
</event>
<event>
 6    1  0.1817112E-005  0.2224003E+04  0.7818608E-02  0.8508503E-01
          2   -1    0    0  501    0  0.00000000000E+00  0.00000000000E+00  0.30536576980E+04  0.30536576980E+04  0.00000000000E+00 0. -1.
         -2   -1    0    0    0  501 -0.00000000000E+00 -0.00000000000E+00 -0.40493984303E+03  0.40493984303E+03  0.00000000000E+00 0.  1.
         23    2    1    2    0    0 -0.15135225016E+03 -0.55656568950E+03 -0.14863607243E+03  0.60240044252E+03  0.90115152822E+02 0.  0.
         13    1    3    3    0    0 -0.14320086860E+03 -0.46297976407E+03 -0.93761468929E+02  0.49360709452E+03  0.00000000000E+00 0. -1.
        -13    1    3    3    0    0 -0.81513815595E+01 -0.93585925427E+02 -0.54874603504E+02  0.10879334800E+03  0.00000000000E+00 0.  1.
         22    1    1    2    0    0  0.15135225016E+03  0.55656568950E+03  0.27973539274E+04  0.28561970985E+04  0.00000000000E+00 0. -1.
<mgrwt>
<rscale>  0 0.22240033E+04</rscale>
<asrwt>0</asrwt>
<pdfrwt beam="1">  1        2 0.46979348E+00 0.22240033E+04</pdfrwt>
<pdfrwt beam="2">  1       -2 0.62298439E-01 0.22240033E+04</pdfrwt>
<totfact> 0.35177308E+00</totfact>
</mgrwt>
</event>
<event>
 6    1  0.1817112E-005  0.1201366E+04  0.7818608E-02  0.9111661E-01
          2   -1    0    0  501    0  0.00000000000E+00  0.00000000000E+00  0.20185580532E+04  0.20185580532E+04  0.00000000000E+00 0. -1.
         -2   -1    0    0    0  501 -0.00000000000E+00 -0.00000000000E+00 -0.17875152722E+03  0.17875152722E+03  0.00000000000E+00 0.  1.
         23    2    1    2    0    0 -0.46222484276E+03 -0.35027831881E+03  0.11861726886E+04  0.13234767021E+04  0.90764683917E+02 0.  0.
         13    1    3    3    0    0 -0.24694477503E+03 -0.14624525682E+03  0.65462172043E+03  0.71477198737E+03  0.00000000000E+00 0.  1.
        -13    1    3    3    0    0 -0.21528006773E+03 -0.20403306199E+03  0.53155096820E+03  0.60870471474E+03  0.00000000000E+00 0. -1.
         22    1    1    2    0    0  0.46222484276E+03  0.35027831881E+03  0.65363383734E+03  0.87383287831E+03  0.00000000000E+00 0.  1.
<mgrwt>
<rscale>  0 0.12013664E+04</rscale>
<asrwt>0</asrwt>
<pdfrwt beam="1">  1        2 0.31054738E+00 0.12013664E+04</pdfrwt>
<pdfrwt beam="2">  1       -2 0.27500236E-01 0.12013664E+04</pdfrwt>
<totfact> 0.77688334E+01</totfact>
</mgrwt>
</event>
<event>
 6    1  0.1817112E-005  0.3529770E+04  0.7818608E-02  0.8106771E-01
          2   -1    0    0  501    0  0.00000000000E+00  0.00000000000E+00  0.21330032225E+04  0.21330032225E+04  0.00000000000E+00 0. -1.
         -2   -1    0    0    0  501 -0.00000000000E+00 -0.00000000000E+00 -0.14602970841E+04  0.14602970841E+04  0.00000000000E+00 0.  1.
         23    2    1    2    0    0  0.73839359970E+03 -0.15132663157E+04  0.87093368283E+03  0.18978669667E+04  0.90407373198E+02 0.  0.
         13    1    3    3    0    0  0.54674295047E+03 -0.11163192712E+04  0.68704670652E+03  0.14202569296E+04  0.00000000000E+00 0.  1.
        -13    1    3    3    0    0  0.19165064923E+03 -0.39694704456E+03  0.18388697631E+03  0.47761003716E+03  0.00000000000E+00 0. -1.
         22    1    1    2    0    0 -0.73839359970E+03  0.15132663157E+04 -0.19822754452E+03  0.16954333398E+04  0.00000000000E+00 0.  1.
<mgrwt>
<rscale>  0 0.35297696E+04</rscale>
<asrwt>0</asrwt>
<pdfrwt beam="1">  1        2 0.32815434E+00 0.35297696E+04</pdfrwt>
<pdfrwt beam="2">  1       -2 0.22466109E+00 0.35297696E+04</pdfrwt>
<totfact> 0.42633623E-01</totfact>
</mgrwt>
</event>
<event>
 6    1  0.1817112E-005  0.1406347E+04  0.7818608E-02  0.8949237E-01
          1   -1    0    0  501    0  0.00000000000E+00  0.00000000000E+00  0.92479041412E+03  0.92479041412E+03  0.00000000000E+00 0. -1.
         -1   -1    0    0    0  501 -0.00000000000E+00 -0.00000000000E+00 -0.53466500927E+03  0.53466500927E+03  0.00000000000E+00 0.  1.
         23    2    1    2    0    0 -0.37053779591E+03 -0.38711928440E+03 -0.27188084902E+03  0.60774427592E+03  0.90963235952E+02 0.  0.
         13    1    3    3    0    0 -0.12732746905E+03 -0.14365687188E+03 -0.14652635426E+03  0.24149441755E+03  0.00000000000E+00 0. -1.
        -13    1    3    3    0    0 -0.24321032686E+03 -0.24346241252E+03 -0.12535449476E+03  0.36624985837E+03  0.00000000000E+00 0.  1.
         22    1    1    2    0    0  0.37053779591E+03  0.38711928440E+03  0.66200625387E+03  0.85171114746E+03  0.00000000000E+00 0. -1.
<mgrwt>
<rscale>  0 0.14063471E+04</rscale>
<asrwt>0</asrwt>
<pdfrwt beam="1">  1        1 0.14227545E+00 0.14063471E+04</pdfrwt>
<pdfrwt beam="2">  1       -1 0.82256156E-01 0.14063471E+04</pdfrwt>
<totfact> 0.24884929E+01</totfact>
</mgrwt>
</event>
<event>
 6    1  0.1817112E-005  0.4128291E+04  0.7818608E-02  0.7979155E-01
         -2   -1    0    0    0  501 -0.00000000000E+00  0.00000000000E+00  0.16774829166E+04  0.16774829166E+04  0.00000000000E+00 0.  1.
          2   -1    0    0  501    0  0.00000000000E+00 -0.00000000000E+00 -0.25399344019E+04  0.25399344019E+04  0.00000000000E+00 0. -1.
         23    2    1    2    0    0  0.99750920281E+03 -0.14325393781E+04  0.69200356622E+03  0.18799990447E+04  0.91289610505E+02 0.  0.
         13    1    3    3    0    0  0.74208117752E+03 -0.10517581628E+04  0.46745259705E+03  0.13694493921E+04  0.00000000000E+00 0.  1.
        -13    1    3    3    0    0  0.25542802529E+03 -0.38078121525E+03  0.22455096917E+03  0.51054965257E+03  0.00000000000E+00 0. -1.
         22    1    1    2    0    0 -0.99750920281E+03  0.14325393781E+04 -0.15544550516E+04  0.23374182738E+04  0.00000000000E+00 0. -1.
<mgrwt>
<rscale>  0 0.41282910E+04</rscale>
<asrwt>0</asrwt>
<pdfrwt beam="1">  1        2 0.39075914E+00 0.41282910E+04</pdfrwt>
<pdfrwt beam="2">  1       -2 0.25807429E+00 0.41282910E+04</pdfrwt>
<totfact> 0.14770014E-01</totfact>
</mgrwt>
</event>
<event>
 6    1  0.1817112E-005  0.3723307E+04  0.7818608E-02  0.8062816E-01
          2   -1    0    0  501    0  0.00000000000E+00  0.00000000000E+00  0.18377648350E+04  0.18377648350E+04  0.00000000000E+00 0. -1.
         -2   -1    0    0    0  501 -0.00000000000E+00 -0.00000000000E+00 -0.18858523841E+04  0.18858523841E+04  0.00000000000E+00 0.  1.
         23    2    1    2    0    0  0.30983604452E+03  0.15039975358E+04 -0.10747125474E+04  0.18764664810E+04  0.90069043432E+02 0.  0.
         11    1    3    3    0    0  0.12363939737E+03  0.40323245578E+03 -0.30183539449E+03  0.51864026005E+03  0.00000000000E+00 0.  1.
        -11    1    3    3    0    0  0.18619664715E+03  0.11007650800E+04 -0.77287715289E+03  0.13578262209E+04  0.00000000000E+00 0. -1.
         22    1    1    2    0    0 -0.30983604452E+03 -0.15039975358E+04  0.10266249983E+04  0.18471507381E+04  0.00000000000E+00 0.  1.
<mgrwt>
<rscale>  0 0.37233067E+04</rscale>
<asrwt>0</asrwt>
<pdfrwt beam="1">  1        2 0.28273305E+00 0.37233067E+04</pdfrwt>
<pdfrwt beam="2">  1       -2 0.29013113E+00 0.37233067E+04</pdfrwt>
<totfact> 0.24229399E-01</totfact>
</mgrwt>
</event>
<event>
 6    1  0.1817112E-005  0.5134789E+03  0.7818608E-02  0.1010319E+00
          2   -1    0    0  501    0  0.00000000000E+00  0.00000000000E+00  0.14426799939E+04  0.14426799939E+04  0.00000000000E+00 0. -1.
         -2   -1    0    0    0  501 -0.00000000000E+00 -0.00000000000E+00 -0.45689381334E+02  0.45689381334E+02  0.00000000000E+00 0.  1.
         23    2    1    2    0    0 -0.22801875644E+03 -0.59885050570E+02  0.50211368469E+03  0.56295947221E+03  0.96054372247E+02 0.  0.
         13    1    3    3    0    0 -0.60469850782E+02 -0.28904822413E+02  0.63152732694E+02  0.92088866097E+02  0.00000000000E+00 0.  1.
        -13    1    3    3    0    0 -0.16754890566E+03 -0.30980228157E+02  0.43896095200E+03  0.47087060611E+03  0.00000000000E+00 0. -1.
         22    1    1    2    0    0  0.22801875644E+03  0.59885050570E+02  0.89487692790E+03  0.92540990305E+03  0.00000000000E+00 0. -1.
<mgrwt>
<rscale>  0 0.51347894E+03</rscale>
<asrwt>0</asrwt>
<pdfrwt beam="1">  1        2 0.22195073E+00 0.51347894E+03</pdfrwt>
<pdfrwt beam="2">  1       -2 0.70291367E-02 0.51347894E+03</pdfrwt>
<totfact> 0.16839302E+03</totfact>
</mgrwt>
</event>
<event>
 6    1  0.1817112E-005  0.1124797E+04  0.7818608E-02  0.9181354E-01
          2   -1    0    0  501    0  0.00000000000E+00  0.00000000000E+00  0.11057005091E+04  0.11057005091E+04  0.00000000000E+00 0. -1.
         -2   -1    0    0    0  501 -0.00000000000E+00 -0.00000000000E+00 -0.28605598286E+03  0.28605598286E+03  0.00000000000E+00 0.  1.
         23    2    1    2    0    0 -0.60260206597E+02  0.16229222434E+03  0.10698268096E+04  0.10875177148E+04  0.90528000629E+02 0.  0.
         11    1    3    3    0    0 -0.66942045596E+02  0.66667832983E+02  0.65376669387E+03  0.66055789106E+03  0.00000000000E+00 0.  1.
        -11    1    3    3    0    0  0.66818389997E+01  0.95624391360E+02  0.41606011573E+03  0.42695982375E+03  0.00000000000E+00 0. -1.
         22    1    1    2    0    0  0.60260206597E+02 -0.16229222434E+03 -0.25018228340E+03  0.30423877713E+03  0.00000000000E+00 0.  1.
<mgrwt>
<rscale>  0 0.11247973E+04</rscale>
<asrwt>0</asrwt>
<pdfrwt beam="1">  1        2 0.17010777E+00 0.11247973E+04</pdfrwt>
<pdfrwt beam="2">  1       -2 0.44008613E-01 0.11247973E+04</pdfrwt>
<totfact> 0.10484607E+02</totfact>
</mgrwt>
</event>
<event>
 6    1  0.1817112E-005  0.1842875E+04  0.7818608E-02  0.8683826E-01
          1   -1    0    0  501    0  0.00000000000E+00  0.00000000000E+00  0.76493383993E+03  0.76493383993E+03  0.00000000000E+00 0. -1.
         -1   -1    0    0    0  501 -0.00000000000E+00 -0.00000000000E+00 -0.11099610147E+04  0.11099610147E+04  0.00000000000E+00 0.  1.
         23    2    1    2    0    0  0.38388831727E+03  0.83511901013E+03 -0.17852047191E+03  0.94080787619E+03  0.91955966548E+02 0.  0.
         13    1    3    3    0    0  0.53913567550E+02  0.11559409035E+03  0.71324349381E+01  0.12774794761E+03  0.00000000000E+00 0. -1.
        -13    1    3    3    0    0  0.32997474972E+03  0.71952491978E+03 -0.18565290685E+03  0.81305992858E+03  0.00000000000E+00 0.  1.
         22    1    1    2    0    0 -0.38388831727E+03 -0.83511901013E+03 -0.16650670286E+03  0.93408697845E+03  0.00000000000E+00 0.  1.
<mgrwt>
<rscale>  0 0.18428746E+04</rscale>
<asrwt>0</asrwt>
<pdfrwt beam="1">  1        1 0.11768213E+00 0.18428746E+04</pdfrwt>
<pdfrwt beam="2">  1       -1 0.17076323E+00 0.18428746E+04</pdfrwt>
<totfact> 0.54226791E+00</totfact>
</mgrwt>
</event>
<event>
 6    1  0.1817112E-005  0.1615485E+04  0.7818608E-02  0.8811091E-01
          2   -1    0    0  501    0  0.00000000000E+00  0.00000000000E+00  0.24916290348E+04  0.24916290348E+04  0.00000000000E+00 0. -1.
         -2   -1    0    0    0  501 -0.00000000000E+00 -0.00000000000E+00 -0.26185606911E+03  0.26185606911E+03  0.00000000000E+00 0.  1.
         23    2    1    2    0    0  0.35152578166E+03  0.36327522553E+03  0.21865656922E+04  0.22461330238E+04  0.92221308900E+02 0.  0.
         11    1    3    3    0    0  0.15425726878E+03  0.16244620296E+03  0.11730256542E+04  0.11942249618E+04  0.00000000000E+00 0.  1.
        -11    1    3    3    0    0  0.19726851288E+03  0.20082902257E+03  0.10135400380E+04  0.10519080621E+04  0.00000000000E+00 0. -1.
         22    1    1    2    0    0 -0.35152578166E+03 -0.36327522553E+03  0.43207273467E+02  0.50735208005E+03  0.00000000000E+00 0.  1.
<mgrwt>
<rscale>  0 0.16154853E+04</rscale>
<asrwt>0</asrwt>
<pdfrwt beam="1">  1        2 0.38332753E+00 0.16154853E+04</pdfrwt>
<pdfrwt beam="2">  1       -2 0.40285551E-01 0.16154853E+04</pdfrwt>
<totfact> 0.19704425E+01</totfact>
</mgrwt>
</event>
<event>
 6    1  0.1817112E-005  0.6435060E+03  0.7818608E-02  0.9819042E-01
          2   -1    0    0  501    0  0.00000000000E+00  0.00000000000E+00  0.76162473663E+03  0.76162473663E+03  0.00000000000E+00 0. -1.
         -2   -1    0    0    0  501 -0.00000000000E+00 -0.00000000000E+00 -0.13592649921E+03  0.13592649921E+03  0.00000000000E+00 0.  1.
         23    2    1    2    0    0 -0.11033897444E+03  0.28228240959E+03  0.19946198668E+03  0.37454512737E+03  0.92956550407E+02 0.  0.
         11    1    3    3    0    0 -0.93459496466E+02  0.23346347902E+03  0.11728251978E+03  0.27747984244E+03  0.00000000000E+00 0.  1.
        -11    1    3    3    0    0 -0.16879477974E+02  0.48818930571E+02  0.82179466901E+02  0.97065284932E+02  0.00000000000E+00 0. -1.
         22    1    1    2    0    0  0.11033897444E+03 -0.28228240959E+03  0.42623625075E+03  0.52300610847E+03  0.00000000000E+00 0. -1.
<mgrwt>
<rscale>  0 0.64350597E+03</rscale>
<asrwt>0</asrwt>
<pdfrwt beam="1">  1        2 0.11717303E+00 0.64350597E+03</pdfrwt>
<pdfrwt beam="2">  1       -2 0.20911770E-01 0.64350597E+03</pdfrwt>
<totfact> 0.72925923E+02</totfact>
</mgrwt>
</event>
<event>
 6    1  0.1817112E-005  0.4801000E+04  0.7818608E-02  0.7859960E-01
         -2   -1    0    0    0  501 -0.00000000000E+00  0.00000000000E+00  0.28866028117E+04  0.28866028117E+04  0.00000000000E+00 0.  1.
          2   -1    0    0  501    0  0.00000000000E+00 -0.00000000000E+00 -0.19962569917E+04  0.19962569917E+04  0.00000000000E+00 0. -1.
         23    2    1    2    0    0  0.20917185264E+04 -0.64929158144E+03 -0.55161390904E+03  0.22606252960E+04  0.96347667574E+02 0.  0.
         11    1    3    3    0    0  0.19058699702E+04 -0.61977004357E+03 -0.50558993559E+03  0.20669001991E+04  0.00000000000E+00 0. -1.
        -11    1    3    3    0    0  0.18584855619E+03 -0.29521537877E+02 -0.46023973447E+02  0.19372509690E+03  0.00000000000E+00 0.  1.
         22    1    1    2    0    0 -0.20917185264E+04  0.64929158144E+03  0.14419597291E+04  0.26222345073E+04  0.00000000000E+00 0.  1.
<mgrwt>
<rscale>  0 0.48010003E+04</rscale>
<asrwt>0</asrwt>
<pdfrwt beam="1">  1        2 0.30711646E+00 0.48010003E+04</pdfrwt>
<pdfrwt beam="2">  1       -2 0.44409274E+00 0.48010003E+04</pdfrwt>
<totfact> 0.18892246E-02</totfact>
</mgrwt>
</event>
<event>
 6    1  0.1817112E-005  0.2588346E+04  0.7818608E-02  0.8372171E-01
         -2   -1    0    0    0  501 -0.00000000000E+00  0.00000000000E+00  0.41088017717E+03  0.41088017717E+03  0.00000000000E+00 0. -1.
          2   -1    0    0  501    0  0.00000000000E+00 -0.00000000000E+00 -0.40763302161E+04  0.40763302161E+04  0.00000000000E+00 0.  1.
         23    2    1    2    0    0 -0.70405749650E+03 -0.10732139325E+04 -0.20996685133E+04  0.24625729222E+04  0.90401482717E+02 0.  0.
         11    1    3    3    0    0 -0.44184632990E+03 -0.73540787779E+03 -0.14498232492E+04  0.16846484440E+04  0.00000000000E+00 0.  1.
        -11    1    3    3    0    0 -0.26221116660E+03 -0.33780605472E+03 -0.64984526401E+03  0.77792447811E+03  0.00000000000E+00 0. -1.
         22    1    1    2    0    0  0.70405749650E+03  0.10732139325E+04 -0.15657815257E+04  0.20246374711E+04  0.00000000000E+00 0.  1.
<mgrwt>
<rscale>  0 0.25883456E+04</rscale>
<asrwt>0</asrwt>
<pdfrwt beam="1">  1        2 0.62712771E+00 0.25883456E+04</pdfrwt>
<pdfrwt beam="2">  1       -2 0.63212337E-01 0.25883456E+04</pdfrwt>
<totfact> 0.60951823E-01</totfact>
</mgrwt>
</event>
<event>
 6    1  0.1817112E-005  0.2573248E+04  0.7818608E-02  0.8377346E-01
         -2   -1    0    0    0  501 -0.00000000000E+00  0.00000000000E+00  0.10937426679E+04  0.10937426679E+04  0.00000000000E+00 0. -1.
          2   -1    0    0  501    0  0.00000000000E+00 -0.00000000000E+00 -0.15135194044E+04  0.15135194044E+04  0.00000000000E+00 0.  1.
         23    2    1    2    0    0  0.10981114964E+04  0.24755468054E+03  0.41790997045E+03  0.12041044912E+04  0.89926103418E+02 0.  0.
         11    1    3    3    0    0  0.52150715650E+03  0.14541682048E+03  0.16264126304E+03  0.56530341092E+03  0.00000000000E+00 0. -1.
        -11    1    3    3    0    0  0.57660433988E+03  0.10213786006E+03  0.25526870741E+03  0.63880108031E+03  0.00000000000E+00 0.  1.
         22    1    1    2    0    0 -0.10981114964E+04 -0.24755468054E+03 -0.83768670696E+03  0.14031575811E+04  0.00000000000E+00 0.  1.
<mgrwt>
<rscale>  0 0.25732476E+04</rscale>
<asrwt>0</asrwt>
<pdfrwt beam="1">  1        2 0.23284914E+00 0.25732476E+04</pdfrwt>
<pdfrwt beam="2">  1       -2 0.16826810E+00 0.25732476E+04</pdfrwt>
<totfact> 0.24251149E+00</totfact>
</mgrwt>
</event>
<event>
 6    1  0.1817112E-005  0.3457897E+04  0.7818608E-02  0.8123841E-01
          2   -1    0    0  501    0  0.00000000000E+00  0.00000000000E+00  0.15858821659E+04  0.15858821659E+04  0.00000000000E+00 0. -1.
         -2   -1    0    0    0  501 -0.00000000000E+00 -0.00000000000E+00 -0.18849216788E+04  0.18849216788E+04  0.00000000000E+00 0.  1.
         23    2    1    2    0    0 -0.12684022638E+04 -0.42433977755E+03  0.94817464968E+03  0.16420196265E+04  0.91020534745E+02 0.  0.
         11    1    3    3    0    0 -0.12806099924E+03 -0.58531110579E+02  0.12999997772E+03  0.19163899561E+03  0.00000000000E+00 0.  1.
        -11    1    3    3    0    0 -0.11403412646E+04 -0.36580866697E+03  0.81817467196E+03  0.14503806309E+04  0.00000000000E+00 0. -1.
         22    1    1    2    0    0  0.12684022638E+04  0.42433977755E+03 -0.12472141626E+04  0.18287842183E+04  0.00000000000E+00 0.  1.
<mgrwt>
<rscale>  0 0.34578974E+04</rscale>
<asrwt>0</asrwt>
<pdfrwt beam="1">  1        2 0.24398187E+00 0.34578974E+04</pdfrwt>
<pdfrwt beam="2">  1       -2 0.28998795E+00 0.34578974E+04</pdfrwt>
<totfact> 0.34267133E-01</totfact>
</mgrwt>
</event>
<event>
 6    1  0.1817112E-005  0.4078425E+04  0.7818608E-02  0.7988910E-01
          2   -1    0    0  501    0  0.00000000000E+00  0.00000000000E+00  0.33854287101E+04  0.33854287101E+04  0.00000000000E+00 0. -1.
         -2   -1    0    0    0  501 -0.00000000000E+00 -0.00000000000E+00 -0.12283192501E+04  0.12283192501E+04  0.00000000000E+00 0.  1.
         23    2    1    2    0    0  0.15756510809E+03 -0.18881176424E+04  0.22918485406E+03  0.19106556049E+04  0.90907361973E+02 0.  0.
         11    1    3    3    0    0  0.14140536671E+03 -0.13437306574E+04  0.13407195813E+03  0.13577860094E+04  0.00000000000E+00 0. -1.
        -11    1    3    3    0    0  0.16159741383E+02 -0.54438698498E+03  0.95112895927E+02  0.55286959550E+03  0.00000000000E+00 0.  1.
         22    1    1    2    0    0 -0.15756510809E+03  0.18881176424E+04  0.19279246059E+04  0.27030923552E+04  0.00000000000E+00 0. -1.
<mgrwt>
<rscale>  0 0.40784248E+04</rscale>
<asrwt>0</asrwt>
<pdfrwt beam="1">  1        2 0.52083518E+00 0.40784248E+04</pdfrwt>
<pdfrwt beam="2">  1       -2 0.18897219E+00 0.40784248E+04</pdfrwt>
<totfact> 0.12025005E-01</totfact>
</mgrwt>
</event>
<event>
 6    1  0.1817112E-005  0.3186187E+04  0.7818608E-02  0.8192475E-01
         -2   -1    0    0    0  501 -0.00000000000E+00  0.00000000000E+00  0.83496358683E+03  0.83496358683E+03  0.00000000000E+00 0.  1.
          2   -1    0    0  501    0  0.00000000000E+00 -0.00000000000E+00 -0.30395902874E+04  0.30395902874E+04  0.00000000000E+00 0. -1.
         23    2    1    2    0    0  0.89233812511E+03  0.11825262981E+04 -0.39448118645E+03  0.15354808618E+04  0.86315092884E+02 0.  0.
         13    1    3    3    0    0  0.65733293127E+03  0.89044292801E+03 -0.33129960562E+03  0.11553071536E+04  0.00000000000E+00 0. -1.
        -13    1    3    3    0    0  0.23500519385E+03  0.29208337009E+03 -0.63181580825E+02  0.38017370816E+03  0.00000000000E+00 0.  1.
         22    1    1    2    0    0 -0.89233812511E+03 -0.11825262981E+04 -0.18101455141E+04  0.23390730124E+04  0.00000000000E+00 0. -1.
<mgrwt>
<rscale>  0 0.31861872E+04</rscale>
<asrwt>0</asrwt>
<pdfrwt beam="1">  1        2 0.46762928E+00 0.31861872E+04</pdfrwt>
<pdfrwt beam="2">  1       -2 0.12845593E+00 0.31861872E+04</pdfrwt>
<totfact> 0.61992863E-01</totfact>
</mgrwt>
</event>
<event>
 6    1  0.1817112E-005  0.2468796E+04  0.7818608E-02  0.8414187E-01
          2   -1    0    0  501    0  0.00000000000E+00  0.00000000000E+00  0.24883229075E+04  0.24883229075E+04  0.00000000000E+00 0. -1.
         -2   -1    0    0    0  501 -0.00000000000E+00 -0.00000000000E+00 -0.61235564749E+03  0.61235564749E+03  0.00000000000E+00 0.  1.
         23    2    1    2    0    0 -0.63416966917E+03  0.53174540782E+03 -0.20810750766E+03  0.85829322118E+03  0.91837741453E+02 0.  0.
         13    1    3    3    0    0 -0.36107269876E+03  0.26323205262E+03 -0.76615056159E+02  0.45335910066E+03  0.00000000000E+00 0. -1.
        -13    1    3    3    0    0 -0.27309697041E+03  0.26851335520E+03 -0.13149245150E+03  0.40493412053E+03  0.00000000000E+00 0.  1.
         22    1    1    2    0    0  0.63416966917E+03 -0.53174540782E+03  0.20840747676E+04  0.22423853338E+04  0.00000000000E+00 0. -1.
<mgrwt>
<rscale>  0 0.24687961E+04</rscale>
<asrwt>0</asrwt>
<pdfrwt beam="1">  1        2 0.38281890E+00 0.24687961E+04</pdfrwt>
<pdfrwt beam="2">  1       -2 0.94208563E-01 0.24687961E+04</pdfrwt>
<totfact> 0.30043436E+00</totfact>
</mgrwt>
</event>
<event>
 6    1  0.1817112E-005  0.1963480E+04  0.7818608E-02  0.8623888E-01
         -2   -1    0    0    0  501 -0.00000000000E+00  0.00000000000E+00  0.63001119760E+03  0.63001119760E+03  0.00000000000E+00 0.  1.
          2   -1    0    0  501    0  0.00000000000E+00 -0.00000000000E+00 -0.15298349921E+04  0.15298349921E+04  0.00000000000E+00 0. -1.
         23    2    1    2    0    0 -0.36726390238E+03 -0.80137546326E+03  0.18976131863E+02  0.88655175724E+03  0.92349973340E+02 0.  0.
         13    1    3    3    0    0 -0.31671009225E+03 -0.66266116851E+03  0.48247912267E+02  0.73603869995E+03  0.00000000000E+00 0. -1.
        -13    1    3    3    0    0 -0.50553810126E+02 -0.13871429475E+03 -0.29271780403E+02  0.15051305729E+03  0.00000000000E+00 0.  1.
         22    1    1    2    0    0  0.36726390238E+03  0.80137546326E+03 -0.91879992641E+03  0.12732944325E+04  0.00000000000E+00 0.  1.
<mgrwt>
<rscale>  0 0.19634797E+04</rscale>
<asrwt>0</asrwt>
<pdfrwt beam="1">  1        2 0.23535922E+00 0.19634797E+04</pdfrwt>
<pdfrwt beam="2">  1       -2 0.96924802E-01 0.19634797E+04</pdfrwt>
<totfact> 0.10118337E+01</totfact>
</mgrwt>
</event>
<event>
 6    1  0.1817112E-005  0.9966166E+03  0.7818608E-02  0.9312263E-01
         -2   -1    0    0    0  501 -0.00000000000E+00  0.00000000000E+00  0.23214351045E+03  0.23214351045E+03  0.00000000000E+00 0.  1.
          2   -1    0    0  501    0  0.00000000000E+00 -0.00000000000E+00 -0.10696451291E+04  0.10696451291E+04  0.00000000000E+00 0. -1.
         23    2    1    2    0    0  0.11274992811E+03 -0.36691913352E+03 -0.16174659965E+02  0.39519050923E+03  0.92583595337E+02 0.  0.
         13    1    3    3    0    0  0.45651716219E+02 -0.41589810331E+02  0.72975734385E+01  0.62185577871E+02  0.00000000000E+00 0.  1.
        -13    1    3    3    0    0  0.67098211890E+02 -0.32532932319E+03 -0.23472233403E+02  0.33300493136E+03  0.00000000000E+00 0. -1.
         22    1    1    2    0    0 -0.11274992811E+03  0.36691913352E+03 -0.82132695870E+03  0.90659813033E+03  0.00000000000E+00 0. -1.
<mgrwt>
<rscale>  0 0.99661663E+03</rscale>
<asrwt>0</asrwt>
<pdfrwt beam="1">  1        2 0.16456079E+00 0.99661663E+03</pdfrwt>
<pdfrwt beam="2">  1       -2 0.35714386E-01 0.99661663E+03</pdfrwt>
<totfact> 0.16723169E+02</totfact>
</mgrwt>
</event>
<event>
 6    1  0.1817112E-005  0.1816440E+04  0.7818608E-02  0.8697605E-01
         -2   -1    0    0    0  501 -0.00000000000E+00  0.00000000000E+00  0.39545900007E+03  0.39545900007E+03  0.00000000000E+00 0. -1.
          2   -1    0    0  501    0  0.00000000000E+00 -0.00000000000E+00 -0.20858380908E+04  0.20858380908E+04  0.00000000000E+00 0.  1.
         23    2    1    2    0    0  0.48092337737E+03 -0.75099941584E+03 -0.10652079344E+04  0.13922027918E+04  0.90957421929E+02 0.  0.
         11    1    3    3    0    0  0.39509542629E+03 -0.66940085085E+03 -0.90529036161E+03  0.11932093420E+04  0.00000000000E+00 0. -1.
        -11    1    3    3    0    0  0.85827951081E+02 -0.81598564989E+02 -0.15991757278E+03  0.19899344984E+03  0.00000000000E+00 0.  1.
         22    1    1    2    0    0 -0.48092337737E+03  0.75099941584E+03 -0.62517115635E+03  0.10890942990E+04  0.00000000000E+00 0. -1.
<mgrwt>
<rscale>  0 0.18164399E+04</rscale>
<asrwt>0</asrwt>
<pdfrwt beam="1">  1        2 0.32089817E+00 0.18164399E+04</pdfrwt>
<pdfrwt beam="2">  1       -2 0.60839845E-01 0.18164399E+04</pdfrwt>
<totfact> 0.14188809E+01</totfact>
</mgrwt>
</event>
<event>
 6    1  0.1817112E-005  0.1561761E+04  0.7818608E-02  0.8844390E-01
          2   -1    0    0  501    0  0.00000000000E+00  0.00000000000E+00  0.10364816400E+04  0.10364816400E+04  0.00000000000E+00 0.  1.
         -2   -1    0    0    0  501 -0.00000000000E+00 -0.00000000000E+00 -0.58831191031E+03  0.58831191031E+03  0.00000000000E+00 0. -1.
         23    2    1    2    0    0  0.14510077657E+03  0.45848077662E+03 -0.41167702070E+03  0.63960560273E+03  0.91424831302E+02 0.  0.
         13    1    3    3    0    0  0.12788822919E+03  0.33749982890E+03 -0.25994325306E+03  0.44478312523E+03  0.00000000000E+00 0. -1.
        -13    1    3    3    0    0  0.17212547381E+02  0.12098094772E+03 -0.15173376764E+03  0.19482247750E+03  0.00000000000E+00 0.  1.
         22    1    1    2    0    0 -0.14510077657E+03 -0.45848077662E+03  0.85984675039E+03  0.98518794758E+03  0.00000000000E+00 0.  1.
<mgrwt>
<rscale>  0 0.15617612E+04</rscale>
<asrwt>0</asrwt>
<pdfrwt beam="1">  1        2 0.15945871E+00 0.15617612E+04</pdfrwt>
<pdfrwt beam="2">  1       -2 0.90509525E-01 0.15617612E+04</pdfrwt>
<totfact> 0.23954387E+01</totfact>
</mgrwt>
</event>
<event>
 6    1  0.1817112E-005  0.3885348E+04  0.7818608E-02  0.8028084E-01
         -2   -1    0    0    0  501 -0.00000000000E+00  0.00000000000E+00  0.12688398583E+04  0.12688398583E+04  0.00000000000E+00 0.  1.
          2   -1    0    0  501    0  0.00000000000E+00 -0.00000000000E+00 -0.29743560886E+04  0.29743560886E+04  0.00000000000E+00 0. -1.
         23    2    1    2    0    0  0.19757564811E+03 -0.67081328337E+03  0.11248778117E+04  0.13276930691E+04  0.91608932490E+02 0.  0.
         13    1    3    3    0    0  0.58807751587E+02 -0.87708476425E+02  0.18242944057E+03  0.21078811463E+03  0.00000000000E+00 0.  1.
        -13    1    3    3    0    0  0.13876789653E+03 -0.58310480695E+03  0.94244837116E+03  0.11169049545E+04  0.00000000000E+00 0. -1.
         22    1    1    2    0    0 -0.19757564811E+03  0.67081328337E+03 -0.28303940419E+04  0.29155028778E+04  0.00000000000E+00 0. -1.
<mgrwt>
<rscale>  0 0.38853476E+04</rscale>
<asrwt>0</asrwt>
<pdfrwt beam="1">  1        2 0.45759324E+00 0.38853476E+04</pdfrwt>
<pdfrwt beam="2">  1       -2 0.19520613E+00 0.38853476E+04</pdfrwt>
<totfact> 0.20568771E-01</totfact>
</mgrwt>
</event>
<event>
 6    1  0.1817112E-005  0.2127261E+04  0.7818608E-02  0.8549329E-01
          2   -1    0    0  501    0  0.00000000000E+00  0.00000000000E+00  0.17329822326E+04  0.17329822326E+04  0.00000000000E+00 0. -1.
         -2   -1    0    0    0  501 -0.00000000000E+00 -0.00000000000E+00 -0.65281088365E+03  0.65281088365E+03  0.00000000000E+00 0.  1.
         23    2    1    2    0    0  0.47573482714E+03  0.93574260454E+03  0.36351664268E+03  0.11147573906E+04  0.92746120076E+02 0.  0.
         13    1    3    3    0    0  0.29774694486E+03  0.48593501827E+03  0.20685914176E+03  0.60628111440E+03  0.00000000000E+00 0. -1.
        -13    1    3    3    0    0  0.17798788228E+03  0.44980758628E+03  0.15665750092E+03  0.50847627625E+03  0.00000000000E+00 0.  1.
         22    1    1    2    0    0 -0.47573482714E+03 -0.93574260454E+03  0.71665470624E+03  0.12710357256E+04  0.00000000000E+00 0. -1.
<mgrwt>
<rscale>  0 0.21272608E+04</rscale>
<asrwt>0</asrwt>
<pdfrwt beam="1">  1        2 0.26661265E+00 0.21272608E+04</pdfrwt>
<pdfrwt beam="2">  1       -2 0.10043244E+00 0.21272608E+04</pdfrwt>
<totfact> 0.70677433E+00</totfact>
</mgrwt>
</event>
<event>
 6    1  0.1817112E-005  0.3817882E+04  0.7818608E-02  0.8042328E-01
          2   -1    0    0  501    0  0.00000000000E+00  0.00000000000E+00  0.27965993408E+04  0.27965993408E+04  0.00000000000E+00 0. -1.
         -2   -1    0    0    0  501 -0.00000000000E+00 -0.00000000000E+00 -0.13030310831E+04  0.13030310831E+04  0.00000000000E+00 0.  1.
         23    2    1    2    0    0 -0.12068204824E+04 -0.10337842534E+04 -0.38649946063E+03  0.16379683463E+04  0.91830882683E+02 0.  0.
         11    1    3    3    0    0 -0.22985306408E+03 -0.19248664192E+03 -0.11016575705E+03  0.31940574887E+03  0.00000000000E+00 0.  1.
        -11    1    3    3    0    0 -0.97696741828E+03 -0.84129761151E+03 -0.27633370358E+03  0.13185625974E+04  0.00000000000E+00 0. -1.
         22    1    1    2    0    0  0.12068204824E+04  0.10337842534E+04  0.18800677183E+04  0.24616620777E+04  0.00000000000E+00 0. -1.
<mgrwt>
<rscale>  0 0.38178821E+04</rscale>
<asrwt>0</asrwt>
<pdfrwt beam="1">  1        2 0.43024605E+00 0.38178821E+04</pdfrwt>
<pdfrwt beam="2">  1       -2 0.20046632E+00 0.38178821E+04</pdfrwt>
<totfact> 0.24558888E-01</totfact>
</mgrwt>
</event>
<event>
 6    1  0.1817112E-005  0.1352517E+04  0.7818608E-02  0.8988925E-01
         -2   -1    0    0    0  501 -0.00000000000E+00  0.00000000000E+00  0.13204029306E+03  0.13204029306E+03  0.00000000000E+00 0.  1.
          2   -1    0    0  501    0  0.00000000000E+00 -0.00000000000E+00 -0.34635305650E+04  0.34635305650E+04  0.00000000000E+00 0. -1.
         23    2    1    2    0    0 -0.53306279310E+03  0.32881583781E+03 -0.10164774342E+04  0.11973297869E+04  0.89980263004E+02 0.  0.
         11    1    3    3    0    0 -0.31734407475E+03  0.24034367675E+03 -0.68027119890E+03  0.78818858707E+03  0.00000000000E+00 0.  1.
        -11    1    3    3    0    0 -0.21571871835E+03  0.88472161065E+02 -0.33620623531E+03  0.40914119982E+03  0.00000000000E+00 0. -1.
         22    1    1    2    0    0  0.53306279310E+03 -0.32881583781E+03 -0.23150128378E+04  0.23982410712E+04  0.00000000000E+00 0.  1.
<mgrwt>
<rscale>  0 0.13525170E+04</rscale>
<asrwt>0</asrwt>
<pdfrwt beam="1">  1        2 0.53285084E+00 0.13525170E+04</pdfrwt>
<pdfrwt beam="2">  1       -2 0.20313892E-01 0.13525170E+04</pdfrwt>
<totfact> 0.17828291E+01</totfact>
</mgrwt>
</event>
<event>
 6    1  0.1817112E-005  0.1873217E+04  0.7818608E-02  0.8668304E-01
         -2   -1    0    0    0  501 -0.00000000000E+00  0.00000000000E+00  0.20489731349E+04  0.20489731349E+04  0.00000000000E+00 0.  1.
          2   -1    0    0  501    0  0.00000000000E+00 -0.00000000000E+00 -0.42813430408E+03  0.42813430408E+03  0.00000000000E+00 0. -1.
         23    2    1    2    0    0  0.49586884129E+03  0.25249170053E+02  0.18590456093E+04  0.19264116085E+04  0.92128603240E+02 0.  0.
         11    1    3    3    0    0  0.34044402340E+03 -0.14520354501E+02  0.11487667743E+04  0.11982395735E+04  0.00000000000E+00 0.  1.
        -11    1    3    3    0    0  0.15542481789E+03  0.39769524554E+02  0.71027883506E+03  0.72817203505E+03  0.00000000000E+00 0. -1.
         22    1    1    2    0    0 -0.49586884129E+03 -0.25249170053E+02 -0.23820677851E+03  0.55069583045E+03  0.00000000000E+00 0. -1.
<mgrwt>
<rscale>  0 0.18732172E+04</rscale>
<asrwt>0</asrwt>
<pdfrwt beam="1">  1        2 0.65866817E-01 0.18732172E+04</pdfrwt>
<pdfrwt beam="2">  1       -2 0.31522663E+00 0.18732172E+04</pdfrwt>
<totfact> 0.17740659E+00</totfact>
</mgrwt>
</event>
<event>
 6    1  0.1817112E-005  0.2807319E+04  0.7818608E-02  0.8301000E-01
         -2   -1    0    0    0  501 -0.00000000000E+00  0.00000000000E+00  0.56560569044E+03  0.56560569044E+03  0.00000000000E+00 0.  1.
          2   -1    0    0  501    0  0.00000000000E+00 -0.00000000000E+00 -0.34834511518E+04  0.34834511518E+04  0.00000000000E+00 0. -1.
         23    2    1    2    0    0  0.13851434819E+04  0.21785644525E+03 -0.14598840149E+04  0.20262529774E+04  0.91410586361E+02 0.  0.
         11    1    3    3    0    0  0.21004936959E+03  0.66415137321E+02 -0.22363993405E+03  0.31392121341E+03  0.00000000000E+00 0. -1.
        -11    1    3    3    0    0  0.11750941123E+04  0.15144130793E+03 -0.12362440809E+04  0.17123317640E+04  0.00000000000E+00 0.  1.
         22    1    1    2    0    0 -0.13851434819E+04 -0.21785644525E+03 -0.14579614465E+04  0.20228038648E+04  0.00000000000E+00 0.  1.
<mgrwt>
<rscale>  0 0.28073189E+04</rscale>
<asrwt>0</asrwt>
<pdfrwt beam="1">  1        2 0.53591557E+00 0.28073189E+04</pdfrwt>
<pdfrwt beam="2">  1       -2 0.87016259E-01 0.28073189E+04</pdfrwt>
<totfact> 0.82904635E-01</totfact>
</mgrwt>
</event>
<event>
 6    1  0.1817112E-005  0.2093539E+04  0.7818608E-02  0.8564095E-01
          2   -1    0    0  501    0  0.00000000000E+00  0.00000000000E+00  0.19960094449E+04  0.19960094449E+04  0.00000000000E+00 0.  1.
         -2   -1    0    0    0  501 -0.00000000000E+00 -0.00000000000E+00 -0.54895836594E+03  0.54895836594E+03  0.00000000000E+00 0. -1.
         23    2    1    2    0    0 -0.57595593102E+01  0.56076266124E+03 -0.34635589310E+03  0.66592643232E+03  0.94908765765E+02 0.  0.
         13    1    3    3    0    0  0.32474986901E+02  0.20594993022E+03 -0.93151163413E+02  0.22835747804E+03  0.00000000000E+00 0.  1.
        -13    1    3    3    0    0 -0.38234546211E+02  0.35481273102E+03 -0.25320472968E+03  0.43756895429E+03  0.00000000000E+00 0. -1.
         22    1    1    2    0    0  0.57595593102E+01 -0.56076266124E+03  0.17934069721E+04  0.18790413785E+04  0.00000000000E+00 0.  1.
<mgrwt>
<rscale>  0 0.20935387E+04</rscale>
<asrwt>0</asrwt>
<pdfrwt beam="1">  1        2 0.30707837E+00 0.20935387E+04</pdfrwt>
<pdfrwt beam="2">  1       -2 0.84455134E-01 0.20935387E+04</pdfrwt>
<totfact> 0.75700885E+00</totfact>
</mgrwt>
</event>
<event>
 6    1  0.1817112E-005  0.4430040E+04  0.7818608E-02  0.7923000E-01
         -2   -1    0    0    0  501 -0.00000000000E+00  0.00000000000E+00  0.17145680200E+04  0.17145680200E+04  0.00000000000E+00 0.  1.
          2   -1    0    0  501    0  0.00000000000E+00 -0.00000000000E+00 -0.28615450348E+04  0.28615450348E+04  0.00000000000E+00 0. -1.
         23    2    1    2    0    0 -0.84001500327E+03 -0.18331532148E+04 -0.15182633582E+04  0.25257644347E+04  0.91029886324E+02 0.  0.
         11    1    3    3    0    0 -0.47411146808E+03 -0.10290580620E+04 -0.90934466453E+03  0.14528075915E+04  0.00000000000E+00 0. -1.
        -11    1    3    3    0    0 -0.36590353519E+03 -0.80409515286E+03 -0.60891869364E+03  0.10729568432E+04  0.00000000000E+00 0.  1.
         22    1    1    2    0    0  0.84001500327E+03  0.18331532148E+04  0.37128634340E+03  0.20503486200E+04  0.00000000000E+00 0.  1.
<mgrwt>
<rscale>  0 0.44300400E+04</rscale>
<asrwt>0</asrwt>
<pdfrwt beam="1">  1        2 0.44023770E+00 0.44300400E+04</pdfrwt>
<pdfrwt beam="2">  1       -2 0.26377969E+00 0.44300400E+04</pdfrwt>
<totfact> 0.85483649E-02</totfact>
</mgrwt>
</event>
<event>
 6    1  0.1817112E-005  0.1869905E+04  0.7818608E-02  0.8669983E-01
         -2   -1    0    0    0  501 -0.00000000000E+00  0.00000000000E+00  0.31316654257E+03  0.31316654257E+03  0.00000000000E+00 0.  1.
          2   -1    0    0  501    0  0.00000000000E+00 -0.00000000000E+00 -0.27912819039E+04  0.27912819039E+04  0.00000000000E+00 0. -1.
         23    2    1    2    0    0 -0.68445941394E+03  0.27100226169E+03 -0.21930547140E+04  0.23150268305E+04  0.89069253681E+02 0.  0.
         13    1    3    3    0    0 -0.38053617523E+03  0.16110307740E+03 -0.10941306316E+04  0.11695656550E+04  0.00000000000E+00 0. -1.
        -13    1    3    3    0    0 -0.30392323871E+03  0.10989918430E+03 -0.10989240824E+04  0.11454611755E+04  0.00000000000E+00 0.  1.
         22    1    1    2    0    0  0.68445941394E+03 -0.27100226169E+03 -0.28506064733E+03  0.78942161601E+03  0.00000000000E+00 0.  1.
<mgrwt>
<rscale>  0 0.18699049E+04</rscale>
<asrwt>0</asrwt>
<pdfrwt beam="1">  1        2 0.42942798E+00 0.18699049E+04</pdfrwt>
<pdfrwt beam="2">  1       -2 0.48179468E-01 0.18699049E+04</pdfrwt>
<totfact> 0.89870371E+00</totfact>
</mgrwt>
</event>
<event>
 6    1  0.1817112E-005  0.1481509E+04  0.7818608E-02  0.8896843E-01
          2   -1    0    0  501    0  0.00000000000E+00  0.00000000000E+00  0.14791746580E+04  0.14791746580E+04  0.00000000000E+00 0. -1.
         -2   -1    0    0    0  501 -0.00000000000E+00 -0.00000000000E+00 -0.37096198933E+03  0.37096198933E+03  0.00000000000E+00 0.  1.
         23    2    1    2    0    0 -0.26132991396E+03  0.17388260955E+03 -0.27776085535E+03  0.42906272415E+03  0.91734631721E+02 0.  0.
         13    1    3    3    0    0 -0.24877471686E+03  0.16830634337E+03 -0.28454494787E+03  0.41374111751E+03  0.00000000000E+00 0.  1.
        -13    1    3    3    0    0 -0.12555197097E+02  0.55762661862E+01  0.67840925133E+01  0.15321606638E+02  0.00000000000E+00 0. -1.
         22    1    1    2    0    0  0.26132991396E+03 -0.17388260955E+03  0.13859735240E+04  0.14210739231E+04  0.00000000000E+00 0. -1.
<mgrwt>
<rscale>  0 0.14815095E+04</rscale>
<asrwt>0</asrwt>
<pdfrwt beam="1">  1        2 0.22756533E+00 0.14815095E+04</pdfrwt>
<pdfrwt beam="2">  1       -2 0.57071076E-01 0.14815095E+04</pdfrwt>
<totfact> 0.36312099E+01</totfact>
</mgrwt>
</event>
<event>
 6    1  0.1817112E-005  0.2336901E+04  0.7818608E-02  0.8463512E-01
          2   -1    0    0  501    0  0.00000000000E+00  0.00000000000E+00  0.11200815913E+04  0.11200815913E+04  0.00000000000E+00 0. -1.
         -2   -1    0    0    0  501 -0.00000000000E+00 -0.00000000000E+00 -0.12189083482E+04  0.12189083482E+04  0.00000000000E+00 0.  1.
         23    2    1    2    0    0 -0.29920370635E+03  0.64136745580E+03  0.87887975862E+03  0.11320164097E+04  0.90313068941E+02 0.  0.
         13    1    3    3    0    0 -0.15130470662E+03  0.42250600959E+03  0.57424012748E+03  0.72880461469E+03  0.00000000000E+00 0.  1.
        -13    1    3    3    0    0 -0.14789899973E+03  0.21886144621E+03  0.30463963114E+03  0.40321179499E+03  0.00000000000E+00 0. -1.
         22    1    1    2    0    0  0.29920370635E+03 -0.64136745580E+03 -0.97770651549E+03  0.12069735298E+04  0.00000000000E+00 0.  1.
<mgrwt>
<rscale>  0 0.23369012E+04</rscale>
<asrwt>0</asrwt>
<pdfrwt beam="1">  1        2 0.17232024E+00 0.23369012E+04</pdfrwt>
<pdfrwt beam="2">  1       -2 0.18752436E+00 0.23369012E+04</pdfrwt>
<totfact> 0.30825411E+00</totfact>
</mgrwt>
</event>
<event>
 6    1  0.1817112E-005  0.7425397E+03  0.7818608E-02  0.9647128E-01
          2   -1    0    0  501    0  0.00000000000E+00  0.00000000000E+00  0.92468609187E+03  0.92468609187E+03  0.00000000000E+00 0. -1.
         -2   -1    0    0    0  501 -0.00000000000E+00 -0.00000000000E+00 -0.14906821886E+03  0.14906821886E+03  0.00000000000E+00 0.  1.
         23    2    1    2    0    0  0.19736139852E+03  0.12953069915E+03 -0.10229103022E+02  0.25321473619E+03  0.91012880555E+02 0.  0.
         11    1    3    3    0    0  0.80490611734E+02  0.77592707105E+02  0.35643388104E+02  0.11734486733E+03  0.00000000000E+00 0. -1.
        -11    1    3    3    0    0  0.11687078679E+03  0.51937992040E+02 -0.45872491125E+02  0.13586986886E+03  0.00000000000E+00 0.  1.
         22    1    1    2    0    0 -0.19736139852E+03 -0.12953069915E+03  0.78584697603E+03  0.82053957454E+03  0.00000000000E+00 0. -1.
<mgrwt>
<rscale>  0 0.74253972E+03</rscale>
<asrwt>0</asrwt>
<pdfrwt beam="1">  1        2 0.14225939E+00 0.74253972E+03</pdfrwt>
<pdfrwt beam="2">  1       -2 0.22933573E-01 0.74253972E+03</pdfrwt>
<totfact> 0.47522456E+02</totfact>
</mgrwt>
</event>
<event>
 6    1  0.1817112E-005  0.6456923E+04  0.7818608E-02  0.7636193E-01
          2   -1    0    0  501    0  0.00000000000E+00  0.00000000000E+00  0.38128488411E+04  0.38128488411E+04  0.00000000000E+00 0. -1.
         -2   -1    0    0    0  501 -0.00000000000E+00 -0.00000000000E+00 -0.27336423015E+04  0.27336423015E+04  0.00000000000E+00 0.  1.
         23    2    1    2    0    0 -0.24280262876E+03  0.10402250380E+04 -0.25485030202E+04  0.27647854565E+04  0.90275857765E+02 0.  0.
         11    1    3    3    0    0 -0.19224046955E+03  0.64379123460E+03 -0.16372187778E+04  0.17697200000E+04  0.00000000000E+00 0. -1.
        -11    1    3    3    0    0 -0.50562159205E+02  0.39643380343E+03 -0.91128424237E+03  0.99506545656E+03  0.00000000000E+00 0.  1.
         22    1    1    2    0    0  0.24280262876E+03 -0.10402250380E+04  0.36277095598E+04  0.37817056861E+04  0.00000000000E+00 0. -1.
<mgrwt>
<rscale>  0 0.64569234E+04</rscale>
<asrwt>0</asrwt>
<pdfrwt beam="1">  1        2 0.58659213E+00 0.64569234E+04</pdfrwt>
<pdfrwt beam="2">  1       -2 0.42056035E+00 0.64569234E+04</pdfrwt>
<totfact> 0.16940951E-03</totfact>
</mgrwt>
</event>
<event>
 6    1  0.1817112E-005  0.3069072E+04  0.7818608E-02  0.8224277E-01
         -2   -1    0    0    0  501 -0.00000000000E+00  0.00000000000E+00  0.96482748053E+03  0.96482748053E+03  0.00000000000E+00 0.  1.
          2   -1    0    0  501    0  0.00000000000E+00 -0.00000000000E+00 -0.24406445156E+04  0.24406445156E+04  0.00000000000E+00 0. -1.
         23    2    1    2    0    0  0.14147221212E+04 -0.25658129663E+03 -0.13293446722E+04  0.19602291809E+04  0.89825062797E+02 0.  0.
         13    1    3    3    0    0  0.32565428433E+03 -0.20928323046E+02 -0.29860179439E+03  0.44232537710E+03  0.00000000000E+00 0. -1.
        -13    1    3    3    0    0  0.10890678369E+04 -0.23565297358E+03 -0.10307428778E+04  0.15179038038E+04  0.00000000000E+00 0.  1.
         22    1    1    2    0    0 -0.14147221212E+04  0.25658129663E+03 -0.14647236285E+03  0.14452428153E+04  0.00000000000E+00 0. -1.
<mgrwt>
<rscale>  0 0.30690721E+04</rscale>
<asrwt>0</asrwt>
<pdfrwt beam="1">  1        2 0.37548376E+00 0.30690721E+04</pdfrwt>
<pdfrwt beam="2">  1       -2 0.14843500E+00 0.30690721E+04</pdfrwt>
<totfact> 0.98767862E-01</totfact>
</mgrwt>
</event>
<event>
 6    1  0.1817112E-005  0.4544980E+03  0.7818608E-02  0.1026389E+00
          2   -1    0    0  501    0  0.00000000000E+00  0.00000000000E+00  0.18730854568E+03  0.18730854568E+03  0.00000000000E+00 0. -1.
         -2   -1    0    0    0  501 -0.00000000000E+00 -0.00000000000E+00 -0.27570610270E+03  0.27570610270E+03  0.00000000000E+00 0.  1.
         23    2    1    2    0    0 -0.59135102382E+02  0.18859599594E+03 -0.14609252585E+03  0.25711632530E+03  0.75500785508E+02 0.  0.
         13    1    3    3    0    0 -0.15419342243E+02  0.40876915901E+02  0.15803517155E+01  0.43716997614E+02  0.00000000000E+00 0. -1.
        -13    1    3    3    0    0 -0.43715760139E+02  0.14771908004E+03 -0.14767287756E+03  0.21339932769E+03  0.00000000000E+00 0.  1.
         22    1    1    2    0    0  0.59135102382E+02 -0.18859599594E+03  0.57694968831E+02  0.20589832308E+03  0.00000000000E+00 0. -1.
<mgrwt>
<rscale>  0 0.45449800E+03</rscale>
<asrwt>0</asrwt>
<pdfrwt beam="1">  1        2 0.28816699E-01 0.45449800E+03</pdfrwt>
<pdfrwt beam="2">  1       -2 0.42416323E-01 0.45449800E+03</pdfrwt>
<totfact> 0.98240197E+02</totfact>
</mgrwt>
</event>
<event>
 6    1  0.1817112E-005  0.9582778E+03  0.7818608E-02  0.9355527E-01
         -2   -1    0    0    0  501 -0.00000000000E+00  0.00000000000E+00  0.86770319034E+03  0.86770319034E+03  0.00000000000E+00 0.  1.
          2   -1    0    0  501    0  0.00000000000E+00 -0.00000000000E+00 -0.26457676202E+03  0.26457676202E+03  0.00000000000E+00 0. -1.
         23    2    1    2    0    0  0.15321694235E+03 -0.23207269624E+03 -0.15057181184E+03  0.32891564833E+03  0.90445925470E+02 0.  0.
         11    1    3    3    0    0  0.13205578449E+03 -0.16187555553E+03 -0.14712837711E+03  0.25551748481E+03  0.00000000000E+00 0. -1.
        -11    1    3    3    0    0  0.21161157867E+02 -0.70197140705E+02 -0.34434347370E+01  0.73398163521E+02  0.00000000000E+00 0.  1.
         22    1    1    2    0    0 -0.15321694235E+03  0.23207269624E+03  0.75369824016E+03  0.80336430403E+03  0.00000000000E+00 0.  1.
<mgrwt>
<rscale>  0 0.95827783E+03</rscale>
<asrwt>0</asrwt>
<pdfrwt beam="1">  1        2 0.40704118E-01 0.95827783E+03</pdfrwt>
<pdfrwt beam="2">  1       -2 0.13349280E+00 0.95827783E+03</pdfrwt>
<totfact> 0.51273756E+01</totfact>
</mgrwt>
</event>
<event>
 6    1  0.1817112E-005  0.2102148E+04  0.7818608E-02  0.8560298E-01
          1   -1    0    0  501    0  0.00000000000E+00  0.00000000000E+00  0.11074382352E+04  0.11074382352E+04  0.00000000000E+00 0. -1.
         -1   -1    0    0    0  501 -0.00000000000E+00 -0.00000000000E+00 -0.99757867164E+03  0.99757867164E+03  0.00000000000E+00 0.  1.
         23    2    1    2    0    0 -0.18485233563E+03  0.65920124420E+03  0.85099723176E+03  0.10960561992E+04  0.91794536764E+02 0.  0.
         13    1    3    3    0    0 -0.21634141803E+02  0.23850625852E+03  0.29087493017E+03  0.37677778125E+03  0.00000000000E+00 0. -1.
        -13    1    3    3    0    0 -0.16321819383E+03  0.42069498568E+03  0.56012230159E+03  0.71927841794E+03  0.00000000000E+00 0.  1.
         22    1    1    2    0    0  0.18485233563E+03 -0.65920124420E+03 -0.74113766820E+03  0.10089607076E+04  0.00000000000E+00 0.  1.
<mgrwt>
<rscale>  0 0.21021482E+04</rscale>
<asrwt>0</asrwt>
<pdfrwt beam="1">  1        1 0.17037511E+00 0.21021482E+04</pdfrwt>
<pdfrwt beam="2">  1       -1 0.15347364E+00 0.21021482E+04</pdfrwt>
<totfact> 0.37738037E+00</totfact>
</mgrwt>
</event>
<event>
 6    1  0.1817112E-005  0.5530506E+03  0.7818608E-02  0.1000790E+00
         -2   -1    0    0    0  501 -0.00000000000E+00  0.00000000000E+00  0.36141789561E+03  0.36141789561E+03  0.00000000000E+00 0.  1.
          2   -1    0    0  501    0  0.00000000000E+00 -0.00000000000E+00 -0.21157289392E+03  0.21157289392E+03  0.00000000000E+00 0. -1.
         23    2    1    2    0    0 -0.79446183132E+02  0.68232781295E+02 -0.17968252890E+03  0.22722236720E+03  0.91524775372E+02 0.  0.
         11    1    3    3    0    0  0.23781315875E+01  0.56178866923E+02 -0.77878989252E+02  0.96056533175E+02  0.00000000000E+00 0.  1.
        -11    1    3    3    0    0 -0.81824314720E+02  0.12053914372E+02 -0.10180353965E+03  0.13116583403E+03  0.00000000000E+00 0. -1.
         22    1    1    2    0    0  0.79446183132E+02 -0.68232781295E+02  0.32952753059E+03  0.34576842232E+03  0.00000000000E+00 0.  1.
<mgrwt>
<rscale>  0 0.55305056E+03</rscale>
<asrwt>0</asrwt>
<pdfrwt beam="1">  1        2 0.32549676E-01 0.55305056E+03</pdfrwt>
<pdfrwt beam="2">  1       -2 0.55602753E-01 0.55305056E+03</pdfrwt>
<totfact> 0.49742977E+02</totfact>
</mgrwt>
</event>
<event>
 6    1  0.1817112E-005  0.3620231E+04  0.7818608E-02  0.8085873E-01
          2   -1    0    0  501    0  0.00000000000E+00  0.00000000000E+00  0.18515676528E+04  0.18515676528E+04  0.00000000000E+00 0. -1.
         -2   -1    0    0    0  501 -0.00000000000E+00 -0.00000000000E+00 -0.17695915054E+04  0.17695915054E+04  0.00000000000E+00 0.  1.
         23    2    1    2    0    0 -0.16300123880E+04  0.36044364479E+03 -0.65582523138E+03  0.17959986501E+04  0.92975323781E+02 0.  0.
         11    1    3    3    0    0 -0.66312306147E+03  0.17065464055E+03 -0.31119335592E+03  0.75212798497E+03  0.00000000000E+00 0. -1.
        -11    1    3    3    0    0 -0.96688932651E+03  0.18978900425E+03 -0.34463187546E+03  0.10438706651E+04  0.00000000000E+00 0.  1.
         22    1    1    2    0    0  0.16300123880E+04 -0.36044364479E+03  0.73780137871E+03  0.18251605081E+04  0.00000000000E+00 0. -1.
<mgrwt>
<rscale>  0 0.36202311E+04</rscale>
<asrwt>0</asrwt>
<pdfrwt beam="1">  1        2 0.28485656E+00 0.36202311E+04</pdfrwt>
<pdfrwt beam="2">  1       -2 0.27224485E+00 0.36202311E+04</pdfrwt>
<totfact> 0.30869655E-01</totfact>
</mgrwt>
</event>
<event>
 6    1  0.1817112E-005  0.1459766E+04  0.7818608E-02  0.8911658E-01
         -2   -1    0    0    0  501 -0.00000000000E+00  0.00000000000E+00  0.18876557924E+03  0.18876557924E+03  0.00000000000E+00 0.  1.
          2   -1    0    0  501    0  0.00000000000E+00 -0.00000000000E+00 -0.28221740202E+04  0.28221740202E+04  0.00000000000E+00 0. -1.
         23    2    1    2    0    0 -0.30626252655E+03  0.27226109359E+03 -0.25604076844E+04  0.25947041508E+04  0.94229940635E+02 0.  0.
         11    1    3    3    0    0 -0.61133237659E+02  0.35808151184E+02 -0.68193108091E+03  0.68560155743E+03  0.00000000000E+00 0.  1.
        -11    1    3    3    0    0 -0.24512928889E+03  0.23645294240E+03 -0.18784766035E+04  0.19091025934E+04  0.00000000000E+00 0. -1.
         22    1    1    2    0    0  0.30626252655E+03 -0.27226109359E+03 -0.73000756585E+02  0.41623544865E+03  0.00000000000E+00 0.  1.
<mgrwt>
<rscale>  0 0.14597662E+04</rscale>
<asrwt>0</asrwt>
<pdfrwt beam="1">  1        2 0.43418062E+00 0.14597662E+04</pdfrwt>
<pdfrwt beam="2">  1       -2 0.29040858E-01 0.14597662E+04</pdfrwt>
<totfact> 0.23812131E+01</totfact>
</mgrwt>
</event>
<event>
 6    1  0.1817112E-005  0.2710592E+04  0.7818608E-02  0.8331576E-01
         -2   -1    0    0    0  501 -0.00000000000E+00  0.00000000000E+00  0.58390293811E+03  0.58390293811E+03  0.00000000000E+00 0.  1.
          2   -1    0    0  501    0  0.00000000000E+00 -0.00000000000E+00 -0.31457754000E+04  0.31457754000E+04  0.00000000000E+00 0. -1.
         23    2    1    2    0    0 -0.11262270226E+04  0.41718895597E+03 -0.42285090985E+03  0.12765482699E+04  0.91316274446E+02 0.  0.
         11    1    3    3    0    0 -0.10087922322E+04  0.34955015608E+03 -0.39380418179E+03  0.11379493895E+04  0.00000000000E+00 0.  1.
        -11    1    3    3    0    0 -0.11743479038E+03  0.67638799891E+02 -0.29046728061E+02  0.13859888042E+03  0.00000000000E+00 0. -1.
         22    1    1    2    0    0  0.11262270226E+04 -0.41718895597E+03 -0.21390215521E+04  0.24531300682E+04  0.00000000000E+00 0. -1.
<mgrwt>
<rscale>  0 0.27105922E+04</rscale>
<asrwt>0</asrwt>
<pdfrwt beam="1">  1        2 0.48396545E+00 0.27105922E+04</pdfrwt>
<pdfrwt beam="2">  1       -2 0.89831221E-01 0.27105922E+04</pdfrwt>
<totfact> 0.13080514E+00</totfact>
</mgrwt>
</event>
<event>
 6    1  0.1817112E-005  0.3334331E+04  0.7818608E-02  0.8154214E-01
         -1   -1    0    0    0  501 -0.00000000000E+00  0.00000000000E+00  0.13806074803E+04  0.13806074803E+04  0.00000000000E+00 0.  1.
          1   -1    0    0  501    0  0.00000000000E+00 -0.00000000000E+00 -0.20132008503E+04  0.20132008503E+04  0.00000000000E+00 0. -1.
         23    2    1    2    0    0  0.85713718159E+03 -0.13123644860E+04 -0.89057440537E+03  0.18052432841E+04  0.93786199916E+02 0.  0.
         11    1    3    3    0    0  0.66138354559E+03 -0.94930581943E+03 -0.63049614394E+03  0.13176248027E+04  0.00000000000E+00 0. -1.
        -11    1    3    3    0    0  0.19575363599E+03 -0.36305866657E+03 -0.26007826142E+03  0.48761848144E+03  0.00000000000E+00 0.  1.
         22    1    1    2    0    0 -0.85713718159E+03  0.13123644860E+04  0.25798103545E+03  0.15885650465E+04  0.00000000000E+00 0.  1.
<mgrwt>
<rscale>  0 0.33343306E+04</rscale>
<asrwt>0</asrwt>
<pdfrwt beam="1">  1        1 0.30972321E+00 0.33343306E+04</pdfrwt>
<pdfrwt beam="2">  1       -1 0.21240115E+00 0.33343306E+04</pdfrwt>
<totfact> 0.29903251E-01</totfact>
</mgrwt>
</event>
<event>
 6    1  0.1817112E-005  0.1324324E+04  0.7818608E-02  0.9010495E-01
          2   -1    0    0  501    0  0.00000000000E+00  0.00000000000E+00  0.83755286127E+03  0.83755286127E+03  0.00000000000E+00 0. -1.
         -2   -1    0    0    0  501 -0.00000000000E+00 -0.00000000000E+00 -0.52349971625E+03  0.52349971625E+03  0.00000000000E+00 0.  1.
         23    2    1    2    0    0 -0.51018070731E+03  0.15572651439E+03  0.55550757653E+03  0.77553114846E+03  0.91240305038E+02 0.  0.
         11    1    3    3    0    0 -0.19568872478E+03  0.83012039601E+02  0.27726407799E+03  0.34937149951E+03  0.00000000000E+00 0. -1.
        -11    1    3    3    0    0 -0.31449198253E+03  0.72714474785E+02  0.27824349853E+03  0.42615964895E+03  0.00000000000E+00 0.  1.
         22    1    1    2    0    0  0.51018070731E+03 -0.15572651439E+03 -0.24145443150E+03  0.58552142906E+03  0.00000000000E+00 0.  1.
<mgrwt>
<rscale>  0 0.13243243E+04</rscale>
<asrwt>0</asrwt>
<pdfrwt beam="1">  1        2 0.12885429E+00 0.13243243E+04</pdfrwt>
<pdfrwt beam="2">  1       -2 0.80538418E-01 0.13243243E+04</pdfrwt>
<totfact> 0.43162425E+01</totfact>
</mgrwt>
</event>
<event>
 6    1  0.1817112E-005  0.8199719E+03  0.7818608E-02  0.9531550E-01
         -2   -1    0    0    0  501 -0.00000000000E+00  0.00000000000E+00  0.50542150229E+03  0.50542150229E+03  0.00000000000E+00 0.  1.
          2   -1    0    0  501    0  0.00000000000E+00 -0.00000000000E+00 -0.33257086752E+03  0.33257086752E+03  0.00000000000E+00 0. -1.
         23    2    1    2    0    0  0.16111863609E+01 -0.20260029265E+03 -0.27078689473E+03  0.35027961410E+03  0.91218370947E+02 0.  0.
         11    1    3    3    0    0 -0.21923737275E+02 -0.18443523190E+03 -0.19711135781E+03  0.27083185263E+03  0.00000000000E+00 0.  1.
        -11    1    3    3    0    0  0.23534923636E+02 -0.18165060744E+02 -0.73675536921E+02  0.79447761472E+02  0.00000000000E+00 0. -1.
         22    1    1    2    0    0 -0.16111863609E+01  0.20260029265E+03  0.44363752950E+03  0.48771275571E+03  0.00000000000E+00 0.  1.
<mgrwt>
<rscale>  0 0.81997187E+03</rscale>
<asrwt>0</asrwt>
<pdfrwt beam="1">  1        2 0.51164749E-01 0.81997187E+03</pdfrwt>
<pdfrwt beam="2">  1       -2 0.77757154E-01 0.81997187E+03</pdfrwt>
<totfact> 0.14518271E+02</totfact>
</mgrwt>
</event>
<event>
 6    1  0.1817112E-005  0.1631979E+04  0.7818608E-02  0.8801140E-01
         -2   -1    0    0    0  501 -0.00000000000E+00  0.00000000000E+00  0.65509092146E+03  0.65509092146E+03  0.00000000000E+00 0.  1.
          2   -1    0    0  501    0  0.00000000000E+00 -0.00000000000E+00 -0.10164063342E+04  0.10164063342E+04  0.00000000000E+00 0. -1.
         23    2    1    2    0    0 -0.33622837041E+03  0.19183278915E+02  0.57717857091E+03  0.67440725341E+03  0.90953424802E+02 0.  0.
         11    1    3    3    0    0 -0.18205350880E+03 -0.21714066134E+02  0.37004627396E+03  0.41297605936E+03  0.00000000000E+00 0. -1.
        -11    1    3    3    0    0 -0.15417486161E+03  0.40897345049E+02  0.20713229694E+03  0.26143119405E+03  0.00000000000E+00 0.  1.
         22    1    1    2    0    0  0.33622837041E+03 -0.19183278915E+02 -0.93849398361E+03  0.99709000222E+03  0.00000000000E+00 0. -1.
<mgrwt>
<rscale>  0 0.16319786E+04</rscale>
<asrwt>0</asrwt>
<pdfrwt beam="1">  1        2 0.15637020E+00 0.16319786E+04</pdfrwt>
<pdfrwt beam="2">  1       -2 0.10078322E+00 0.16319786E+04</pdfrwt>
<totfact> 0.19072644E+01</totfact>
</mgrwt>
</event>
<event>
 6    1  0.1817112E-005  0.5962464E+04  0.7818608E-02  0.7695073E-01
         -2   -1    0    0    0  501 -0.00000000000E+00  0.00000000000E+00  0.40133397402E+04  0.40133397402E+04  0.00000000000E+00 0.  1.
          2   -1    0    0  501    0  0.00000000000E+00 -0.00000000000E+00 -0.22145508467E+04  0.22145508467E+04  0.00000000000E+00 0. -1.
         23    2    1    2    0    0  0.14181785148E+04  0.22591801988E+04  0.22886149482E+04  0.35158701160E+04  0.91971845824E+02 0.  0.
         11    1    3    3    0    0  0.68880646408E+03  0.11637266351E+04  0.11986139499E+04  0.18070388560E+04  0.00000000000E+00 0. -1.
        -11    1    3    3    0    0  0.72937205072E+03  0.10954535637E+04  0.10900009983E+04  0.17088312600E+04  0.00000000000E+00 0.  1.
         22    1    1    2    0    0 -0.14181785148E+04 -0.22591801988E+04 -0.48982605479E+03  0.27120204709E+04  0.00000000000E+00 0. -1.
<mgrwt>
<rscale>  0 0.59624642E+04</rscale>
<asrwt>0</asrwt>
<pdfrwt beam="1">  1        2 0.34070013E+00 0.59624642E+04</pdfrwt>
<pdfrwt beam="2">  1       -2 0.61743688E+00 0.59624642E+04</pdfrwt>
<totfact> 0.15229954E-03</totfact>
</mgrwt>
</event>
<event>
 6    1  0.1817112E-005  0.3113259E+04  0.7818608E-02  0.8212108E-01
          2   -1    0    0  501    0  0.00000000000E+00  0.00000000000E+00  0.11849156308E+04  0.11849156308E+04  0.00000000000E+00 0. -1.
         -2   -1    0    0    0  501 -0.00000000000E+00 -0.00000000000E+00 -0.20449522936E+04  0.20449522936E+04  0.00000000000E+00 0.  1.
         23    2    1    2    0    0  0.97386702786E+03 -0.11347869365E+04  0.13056678652E+02  0.14982645166E+04  0.92020137525E+02 0.  0.
         11    1    3    3    0    0  0.23880540175E+03 -0.25029462913E+03 -0.31246736872E+02  0.34734965070E+03  0.00000000000E+00 0. -1.
        -11    1    3    3    0    0  0.73506162612E+03 -0.88449230735E+03  0.44303415524E+02  0.11509148659E+04  0.00000000000E+00 0.  1.
         22    1    1    2    0    0 -0.97386702786E+03  0.11347869365E+04 -0.87309334142E+03  0.17316034078E+04  0.00000000000E+00 0. -1.
<mgrwt>
<rscale>  0 0.31132593E+04</rscale>
<asrwt>0</asrwt>
<pdfrwt beam="1">  1        2 0.18229471E+00 0.31132593E+04</pdfrwt>
<pdfrwt beam="2">  1       -2 0.31460804E+00 0.31132593E+04</pdfrwt>
<totfact> 0.42392954E-01</totfact>
</mgrwt>
</event>
<event>
 6    1  0.1817112E-005  0.2759421E+04  0.7818608E-02  0.8315978E-01
         -1   -1    0    0    0  501 -0.00000000000E+00  0.00000000000E+00  0.61489022694E+03  0.61489022694E+03  0.00000000000E+00 0.  1.
          1   -1    0    0  501    0  0.00000000000E+00 -0.00000000000E+00 -0.30958380787E+04  0.30958380787E+04  0.00000000000E+00 0. -1.
         23    2    1    2    0    0 -0.83278473332E+03  0.95345333715E+03 -0.50909193812E+03  0.13674785489E+04  0.90660367004E+02 0.  0.
         11    1    3    3    0    0 -0.47662582124E+03  0.58635551240E+03 -0.34172416158E+03  0.82931318753E+03  0.00000000000E+00 0.  1.
        -11    1    3    3    0    0 -0.35615891208E+03  0.36709782475E+03 -0.16736777654E+03  0.53816536140E+03  0.00000000000E+00 0. -1.
         22    1    1    2    0    0  0.83278473332E+03 -0.95345333715E+03 -0.19718559137E+04  0.23432497567E+04  0.00000000000E+00 0. -1.
<mgrwt>
<rscale>  0 0.27594206E+04</rscale>
<asrwt>0</asrwt>
<pdfrwt beam="1">  1        1 0.47628277E+00 0.27594206E+04</pdfrwt>
<pdfrwt beam="2">  1       -1 0.94598498E-01 0.27594206E+04</pdfrwt>
<totfact> 0.47705554E-01</totfact>
</mgrwt>
</event>
<event>
 6    1  0.1817112E-005  0.3798884E+04  0.7818608E-02  0.8046394E-01
          2   -1    0    0  501    0  0.00000000000E+00  0.00000000000E+00  0.16607353295E+04  0.16607353295E+04  0.00000000000E+00 0. -1.
         -2   -1    0    0    0  501 -0.00000000000E+00 -0.00000000000E+00 -0.21724596042E+04  0.21724596042E+04  0.00000000000E+00 0.  1.
         23    2    1    2    0    0  0.88692696425E+03  0.12678523376E+04 -0.13658304813E+04  0.20658278519E+04  0.89793206343E+02 0.  0.
         13    1    3    3    0    0  0.12237991247E+03  0.17064987125E+03 -0.22796256271E+03  0.30994378769E+03  0.00000000000E+00 0. -1.
        -13    1    3    3    0    0  0.76454705179E+03  0.10972024664E+04 -0.11378679186E+04  0.17558840642E+04  0.00000000000E+00 0.  1.
         22    1    1    2    0    0 -0.88692696425E+03 -0.12678523376E+04  0.85410620664E+03  0.17673670819E+04  0.00000000000E+00 0. -1.
<mgrwt>
<rscale>  0 0.37988843E+04</rscale>
<asrwt>0</asrwt>
<pdfrwt beam="1">  1        2 0.25549775E+00 0.37988843E+04</pdfrwt>
<pdfrwt beam="2">  1       -2 0.33422455E+00 0.37988843E+04</pdfrwt>
<totfact> 0.16155413E-01</totfact>
</mgrwt>
</event>
<event>
 6    1  0.1817112E-005  0.3002090E+04  0.7818608E-02  0.8243134E-01
          2   -1    0    0  501    0  0.00000000000E+00  0.00000000000E+00  0.11794147465E+04  0.11794147465E+04  0.00000000000E+00 0. -1.
         -2   -1    0    0    0  501 -0.00000000000E+00 -0.00000000000E+00 -0.19103843481E+04  0.19103843481E+04  0.00000000000E+00 0.  1.
         23    2    1    2    0    0 -0.23248451839E+03  0.11423470381E+03 -0.18860931539E+04  0.19059878598E+04  0.91343952121E+02 0.  0.
         13    1    3    3    0    0 -0.13622495842E+03  0.10679237673E+03 -0.13753420832E+04  0.13861917966E+04  0.00000000000E+00 0. -1.
        -13    1    3    3    0    0 -0.96259559974E+02  0.74423270817E+01 -0.51075107069E+03  0.51979606321E+03  0.00000000000E+00 0.  1.
         22    1    1    2    0    0  0.23248451839E+03 -0.11423470381E+03  0.11551235522E+04  0.11838112348E+04  0.00000000000E+00 0. -1.
<mgrwt>
<rscale>  0 0.30020896E+04</rscale>
<asrwt>0</asrwt>
<pdfrwt beam="1">  1        2 0.18144842E+00 0.30020896E+04</pdfrwt>
<pdfrwt beam="2">  1       -2 0.29390528E+00 0.30020896E+04</pdfrwt>
<totfact> 0.57760370E-01</totfact>
</mgrwt>
</event>
<event>
 6    1  0.1817112E-005  0.2901835E+04  0.7818608E-02  0.8272332E-01
         -2   -1    0    0    0  501 -0.00000000000E+00  0.00000000000E+00  0.73658396638E+03  0.73658396638E+03  0.00000000000E+00 0.  1.
          2   -1    0    0  501    0  0.00000000000E+00 -0.00000000000E+00 -0.28580060444E+04  0.28580060444E+04  0.00000000000E+00 0. -1.
         23    2    1    2    0    0  0.32499953594E+02  0.13996132206E+03 -0.28484020102E+04  0.28535466649E+04  0.93215547061E+02 0.  0.
         13    1    3    3    0    0 -0.27621910060E+02  0.85928817961E+02 -0.14371953839E+04  0.14400268411E+04  0.00000000000E+00 0.  1.
        -13    1    3    3    0    0  0.60121863654E+02  0.54032504102E+02 -0.14112066263E+04  0.14135198238E+04  0.00000000000E+00 0. -1.
         22    1    1    2    0    0 -0.32499953594E+02 -0.13996132206E+03  0.72697993221E+03  0.74104334589E+03  0.00000000000E+00 0.  1.
<mgrwt>
<rscale>  0 0.29018349E+04</rscale>
<asrwt>0</asrwt>
<pdfrwt beam="1">  1        2 0.43969323E+00 0.29018349E+04</pdfrwt>
<pdfrwt beam="2">  1       -2 0.11332061E+00 0.29018349E+04</pdfrwt>
<totfact> 0.11239116E+00</totfact>
</mgrwt>
</event>
<event>
 6    1  0.1817112E-005  0.3475089E+04  0.7818608E-02  0.8119719E-01
          2   -1    0    0  501    0  0.00000000000E+00  0.00000000000E+00  0.23531464450E+04  0.23531464450E+04  0.00000000000E+00 0. -1.
         -2   -1    0    0    0  501 -0.00000000000E+00 -0.00000000000E+00 -0.12829886158E+04  0.12829886158E+04  0.00000000000E+00 0.  1.
         23    2    1    2    0    0  0.10159673717E+04 -0.13997309530E+04  0.69562818460E+03  0.18664715629E+04  0.91548252474E+02 0.  0.
         11    1    3    3    0    0  0.55618117767E+03 -0.74407612239E+03  0.32637492302E+03  0.98463565276E+03  0.00000000000E+00 0.  1.
        -11    1    3    3    0    0  0.45978619408E+03 -0.65565483060E+03  0.36925326158E+03  0.88183591010E+03  0.00000000000E+00 0. -1.
         22    1    1    2    0    0 -0.10159673717E+04  0.13997309530E+04  0.37452964458E+03  0.17696634979E+04  0.00000000000E+00 0.  1.
<mgrwt>
<rscale>  0 0.34750885E+04</rscale>
<asrwt>0</asrwt>
<pdfrwt beam="1">  1        2 0.36202253E+00 0.34750885E+04</pdfrwt>
<pdfrwt beam="2">  1       -2 0.19738286E+00 0.34750885E+04</pdfrwt>
<totfact> 0.48182178E-01</totfact>
</mgrwt>
</event>
<event>
 6    1  0.1817112E-005  0.4267725E+04  0.7818608E-02  0.7952613E-01
         -2   -1    0    0    0  501 -0.00000000000E+00  0.00000000000E+00  0.17672155760E+04  0.17672155760E+04  0.00000000000E+00 0. -1.
          2   -1    0    0  501    0  0.00000000000E+00 -0.00000000000E+00 -0.25765779288E+04  0.25765779288E+04  0.00000000000E+00 0.  1.
         23    2    1    2    0    0  0.45769506883E+03  0.12243982092E+04 -0.21203037229E+04  0.24925228529E+04  0.91359425406E+02 0.  0.
         13    1    3    3    0    0  0.20349768955E+03  0.51246440718E+03 -0.81187270167E+03  0.98141141322E+03  0.00000000000E+00 0.  1.
        -13    1    3    3    0    0  0.25419737928E+03  0.71193380199E+03 -0.13084310212E+04  0.15111114397E+04  0.00000000000E+00 0. -1.
         22    1    1    2    0    0 -0.45769506883E+03 -0.12243982092E+04  0.13109413701E+04  0.18512706519E+04  0.00000000000E+00 0. -1.
<mgrwt>
<rscale>  0 0.42677248E+04</rscale>
<asrwt>0</asrwt>
<pdfrwt beam="1">  1        2 0.39639660E+00 0.42677248E+04</pdfrwt>
<pdfrwt beam="2">  1       -2 0.27187932E+00 0.42677248E+04</pdfrwt>
<totfact> 0.11446496E-01</totfact>
</mgrwt>
</event>
<event>
 6    1  0.1817112E-005  0.5435697E+04  0.7818608E-02  0.7764600E-01
         -2   -1    0    0    0  501 -0.00000000000E+00  0.00000000000E+00  0.15805186873E+04  0.15805186873E+04  0.00000000000E+00 0. -1.
          2   -1    0    0  501    0  0.00000000000E+00 -0.00000000000E+00 -0.46735927839E+04  0.46735927839E+04  0.00000000000E+00 0.  1.
         23    2    1    2    0    0  0.85003554270E+03 -0.15379034297E+04  0.83731919965E+03  0.19488009311E+04  0.94943372903E+02 0.  0.
         13    1    3    3    0    0  0.28033996519E+03 -0.49859226086E+03  0.22392237321E+03  0.61426864473E+03  0.00000000000E+00 0.  1.
        -13    1    3    3    0    0  0.56969557751E+03 -0.10393111689E+04  0.61339682644E+03  0.13345322864E+04  0.00000000000E+00 0. -1.
         22    1    1    2    0    0 -0.85003554270E+03  0.15379034297E+04 -0.39303932962E+04  0.43053105400E+04  0.00000000000E+00 0.  1.
<mgrwt>
<rscale>  0 0.54356971E+04</rscale>
<asrwt>0</asrwt>
<pdfrwt beam="1">  1        2 0.71901427E+00 0.54356971E+04</pdfrwt>
<pdfrwt beam="2">  1       -2 0.24315672E+00 0.54356971E+04</pdfrwt>
<totfact> 0.40251891E-03</totfact>
</mgrwt>
</event>
<event>
 6    1  0.1817112E-005  0.1701141E+04  0.7818608E-02  0.8760714E-01
          4   -1    0    0  501    0  0.00000000000E+00  0.00000000000E+00  0.17272761396E+04  0.17272761396E+04  0.00000000000E+00 0. -1.
         -4   -1    0    0    0  501 -0.00000000000E+00 -0.00000000000E+00 -0.41885009890E+03  0.41885009890E+03  0.00000000000E+00 0.  1.
         23    2    1    2    0    0  0.35557993575E+03 -0.24384306088E+03  0.15774860736E+04  0.16379040131E+04  0.91491610775E+02 0.  0.
         11    1    3    3    0    0  0.14012214454E+03 -0.43949354713E+02  0.52418117251E+03  0.54436353918E+03  0.00000000000E+00 0.  1.
        -11    1    3    3    0    0  0.21545779121E+03 -0.19989370616E+03  0.10533049011E+04  0.10935404739E+04  0.00000000000E+00 0. -1.
         22    1    1    2    0    0 -0.35557993575E+03  0.24384306088E+03 -0.26906003289E+03  0.50822222536E+03  0.00000000000E+00 0.  1.
<mgrwt>
<rscale>  0 0.17011405E+04</rscale>
<asrwt>0</asrwt>
<pdfrwt beam="1">  1        4 0.26573479E+00 0.17011405E+04</pdfrwt>
<pdfrwt beam="2">  1       -4 0.64438478E-01 0.17011405E+04</pdfrwt>
<totfact> 0.21605370E-01</totfact>
</mgrwt>
</event>
<event>
 6    1  0.1817112E-005  0.1985333E+04  0.7818608E-02  0.8613509E-01
          2   -1    0    0  501    0  0.00000000000E+00  0.00000000000E+00  0.18225880152E+04  0.18225880152E+04  0.00000000000E+00 0. -1.
         -2   -1    0    0    0  501 -0.00000000000E+00 -0.00000000000E+00 -0.54065252379E+03  0.54065252379E+03  0.00000000000E+00 0.  1.
         23    2    1    2    0    0 -0.83229886746E+03 -0.29475055407E+03  0.10729491426E+03  0.89375771180E+03  0.87700369888E+02 0.  0.
         11    1    3    3    0    0 -0.34286334330E+03 -0.13664588656E+03  0.37982240096E+01  0.36910946479E+03  0.00000000000E+00 0.  1.
        -11    1    3    3    0    0 -0.48943552416E+03 -0.15810466751E+03  0.10349669025E+03  0.52464824701E+03  0.00000000000E+00 0. -1.
         22    1    1    2    0    0  0.83229886746E+03  0.29475055407E+03  0.11746405771E+04  0.14694828271E+04  0.00000000000E+00 0. -1.
<mgrwt>
<rscale>  0 0.19853330E+04</rscale>
<asrwt>0</asrwt>
<pdfrwt beam="1">  1        2 0.28039815E+00 0.19853330E+04</pdfrwt>
<pdfrwt beam="2">  1       -2 0.83177312E-01 0.19853330E+04</pdfrwt>
<totfact> 0.98696323E+00</totfact>
</mgrwt>
</event>
<event>
 6    1  0.1817112E-005  0.2641632E+04  0.7818608E-02  0.8354196E-01
         -2   -1    0    0    0  501 -0.00000000000E+00  0.00000000000E+00  0.44798158145E+03  0.44798158145E+03  0.00000000000E+00 0.  1.
          2   -1    0    0  501    0  0.00000000000E+00 -0.00000000000E+00 -0.38942569395E+04  0.38942569395E+04  0.00000000000E+00 0. -1.
         23    2    1    2    0    0  0.99384688371E+03  0.37309110111E+03 -0.43746380857E+03  0.11516467987E+04  0.89370952235E+02 0.  0.
         13    1    3    3    0    0  0.58621830219E+03  0.17297534946E+03 -0.25429544761E+03  0.66199587915E+03  0.00000000000E+00 0.  1.
        -13    1    3    3    0    0  0.40762858152E+03  0.20011575165E+03 -0.18316836096E+03  0.48965091952E+03  0.00000000000E+00 0. -1.
         22    1    1    2    0    0 -0.99384688371E+03 -0.37309110111E+03 -0.30088115494E+04  0.31905917222E+04  0.00000000000E+00 0. -1.
<mgrwt>
<rscale>  0 0.26416324E+04</rscale>
<asrwt>0</asrwt>
<pdfrwt beam="1">  1        2 0.59911645E+00 0.26416324E+04</pdfrwt>
<pdfrwt beam="2">  1       -2 0.68920244E-01 0.26416324E+04</pdfrwt>
<totfact> 0.70526371E-01</totfact>
</mgrwt>
</event>
<event>
 6    1  0.1817112E-005  0.2020312E+04  0.7818608E-02  0.8597183E-01
         -2   -1    0    0    0  501 -0.00000000000E+00  0.00000000000E+00  0.82856245398E+03  0.82856245398E+03  0.00000000000E+00 0.  1.
          2   -1    0    0  501    0  0.00000000000E+00 -0.00000000000E+00 -0.12315485525E+04  0.12315485525E+04  0.00000000000E+00 0. -1.
         23    2    1    2    0    0  0.51686017110E+03  0.85855500598E+03 -0.31358198597E+03  0.10540025481E+04  0.91250066834E+02 0.  0.
         11    1    3    3    0    0  0.25670866290E+03  0.44151172681E+03 -0.11268882488E+03  0.52300163840E+03  0.00000000000E+00 0.  1.
        -11    1    3    3    0    0  0.26015150820E+03  0.41704327917E+03 -0.20089316109E+03  0.53100090969E+03  0.00000000000E+00 0. -1.
         22    1    1    2    0    0 -0.51686017110E+03 -0.85855500598E+03 -0.89404112583E+02  0.10061084584E+04  0.00000000000E+00 0.  1.
<mgrwt>
<rscale>  0 0.20203117E+04</rscale>
<asrwt>0</asrwt>
<pdfrwt beam="1">  1        2 0.18946901E+00 0.20203117E+04</pdfrwt>
<pdfrwt beam="2">  1       -2 0.12747115E+00 0.20203117E+04</pdfrwt>
<totfact> 0.76799983E+00</totfact>
</mgrwt>
</event>
<event>
 6    1  0.1817112E-005  0.1494895E+04  0.7818608E-02  0.8887855E-01
          2   -1    0    0  501    0  0.00000000000E+00  0.00000000000E+00  0.10293082528E+04  0.10293082528E+04  0.00000000000E+00 0. -1.
         -2   -1    0    0    0  501 -0.00000000000E+00 -0.00000000000E+00 -0.54277034280E+03  0.54277034280E+03  0.00000000000E+00 0.  1.
         23    2    1    2    0    0 -0.12799055618E+03  0.72913263980E+03  0.32899209636E+03  0.81521885146E+03  0.91268764716E+02 0.  0.
         11    1    3    3    0    0 -0.55875334366E+02  0.45401068388E+03  0.16126874014E+03  0.48503129859E+03  0.00000000000E+00 0.  1.
        -11    1    3    3    0    0 -0.72115221817E+02  0.27512195592E+03  0.16772335622E+03  0.33018755287E+03  0.00000000000E+00 0. -1.
         22    1    1    2    0    0  0.12799055618E+03 -0.72913263980E+03  0.15754581362E+03  0.75685974413E+03  0.00000000000E+00 0. -1.
<mgrwt>
<rscale>  0 0.14948953E+04</rscale>
<asrwt>0</asrwt>
<pdfrwt beam="1">  1        2 0.15835512E+00 0.14948953E+04</pdfrwt>
<pdfrwt beam="2">  1       -2 0.83503130E-01 0.14948953E+04</pdfrwt>
<totfact> 0.29261744E+01</totfact>
</mgrwt>
</event>
<event>
 6    1  0.1817112E-005  0.3747274E+04  0.7818608E-02  0.8057565E-01
          2   -1    0    0  501    0  0.00000000000E+00  0.00000000000E+00  0.86299870820E+03  0.86299870820E+03  0.00000000000E+00 0. -1.
         -2   -1    0    0    0  501 -0.00000000000E+00 -0.00000000000E+00 -0.40678106670E+04  0.40678106670E+04  0.00000000000E+00 0.  1.
         23    2    1    2    0    0 -0.17181183950E+04  0.60965808986E+03 -0.10408225021E+04  0.21012397658E+04  0.91012453772E+02 0.  0.
         13    1    3    3    0    0 -0.34338308303E+03  0.14922817598E+03 -0.18387603345E+03  0.41712274680E+03  0.00000000000E+00 0. -1.
        -13    1    3    3    0    0 -0.13747353120E+04  0.46042991387E+03 -0.85694646866E+03  0.16841170190E+04  0.00000000000E+00 0.  1.
         22    1    1    2    0    0  0.17181183950E+04 -0.60965808986E+03 -0.21639894567E+04  0.28295696094E+04  0.00000000000E+00 0.  1.
<mgrwt>
<rscale>  0 0.37472739E+04</rscale>
<asrwt>0</asrwt>
<pdfrwt beam="1">  1        2 0.13276903E+00 0.37472739E+04</pdfrwt>
<pdfrwt beam="2">  1       -2 0.62581702E+00 0.37472739E+04</pdfrwt>
<totfact> 0.10135517E-02</totfact>
</mgrwt>
</event>
<event>
 6    1  0.1817112E-005  0.1384412E+04  0.7818608E-02  0.8965180E-01
         -2   -1    0    0    0  501 -0.00000000000E+00  0.00000000000E+00  0.29584441095E+03  0.29584441095E+03  0.00000000000E+00 0.  1.
          2   -1    0    0  501    0  0.00000000000E+00 -0.00000000000E+00 -0.16195983608E+04  0.16195983608E+04  0.00000000000E+00 0. -1.
         23    2    1    2    0    0 -0.24980648833E+03 -0.26964496923E+03 -0.14714782235E+04  0.15192936179E+04  0.88843931909E+02 0.  0.
         11    1    3    3    0    0 -0.77913245245E+01 -0.16465447208E+02 -0.24498686572E+02  0.30528696882E+02  0.00000000000E+00 0.  1.
        -11    1    3    3    0    0 -0.24201516381E+03 -0.25317952202E+03 -0.14469795369E+04  0.14887649211E+04  0.00000000000E+00 0. -1.
         22    1    1    2    0    0  0.24980648833E+03  0.26964496923E+03  0.14772427365E+03  0.39614915382E+03  0.00000000000E+00 0.  1.
<mgrwt>
<rscale>  0 0.13844120E+04</rscale>
<asrwt>0</asrwt>
<pdfrwt beam="1">  1        2 0.24916898E+00 0.13844120E+04</pdfrwt>
<pdfrwt beam="2">  1       -2 0.45514524E-01 0.13844120E+04</pdfrwt>
<totfact> 0.48491740E+01</totfact>
</mgrwt>
</event>
<event>
 6    1  0.1817112E-005  0.3484180E+04  0.7818608E-02  0.8117549E-01
          2   -1    0    0  501    0  0.00000000000E+00  0.00000000000E+00  0.35476632948E+04  0.35476632948E+04  0.00000000000E+00 0.  1.
         -2   -1    0    0    0  501 -0.00000000000E+00 -0.00000000000E+00 -0.85545819213E+03  0.85545819213E+03  0.00000000000E+00 0. -1.
         23    2    1    2    0    0 -0.60410524844E+03 -0.93267369648E+03  0.30406299131E+04  0.32385515131E+04  0.89231492408E+02 0.  0.
         13    1    3    3    0    0 -0.32670367811E+03 -0.58443418009E+03  0.18145654927E+04  0.19341526649E+04  0.00000000000E+00 0. -1.
        -13    1    3    3    0    0 -0.27740157033E+03 -0.34823951639E+03  0.12260644205E+04  0.13043988482E+04  0.00000000000E+00 0.  1.
         22    1    1    2    0    0  0.60410524844E+03  0.93267369648E+03 -0.34842481048E+03  0.11645699738E+04  0.00000000000E+00 0. -1.
<mgrwt>
<rscale>  0 0.34841800E+04</rscale>
<asrwt>0</asrwt>
<pdfrwt beam="1">  1        2 0.54579434E+00 0.34841800E+04</pdfrwt>
<pdfrwt beam="2">  1       -2 0.13160895E+00 0.34841800E+04</pdfrwt>
<totfact> 0.26016917E-01</totfact>
</mgrwt>
</event>
<event>
 6    1  0.1817112E-005  0.2048277E+04  0.7818608E-02  0.8584377E-01
          2   -1    0    0  501    0  0.00000000000E+00  0.00000000000E+00  0.24763703769E+04  0.24763703769E+04  0.00000000000E+00 0. -1.
         -2   -1    0    0    0  501 -0.00000000000E+00 -0.00000000000E+00 -0.42354699403E+03  0.42354699403E+03  0.00000000000E+00 0.  1.
         23    2    1    2    0    0  0.22984648598E+03 -0.26870273119E+03  0.23862321507E+04  0.24139215157E+04  0.88784245345E+02 0.  0.
         13    1    3    3    0    0  0.15964797024E+03 -0.13890924445E+03  0.11960771858E+04  0.12146538136E+04  0.00000000000E+00 0.  1.
        -13    1    3    3    0    0  0.70198515739E+02 -0.12979348674E+03  0.11901549649E+04  0.11992677021E+04  0.00000000000E+00 0. -1.
         22    1    1    2    0    0 -0.22984648598E+03  0.26870273119E+03 -0.33340876779E+03  0.48599585524E+03  0.00000000000E+00 0.  1.
<mgrwt>
<rscale>  0 0.20482766E+04</rscale>
<asrwt>0</asrwt>
<pdfrwt beam="1">  1        2 0.38098005E+00 0.20482766E+04</pdfrwt>
<pdfrwt beam="2">  1       -2 0.65161078E-01 0.20482766E+04</pdfrwt>
<totfact> 0.72224832E+00</totfact>
</mgrwt>
</event>
<event>
 6    1  0.1817112E-005  0.2538177E+04  0.7818608E-02  0.8389510E-01
         -2   -1    0    0    0  501 -0.00000000000E+00  0.00000000000E+00  0.58224617775E+03  0.58224617775E+03  0.00000000000E+00 0.  1.
          2   -1    0    0  501    0  0.00000000000E+00 -0.00000000000E+00 -0.27661584763E+04  0.27661584763E+04  0.00000000000E+00 0. -1.
         23    2    1    2    0    0 -0.10123391904E+04 -0.46909838868E+03 -0.30003629903E+03  0.11589132254E+04  0.90410997316E+02 0.  0.
         11    1    3    3    0    0 -0.35494897869E+03 -0.11794935742E+03 -0.94124776162E+02  0.38569457072E+03  0.00000000000E+00 0.  1.
        -11    1    3    3    0    0 -0.65739021174E+03 -0.35114903125E+03 -0.20591152287E+03  0.77321865464E+03  0.00000000000E+00 0. -1.
         22    1    1    2    0    0  0.10123391904E+04  0.46909838868E+03 -0.18838759995E+04  0.21894914287E+04  0.00000000000E+00 0. -1.
<mgrwt>
<rscale>  0 0.25381767E+04</rscale>
<asrwt>0</asrwt>
<pdfrwt beam="1">  1        2 0.42556284E+00 0.25381767E+04</pdfrwt>
<pdfrwt beam="2">  1       -2 0.89576335E-01 0.25381767E+04</pdfrwt>
<totfact> 0.23020604E+00</totfact>
</mgrwt>
</event>
<event>
 6    1  0.1817112E-005  0.2646609E+04  0.7818608E-02  0.8352539E-01
         -1   -1    0    0    0  501 -0.00000000000E+00  0.00000000000E+00  0.16742912982E+04  0.16742912982E+04  0.00000000000E+00 0.  1.
          1   -1    0    0  501    0  0.00000000000E+00 -0.00000000000E+00 -0.10458959267E+04  0.10458959267E+04  0.00000000000E+00 0. -1.
         23    2    1    2    0    0 -0.11791796851E+04  0.47611698766E+03  0.68499674243E+03  0.14472552429E+04  0.90416178437E+02 0.  0.
         13    1    3    3    0    0 -0.42134297511E+03  0.12380425182E+03  0.23555703801E+03  0.49834176386E+03  0.00000000000E+00 0.  1.
        -13    1    3    3    0    0 -0.75783670998E+03  0.35231273584E+03  0.44943970442E+03  0.94891347905E+03  0.00000000000E+00 0. -1.
         22    1    1    2    0    0  0.11791796851E+04 -0.47611698766E+03 -0.56601370861E+02  0.12729319820E+04  0.00000000000E+00 0. -1.
<mgrwt>
<rscale>  0 0.26466087E+04</rscale>
<asrwt>0</asrwt>
<pdfrwt beam="1">  1        1 0.16090707E+00 0.26466087E+04</pdfrwt>
<pdfrwt beam="2">  1       -1 0.25758328E+00 0.26466087E+04</pdfrwt>
<totfact> 0.76071231E-01</totfact>
</mgrwt>
</event>
<event>
 6    1  0.1817112E-005  0.1402251E+04  0.7818608E-02  0.8952191E-01
         -2   -1    0    0    0  501 -0.00000000000E+00  0.00000000000E+00  0.14282245938E+04  0.14282245938E+04  0.00000000000E+00 0.  1.
          2   -1    0    0  501    0  0.00000000000E+00 -0.00000000000E+00 -0.34418735069E+03  0.34418735069E+03  0.00000000000E+00 0. -1.
         23    2    1    2    0    0  0.37326592465E+03  0.55283334046E+03  0.80470755698E+03  0.10492403007E+04  0.91644986237E+02 0.  0.
         13    1    3    3    0    0  0.22448100614E+02  0.62416870406E+02  0.11808482660E+03  0.13543931927E+03  0.00000000000E+00 0.  1.
        -13    1    3    3    0    0  0.35081782403E+03  0.49041647005E+03  0.68662273038E+03  0.91380098141E+03  0.00000000000E+00 0. -1.
         22    1    1    2    0    0 -0.37326592465E+03 -0.55283334046E+03  0.27932968610E+03  0.72317164378E+03  0.00000000000E+00 0.  1.
<mgrwt>
<rscale>  0 0.14022508E+04</rscale>
<asrwt>0</asrwt>
<pdfrwt beam="1">  1        2 0.52951901E-01 0.14022508E+04</pdfrwt>
<pdfrwt beam="2">  1       -2 0.21972686E+00 0.14022508E+04</pdfrwt>
<totfact> 0.90889835E+00</totfact>
</mgrwt>
</event>
<event>
 6    1  0.1817112E-005  0.1795850E+04  0.7818608E-02  0.8708510E-01
         -2   -1    0    0    0  501 -0.00000000000E+00  0.00000000000E+00  0.30657414169E+03  0.30657414169E+03  0.00000000000E+00 0.  1.
          2   -1    0    0  501    0  0.00000000000E+00 -0.00000000000E+00 -0.26299315444E+04  0.26299315444E+04  0.00000000000E+00 0. -1.
         23    2    1    2    0    0  0.74753638139E+03  0.45369075093E+03 -0.14847753304E+04  0.17249505569E+04  0.79061388483E+02 0.  0.
         11    1    3    3    0    0  0.33291505756E+03  0.23950303108E+03 -0.64935348379E+03  0.76801958592E+03  0.00000000000E+00 0.  1.
        -11    1    3    3    0    0  0.41462132383E+03  0.21418771985E+03 -0.83542184656E+03  0.95693097098E+03  0.00000000000E+00 0. -1.
         22    1    1    2    0    0 -0.74753638139E+03 -0.45369075093E+03 -0.83858207233E+03  0.12115551292E+04  0.00000000000E+00 0.  1.
<mgrwt>
<rscale>  0 0.17958497E+04</rscale>
<asrwt>0</asrwt>
<pdfrwt beam="1">  1        2 0.40460484E+00 0.17958497E+04</pdfrwt>
<pdfrwt beam="2">  1       -2 0.47165254E-01 0.17958497E+04</pdfrwt>
<totfact> 0.11778725E+01</totfact>
</mgrwt>
</event>
<event>
 6    1  0.1817112E-005  0.2292197E+04  0.7818608E-02  0.8481004E-01
         -2   -1    0    0    0  501 -0.00000000000E+00  0.00000000000E+00  0.50175110795E+03  0.50175110795E+03  0.00000000000E+00 0.  1.
          2   -1    0    0  501    0  0.00000000000E+00 -0.00000000000E+00 -0.26179159724E+04  0.26179159724E+04  0.00000000000E+00 0. -1.
         23    2    1    2    0    0 -0.14503687118E+03 -0.82725260696E+03 -0.21174088421E+04  0.22797955918E+04  0.93086874570E+02 0.  0.
         11    1    3    3    0    0 -0.94533605171E+02 -0.39329754752E+03 -0.11237765757E+04  0.11943589727E+04  0.00000000000E+00 0.  1.
        -11    1    3    3    0    0 -0.50503266008E+02 -0.43395505944E+03 -0.99363226636E+03  0.10854366192E+04  0.00000000000E+00 0. -1.
         22    1    1    2    0    0  0.14503687118E+03  0.82725260696E+03  0.12439776625E+01  0.83987148851E+03  0.00000000000E+00 0.  1.
<mgrwt>
<rscale>  0 0.22921974E+04</rscale>
<asrwt>0</asrwt>
<pdfrwt beam="1">  1        2 0.40275630E+00 0.22921974E+04</pdfrwt>
<pdfrwt beam="2">  1       -2 0.77192479E-01 0.22921974E+04</pdfrwt>
<totfact> 0.40357790E+00</totfact>
</mgrwt>
</event>
<event>
 6    1  0.1817112E-005  0.7989327E+03  0.7818608E-02  0.9561563E-01
          2   -1    0    0  501    0  0.00000000000E+00  0.00000000000E+00  0.20568306845E+03  0.20568306845E+03  0.00000000000E+00 0. -1.
         -2   -1    0    0    0  501 -0.00000000000E+00 -0.00000000000E+00 -0.77582159489E+03  0.77582159489E+03  0.00000000000E+00 0.  1.
         23    2    1    2    0    0 -0.93175313299E+02  0.35965685594E+03 -0.12350463220E+03  0.40054293609E+03  0.84537308030E+02 0.  0.
         11    1    3    3    0    0  0.14925143040E+02  0.45477734158E+02 -0.65847325163E+01  0.48315038044E+02  0.00000000000E+00 0. -1.
        -11    1    3    3    0    0 -0.10810045634E+03  0.31417912178E+03 -0.11691989968E+03  0.35222789805E+03  0.00000000000E+00 0.  1.
         22    1    1    2    0    0  0.93175313299E+02 -0.35965685594E+03 -0.44663389425E+03  0.58096172724E+03  0.00000000000E+00 0.  1.
<mgrwt>
<rscale>  0 0.79893270E+03</rscale>
<asrwt>0</asrwt>
<pdfrwt beam="1">  1        2 0.31643550E-01 0.79893270E+03</pdfrwt>
<pdfrwt beam="2">  1       -2 0.11935717E+00 0.79893270E+03</pdfrwt>
<totfact> 0.90824192E+01</totfact>
</mgrwt>
</event>
<event>
 6    1  0.1817112E-005  0.2599793E+04  0.7818608E-02  0.8368272E-01
          2   -1    0    0  501    0  0.00000000000E+00  0.00000000000E+00  0.28036833545E+04  0.28036833545E+04  0.00000000000E+00 0. -1.
         -2   -1    0    0    0  501 -0.00000000000E+00 -0.00000000000E+00 -0.60268244536E+03  0.60268244536E+03  0.00000000000E+00 0.  1.
         23    2    1    2    0    0  0.82473103360E+03 -0.59727061732E+03  0.21569937360E+04  0.23871258383E+04  0.93991075867E+02 0.  0.
         13    1    3    3    0    0  0.44345927491E+03 -0.31287581480E+03  0.12572769119E+04  0.13694132456E+04  0.00000000000E+00 0.  1.
        -13    1    3    3    0    0  0.38127175869E+03 -0.28439480252E+03  0.89971682415E+03  0.10177125927E+04  0.00000000000E+00 0. -1.
         22    1    1    2    0    0 -0.82473103360E+03  0.59727061732E+03  0.44007173143E+02  0.10192399616E+04  0.00000000000E+00 0.  1.
<mgrwt>
<rscale>  0 0.25997929E+04</rscale>
<asrwt>0</asrwt>
<pdfrwt beam="1">  1        2 0.43133589E+00 0.25997929E+04</pdfrwt>
<pdfrwt beam="2">  1       -2 0.92720377E-01 0.25997929E+04</pdfrwt>
<totfact> 0.20068095E+00</totfact>
</mgrwt>
</event>
<event>
 6    1  0.1817112E-005  0.3113502E+04  0.7818608E-02  0.8212042E-01
         -2   -1    0    0    0  501 -0.00000000000E+00  0.00000000000E+00  0.11080158701E+04  0.11080158701E+04  0.00000000000E+00 0.  1.
          2   -1    0    0  501    0  0.00000000000E+00 -0.00000000000E+00 -0.21872188681E+04  0.21872188681E+04  0.00000000000E+00 0. -1.
         23    2    1    2    0    0 -0.10966956484E+04 -0.10031631180E+04 -0.10249805640E+04  0.18079494062E+04  0.94964794219E+02 0.  0.
         11    1    3    3    0    0 -0.47964829920E+03 -0.47913791924E+03 -0.42269316914E+03  0.79894001766E+03  0.00000000000E+00 0.  1.
        -11    1    3    3    0    0 -0.61704734918E+03 -0.52402519880E+03 -0.60228739485E+03  0.10090093885E+04  0.00000000000E+00 0. -1.
         22    1    1    2    0    0  0.10966956484E+04  0.10031631180E+04 -0.54222433974E+02  0.14872853320E+04  0.00000000000E+00 0.  1.
<mgrwt>
<rscale>  0 0.31135017E+04</rscale>
<asrwt>0</asrwt>
<pdfrwt beam="1">  1        2 0.33649521E+00 0.31135017E+04</pdfrwt>
<pdfrwt beam="2">  1       -2 0.17046398E+00 0.31135017E+04</pdfrwt>
<totfact> 0.94177689E-01</totfact>
</mgrwt>
</event>
<event>
 6    1  0.1817112E-005  0.2724788E+04  0.7818608E-02  0.8327007E-01
         -2   -1    0    0    0  501 -0.00000000000E+00  0.00000000000E+00  0.66956260291E+03  0.66956260291E+03  0.00000000000E+00 0.  1.
          2   -1    0    0  501    0  0.00000000000E+00 -0.00000000000E+00 -0.27721351952E+04  0.27721351952E+04  0.00000000000E+00 0. -1.
         23    2    1    2    0    0  0.12545270806E+04  0.32727962576E+03 -0.15747208874E+04  0.20418486734E+04  0.91923787796E+02 0.  0.
         11    1    3    3    0    0  0.29198198749E+03  0.44738515995E+02 -0.32187731677E+03  0.43687529443E+03  0.00000000000E+00 0. -1.
        -11    1    3    3    0    0  0.96254509312E+03  0.28254110976E+03 -0.12528435706E+04  0.16049733790E+04  0.00000000000E+00 0.  1.
         22    1    1    2    0    0 -0.12545270806E+04 -0.32727962576E+03 -0.52785170493E+03  0.13998491247E+04  0.00000000000E+00 0.  1.
<mgrwt>
<rscale>  0 0.27247885E+04</rscale>
<asrwt>0</asrwt>
<pdfrwt beam="1">  1        2 0.42648234E+00 0.27247885E+04</pdfrwt>
<pdfrwt beam="2">  1       -2 0.10300963E+00 0.27247885E+04</pdfrwt>
<totfact> 0.16191801E+00</totfact>
</mgrwt>
</event>
<event>
 6    1  0.1817112E-005  0.1972251E+04  0.7818608E-02  0.8619705E-01
          2   -1    0    0  501    0  0.00000000000E+00  0.00000000000E+00  0.93414074741E+03  0.93414074741E+03  0.00000000000E+00 0. -1.
         -2   -1    0    0    0  501 -0.00000000000E+00 -0.00000000000E+00 -0.10410033417E+04  0.10410033417E+04  0.00000000000E+00 0.  1.
         23    2    1    2    0    0  0.19360570505E+03 -0.89011834723E+03  0.31910381593E+03  0.96953918470E+03  0.91570433136E+02 0.  0.
         13    1    3    3    0    0  0.24429016042E+02 -0.29625270074E+03  0.12241619584E+03  0.32147809338E+03  0.00000000000E+00 0.  1.
        -13    1    3    3    0    0  0.16917668901E+03 -0.59386564649E+03  0.19668762010E+03  0.64806109132E+03  0.00000000000E+00 0. -1.
         22    1    1    2    0    0 -0.19360570505E+03  0.89011834723E+03 -0.42596641019E+03  0.10056049044E+04  0.00000000000E+00 0.  1.
<mgrwt>
<rscale>  0 0.19722511E+04</rscale>
<asrwt>0</asrwt>
<pdfrwt beam="1">  1        2 0.14371396E+00 0.19722511E+04</pdfrwt>
<pdfrwt beam="2">  1       -2 0.16015436E+00 0.19722511E+04</pdfrwt>
<totfact> 0.65051157E+00</totfact>
</mgrwt>
</event>
<event>
 6    1  0.1817112E-005  0.2798951E+04  0.7818608E-02  0.8303594E-01
         -2   -1    0    0    0  501 -0.00000000000E+00  0.00000000000E+00  0.96448636787E+03  0.96448636787E+03  0.00000000000E+00 0.  1.
          2   -1    0    0  501    0  0.00000000000E+00 -0.00000000000E+00 -0.20306471070E+04  0.20306471070E+04  0.00000000000E+00 0. -1.
         23    2    1    2    0    0 -0.11484652293E+03  0.13224576962E+04 -0.64122505731E+02  0.13319543795E+04  0.88919576963E+02 0.  0.
         11    1    3    3    0    0 -0.12989395761E+03  0.11855335484E+04 -0.54614150167E+02  0.11938781093E+04  0.00000000000E+00 0.  1.
        -11    1    3    3    0    0  0.15047434680E+02  0.13692414785E+03 -0.95083555633E+01  0.13807627016E+03  0.00000000000E+00 0. -1.
         22    1    1    2    0    0  0.11484652293E+03 -0.13224576962E+04 -0.10020382334E+04  0.16631790954E+04  0.00000000000E+00 0. -1.
<mgrwt>
<rscale>  0 0.27989508E+04</rscale>
<asrwt>0</asrwt>
<pdfrwt beam="1">  1        2 0.31240724E+00 0.27989508E+04</pdfrwt>
<pdfrwt beam="2">  1       -2 0.14838252E+00 0.27989508E+04</pdfrwt>
<totfact> 0.17238057E+00</totfact>
</mgrwt>
</event>
<event>
 6    1  0.1817112E-005  0.1729600E+04  0.7818608E-02  0.8744660E-01
         -2   -1    0    0    0  501 -0.00000000000E+00  0.00000000000E+00  0.82858789781E+03  0.82858789781E+03  0.00000000000E+00 0.  1.
          2   -1    0    0  501    0  0.00000000000E+00 -0.00000000000E+00 -0.90259458459E+03  0.90259458459E+03  0.00000000000E+00 0. -1.
         23    2    1    2    0    0  0.54111020353E+03  0.60270261641E+03  0.25924841681E+03  0.85533451599E+03  0.91305511603E+02 0.  0.
         13    1    3    3    0    0  0.47894444694E+03  0.54619801808E+03  0.20313768456E+03  0.75431092866E+03  0.00000000000E+00 0.  1.
        -13    1    3    3    0    0  0.62165756587E+02  0.56504598329E+02  0.56110732252E+02  0.10102358734E+03  0.00000000000E+00 0. -1.
         22    1    1    2    0    0 -0.54111020353E+03 -0.60270261641E+03 -0.33325510359E+03  0.87584796641E+03  0.00000000000E+00 0. -1.
<mgrwt>
<rscale>  0 0.17295999E+04</rscale>
<asrwt>0</asrwt>
<pdfrwt beam="1">  1        2 0.13886070E+00 0.17295999E+04</pdfrwt>
<pdfrwt beam="2">  1       -2 0.12747506E+00 0.17295999E+04</pdfrwt>
<totfact> 0.12652018E+01</totfact>
</mgrwt>
</event>
<event>
 6    1  0.1942803E-005  0.3803444E+04  0.7818608E-02  0.8045416E-01
         -2   -1    0    0    0  501 -0.00000000000E+00  0.00000000000E+00  0.20621220258E+04  0.20621220258E+04  0.00000000000E+00 0. -1.
          2   -1    0    0  501    0  0.00000000000E+00 -0.00000000000E+00 -0.17537985292E+04  0.17537985292E+04  0.00000000000E+00 0.  1.
         23    2    1    2    0    0 -0.70191065246E+03  0.72583971021E+03 -0.14611729842E+04  0.17786086877E+04  0.94342594258E+02 0.  0.
         11    1    3    3    0    0 -0.13440880269E+03  0.17100224039E+03 -0.26098516912E+03  0.33973629620E+03  0.00000000000E+00 0. -1.
        -11    1    3    3    0    0 -0.56750184977E+03  0.55483746983E+03 -0.12001878151E+04  0.14388723915E+04  0.00000000000E+00 0.  1.
         22    1    1    2    0    0  0.70191065246E+03 -0.72583971021E+03  0.17694964808E+04  0.20373118673E+04  0.00000000000E+00 0. -1.
<mgrwt>
<rscale>  0 0.38034440E+04</rscale>
<asrwt>0</asrwt>
<pdfrwt beam="1">  1        2 0.26981516E+00 0.38034440E+04</pdfrwt>
<pdfrwt beam="2">  1       -2 0.31724954E+00 0.38034440E+04</pdfrwt>
<totfact> 0.18268169E-01</totfact>
</mgrwt>
</event>
<event>
 6    1  0.1817112E-005  0.1481320E+04  0.7818608E-02  0.8896971E-01
          2   -1    0    0  501    0  0.00000000000E+00  0.00000000000E+00  0.13346019726E+04  0.13346019726E+04  0.00000000000E+00 0. -1.
         -2   -1    0    0    0  501 -0.00000000000E+00 -0.00000000000E+00 -0.41104192116E+03  0.41104192116E+03  0.00000000000E+00 0.  1.
         23    2    1    2    0    0 -0.19824314331E+03 -0.96478064954E+02  0.12919883576E+04  0.13162864930E+04  0.12152306286E+03 0.  0.
         13    1    3    3    0    0 -0.16563627068E+03 -0.11439896859E+03  0.88521380782E+03  0.90781384862E+03  0.00000000000E+00 0. -1.
        -13    1    3    3    0    0 -0.32606872630E+02  0.17920903639E+02  0.40677454973E+03  0.40847264442E+03  0.00000000000E+00 0.  1.
         22    1    1    2    0    0  0.19824314331E+03  0.96478064954E+02 -0.36842830607E+03  0.42935740077E+03  0.00000000000E+00 0.  1.
<mgrwt>
<rscale>  0 0.14813202E+04</rscale>
<asrwt>0</asrwt>
<pdfrwt beam="1">  1        2 0.20532338E+00 0.14813202E+04</pdfrwt>
<pdfrwt beam="2">  1       -2 0.63237220E-01 0.14813202E+04</pdfrwt>
<totfact> 0.35362005E+01</totfact>
</mgrwt>
</event>
<event>
 6    1  0.1817112E-005  0.1685891E+04  0.7818608E-02  0.8769452E-01
         -2   -1    0    0    0  501 -0.00000000000E+00  0.00000000000E+00  0.40342161714E+03  0.40342161714E+03  0.00000000000E+00 0.  1.
          2   -1    0    0  501    0  0.00000000000E+00 -0.00000000000E+00 -0.17613268749E+04  0.17613268749E+04  0.00000000000E+00 0. -1.
         23    2    1    2    0    0  0.45619584752E+03  0.20725241460E+02  0.22523609456E+03  0.51705897992E+03  0.89858241127E+02 0.  0.
         13    1    3    3    0    0  0.26551124779E+03  0.55206570869E+02  0.12004867062E+03  0.29657321438E+03  0.00000000000E+00 0. -1.
        -13    1    3    3    0    0  0.19068459973E+03 -0.34481329409E+02  0.10518742394E+03  0.22048576554E+03  0.00000000000E+00 0.  1.
         22    1    1    2    0    0 -0.45619584752E+03 -0.20725241460E+02 -0.15831413524E+04  0.16476895122E+04  0.00000000000E+00 0. -1.
<mgrwt>
<rscale>  0 0.16858913E+04</rscale>
<asrwt>0</asrwt>
<pdfrwt beam="1">  1        2 0.27097336E+00 0.16858913E+04</pdfrwt>
<pdfrwt beam="2">  1       -2 0.62064866E-01 0.16858913E+04</pdfrwt>
<totfact> 0.20814531E+01</totfact>
</mgrwt>
</event>
<event>
 6    1  0.1817112E-005  0.1563003E+04  0.7818608E-02  0.8843605E-01
         -1   -1    0    0    0  501 -0.00000000000E+00  0.00000000000E+00  0.98749987098E+03  0.98749987098E+03  0.00000000000E+00 0.  1.
          1   -1    0    0  501    0  0.00000000000E+00 -0.00000000000E+00 -0.61847562809E+03  0.61847562809E+03  0.00000000000E+00 0. -1.
         23    2    1    2    0    0 -0.30198519927E+03 -0.53978322413E+03  0.67155480262E+03  0.91743666268E+03  0.90239611497E+02 0.  0.
         11    1    3    3    0    0 -0.94623780045E+02 -0.14147778028E+03  0.24321543723E+03  0.29685580838E+03  0.00000000000E+00 0.  1.
        -11    1    3    3    0    0 -0.20736141923E+03 -0.39830544385E+03  0.42833936540E+03  0.62058085431E+03  0.00000000000E+00 0. -1.
         22    1    1    2    0    0  0.30198519927E+03  0.53978322413E+03 -0.30253055973E+03  0.68853883638E+03  0.00000000000E+00 0. -1.
<mgrwt>
<rscale>  0 0.15630030E+04</rscale>
<asrwt>0</asrwt>
<pdfrwt beam="1">  1        1 0.95150097E-01 0.15630030E+04</pdfrwt>
<pdfrwt beam="2">  1       -1 0.15192306E+00 0.15630030E+04</pdfrwt>
<totfact> 0.10631488E+01</totfact>
</mgrwt>
</event>
<event>
 6    1  0.1817112E-005  0.2537953E+04  0.7818608E-02  0.8389588E-01
          2   -1    0    0  501    0  0.00000000000E+00  0.00000000000E+00  0.42348854371E+04  0.42348854371E+04  0.00000000000E+00 0. -1.
         -2   -1    0    0    0  501 -0.00000000000E+00 -0.00000000000E+00 -0.38024680789E+03  0.38024680789E+03  0.00000000000E+00 0.  1.
         23    2    1    2    0    0 -0.83800633772E+03 -0.75569868054E+03  0.88094083493E+03  0.14345326648E+04  0.92152557553E+02 0.  0.
         13    1    3    3    0    0 -0.23539610530E+03 -0.16573570406E+03  0.25037500793E+03  0.38153282242E+03  0.00000000000E+00 0.  1.
        -13    1    3    3    0    0 -0.60261023241E+03 -0.58996297649E+03  0.63056582700E+03  0.10529998424E+04  0.00000000000E+00 0. -1.
         22    1    1    2    0    0  0.83800633772E+03  0.75569868054E+03  0.29736977942E+04  0.31805995802E+04  0.00000000000E+00 0. -1.
<mgrwt>
<rscale>  0 0.25379532E+04</rscale>
<asrwt>0</asrwt>
<pdfrwt beam="1">  1        2 0.65152080E+00 0.25379532E+04</pdfrwt>
<pdfrwt beam="2">  1       -2 0.58499512E-01 0.25379532E+04</pdfrwt>
<totfact> 0.52872615E-01</totfact>
</mgrwt>
</event>
<event>
 6    1  0.1817112E-005  0.2677025E+04  0.7818608E-02  0.8342498E-01
          2   -1    0    0  501    0  0.00000000000E+00  0.00000000000E+00  0.12592027348E+04  0.12592027348E+04  0.00000000000E+00 0. -1.
         -2   -1    0    0    0  501 -0.00000000000E+00 -0.00000000000E+00 -0.14228172433E+04  0.14228172433E+04  0.00000000000E+00 0.  1.
         23    2    1    2    0    0  0.31284087348E+03 -0.50280870794E+03 -0.12828192612E+04  0.14158030584E+04  0.90482231953E+02 0.  0.
         11    1    3    3    0    0  0.17822614507E+03 -0.22892248075E+03 -0.54622920871E+03  0.61849527842E+03  0.00000000000E+00 0.  1.
        -11    1    3    3    0    0  0.13461472841E+03 -0.27388622719E+03 -0.73659005254E+03  0.79730778000E+03  0.00000000000E+00 0. -1.
         22    1    1    2    0    0 -0.31284087348E+03  0.50280870794E+03  0.11192047528E+04  0.12662169196E+04  0.00000000000E+00 0. -1.
<mgrwt>
<rscale>  0 0.26770247E+04</rscale>
<asrwt>0</asrwt>
<pdfrwt beam="1">  1        2 0.19372350E+00 0.26770247E+04</pdfrwt>
<pdfrwt beam="2">  1       -2 0.21889496E+00 0.26770247E+04</pdfrwt>
<totfact> 0.15421684E+00</totfact>
</mgrwt>
</event>
<event>
 6    1  0.1817112E-005  0.5109882E+03  0.7818608E-02  0.1010950E+00
          3   -1    0    0  501    0  0.00000000000E+00  0.00000000000E+00  0.40088384083E+03  0.40088384083E+03  0.00000000000E+00 0. -1.
         -3   -1    0    0    0  501 -0.00000000000E+00 -0.00000000000E+00 -0.16283326216E+03  0.16283326216E+03  0.00000000000E+00 0.  1.
         23    2    1    2    0    0  0.14681541769E+03  0.14111020882E+03  0.27977001585E+03  0.35585327896E+03  0.83026721437E+02 0.  0.
         11    1    3    3    0    0  0.36102381050E+02  0.13829993081E+02  0.10968254413E+03  0.11629665134E+03  0.00000000000E+00 0.  1.
        -11    1    3    3    0    0  0.11071303664E+03  0.12728021574E+03  0.17008747172E+03  0.23955662762E+03  0.00000000000E+00 0. -1.
         22    1    1    2    0    0 -0.14681541769E+03 -0.14111020882E+03 -0.41719437184E+02  0.20786382403E+03  0.00000000000E+00 0. -1.
<mgrwt>
<rscale>  0 0.51098815E+03</rscale>
<asrwt>0</asrwt>
<pdfrwt beam="1">  1        3 0.61674436E-01 0.51098815E+03</pdfrwt>
<pdfrwt beam="2">  1       -3 0.25051271E-01 0.51098815E+03</pdfrwt>
<totfact> 0.10166791E+02</totfact>
</mgrwt>
</event>
<event>
 6    1  0.1817112E-005  0.1091964E+04  0.7818608E-02  0.9213060E-01
          2   -1    0    0  501    0  0.00000000000E+00  0.00000000000E+00  0.79184538753E+03  0.79184538753E+03  0.00000000000E+00 0.  1.
         -2   -1    0    0    0  501 -0.00000000000E+00 -0.00000000000E+00 -0.37645761914E+03  0.37645761914E+03  0.00000000000E+00 0. -1.
         23    2    1    2    0    0 -0.47683054888E+03 -0.13670577206E+02  0.48500151157E+03  0.68622383240E+03  0.90124496689E+02 0.  0.
         13    1    3    3    0    0 -0.27704893180E+03 -0.29610711786E+02  0.22615349704E+03  0.35885694794E+03  0.00000000000E+00 0.  1.
        -13    1    3    3    0    0 -0.19978161708E+03  0.15940134580E+02  0.25884801453E+03  0.32736688446E+03  0.00000000000E+00 0. -1.
         22    1    1    2    0    0  0.47683054888E+03  0.13670577206E+02 -0.69613743173E+02  0.48207917427E+03  0.00000000000E+00 0. -1.
<mgrwt>
<rscale>  0 0.10919638E+04</rscale>
<asrwt>0</asrwt>
<pdfrwt beam="1">  1        2 0.12182237E+00 0.10919638E+04</pdfrwt>
<pdfrwt beam="2">  1       -2 0.57916557E-01 0.10919638E+04</pdfrwt>
<totfact> 0.96818148E+01</totfact>
</mgrwt>
</event>
<event>
 6    1  0.1817112E-005  0.3539456E+04  0.7818608E-02  0.8104503E-01
         -2   -1    0    0    0  501 -0.00000000000E+00  0.00000000000E+00  0.10815683395E+04  0.10815683395E+04  0.00000000000E+00 0.  1.
          2   -1    0    0  501    0  0.00000000000E+00 -0.00000000000E+00 -0.28957360829E+04  0.28957360829E+04  0.00000000000E+00 0. -1.
         23    2    1    2    0    0 -0.16890016591E+04  0.11104186834E+03 -0.33174097787E+03  0.17272719746E+04  0.91430285919E+02 0.  0.
         11    1    3    3    0    0 -0.84199133947E+03  0.39097941885E+02 -0.12162048429E+03  0.85162762226E+03  0.00000000000E+00 0. -1.
        -11    1    3    3    0    0 -0.84701031959E+03  0.71943926457E+02 -0.21012049358E+03  0.87564435238E+03  0.00000000000E+00 0.  1.
         22    1    1    2    0    0  0.16890016591E+04 -0.11104186834E+03 -0.14824267655E+04  0.22500324478E+04  0.00000000000E+00 0. -1.
<mgrwt>
<rscale>  0 0.35394556E+04</rscale>
<asrwt>0</asrwt>
<pdfrwt beam="1">  1        2 0.44549786E+00 0.35394556E+04</pdfrwt>
<pdfrwt beam="2">  1       -2 0.16639513E+00 0.35394556E+04</pdfrwt>
<totfact> 0.37427764E-01</totfact>
</mgrwt>
</event>
<event>
 6    1  0.1817112E-005  0.2746525E+04  0.7818608E-02  0.8320065E-01
         -2   -1    0    0    0  501 -0.00000000000E+00  0.00000000000E+00  0.12413596862E+04  0.12413596862E+04  0.00000000000E+00 0.  1.
          2   -1    0    0  501    0  0.00000000000E+00 -0.00000000000E+00 -0.15191808123E+04  0.15191808123E+04  0.00000000000E+00 0. -1.
         23    2    1    2    0    0 -0.14531428875E+03  0.58771563606E+03 -0.13767533584E+04  0.15058780090E+04  0.75451022971E+02 0.  0.
         13    1    3    3    0    0 -0.18252472790E+02  0.22442917431E+03 -0.49791027041E+03  0.54645790728E+03  0.00000000000E+00 0.  1.
        -13    1    3    3    0    0 -0.12706181596E+03  0.36328646175E+03 -0.87884308795E+03  0.95942010173E+03  0.00000000000E+00 0. -1.
         22    1    1    2    0    0  0.14531428875E+03 -0.58771563606E+03  0.10989322323E+04  0.12546624895E+04  0.00000000000E+00 0.  1.
<mgrwt>
<rscale>  0 0.27465249E+04</rscale>
<asrwt>0</asrwt>
<pdfrwt beam="1">  1        2 0.23372013E+00 0.27465249E+04</pdfrwt>
<pdfrwt beam="2">  1       -2 0.19097841E+00 0.27465249E+04</pdfrwt>
<totfact> 0.16522799E+00</totfact>
</mgrwt>
</event>
<event>
 6    1  0.1817112E-005  0.2721921E+04  0.7818608E-02  0.8327927E-01
          2   -1    0    0  501    0  0.00000000000E+00  0.00000000000E+00  0.12570477229E+04  0.12570477229E+04  0.00000000000E+00 0. -1.
         -2   -1    0    0    0  501 -0.00000000000E+00 -0.00000000000E+00 -0.14734634515E+04  0.14734634515E+04  0.00000000000E+00 0.  1.
         23    2    1    2    0    0 -0.87579121456E+03  0.63054156378E+03  0.72113699302E+03  0.13009664844E+04  0.88782405845E+02 0.  0.
         13    1    3    3    0    0 -0.20581157537E+03  0.14977602317E+03  0.21668984536E+03  0.33428393733E+03  0.00000000000E+00 0.  1.
        -13    1    3    3    0    0 -0.66997963918E+03  0.48076554062E+03  0.50444714766E+03  0.96668254704E+03  0.00000000000E+00 0. -1.
         22    1    1    2    0    0  0.87579121456E+03 -0.63054156378E+03 -0.93755272161E+03  0.14295446901E+04  0.00000000000E+00 0.  1.
<mgrwt>
<rscale>  0 0.27219213E+04</rscale>
<asrwt>0</asrwt>
<pdfrwt beam="1">  1        2 0.19339196E+00 0.27219213E+04</pdfrwt>
<pdfrwt beam="2">  1       -2 0.22668668E+00 0.27219213E+04</pdfrwt>
<totfact> 0.13759885E+00</totfact>
</mgrwt>
</event>
<event>
 6    1  0.1817112E-005  0.3506743E+04  0.7818608E-02  0.8112194E-01
          2   -1    0    0  501    0  0.00000000000E+00  0.00000000000E+00  0.26398517395E+04  0.26398517395E+04  0.00000000000E+00 0. -1.
         -2   -1    0    0    0  501 -0.00000000000E+00 -0.00000000000E+00 -0.11645775270E+04  0.11645775270E+04  0.00000000000E+00 0.  1.
         23    2    1    2    0    0  0.29979343841E+03  0.11254519470E+04  0.21583460978E+04  0.24542050662E+04  0.90257623464E+02 0.  0.
         11    1    3    3    0    0  0.16347487247E+03  0.46937164209E+03  0.97139490782E+03  0.10911653584E+04  0.00000000000E+00 0. -1.
        -11    1    3    3    0    0  0.13631856594E+03  0.65608030489E+03  0.11869511900E+04  0.13630397079E+04  0.00000000000E+00 0.  1.
         22    1    1    2    0    0 -0.29979343841E+03 -0.11254519470E+04 -0.68307188532E+03  0.13502242003E+04  0.00000000000E+00 0.  1.
<mgrwt>
<rscale>  0 0.35067432E+04</rscale>
<asrwt>0</asrwt>
<pdfrwt beam="1">  1        2 0.40613104E+00 0.35067432E+04</pdfrwt>
<pdfrwt beam="2">  1       -2 0.17916577E+00 0.35067432E+04</pdfrwt>
<totfact> 0.43497814E-01</totfact>
</mgrwt>
</event>
<event>
 6    1  0.1817112E-005  0.3543430E+04  0.7818608E-02  0.8103574E-01
          2   -1    0    0  501    0  0.00000000000E+00  0.00000000000E+00  0.21817608299E+04  0.21817608299E+04  0.00000000000E+00 0. -1.
         -2   -1    0    0    0  501 -0.00000000000E+00 -0.00000000000E+00 -0.14387344429E+04  0.14387344429E+04  0.00000000000E+00 0.  1.
         23    2    1    2    0    0  0.10265088153E+04 -0.14366611538E+04  0.50493614779E+03  0.18388099525E+04  0.92444086670E+02 0.  0.
         13    1    3    3    0    0  0.15629926900E+03 -0.20982305527E+03  0.10906219112E+03  0.28346029272E+03  0.00000000000E+00 0. -1.
        -13    1    3    3    0    0  0.87020954633E+03 -0.12268380985E+04  0.39587395666E+03  0.15553496598E+04  0.00000000000E+00 0.  1.
         22    1    1    2    0    0 -0.10265088153E+04  0.14366611538E+04  0.23809023921E+03  0.17816853204E+04  0.00000000000E+00 0.  1.
<mgrwt>
<rscale>  0 0.35434302E+04</rscale>
<asrwt>0</asrwt>
<pdfrwt beam="1">  1        2 0.33565551E+00 0.35434302E+04</pdfrwt>
<pdfrwt beam="2">  1       -2 0.22134376E+00 0.35434302E+04</pdfrwt>
<totfact> 0.41959714E-01</totfact>
</mgrwt>
</event>
<event>
 6    1  0.1817112E-005  0.4286290E+04  0.7818608E-02  0.7949158E-01
          2   -1    0    0  501    0  0.00000000000E+00  0.00000000000E+00  0.39621526067E+04  0.39621526067E+04  0.00000000000E+00 0. -1.
         -2   -1    0    0    0  501 -0.00000000000E+00 -0.00000000000E+00 -0.11592362264E+04  0.11592362264E+04  0.00000000000E+00 0.  1.
         23    2    1    2    0    0  0.12029262683E+04  0.17548069558E+04  0.17008791325E+04  0.27253785754E+04  0.91211277409E+02 0.  0.
         13    1    3    3    0    0  0.49159332377E+03  0.64210630803E+03  0.62979693634E+03  0.10249920428E+04  0.00000000000E+00 0. -1.
        -13    1    3    3    0    0  0.71133294456E+03  0.11127006477E+04  0.10710821961E+04  0.17003865326E+04  0.00000000000E+00 0.  1.
         22    1    1    2    0    0 -0.12029262683E+04 -0.17548069558E+04  0.11020372479E+04  0.23960102576E+04  0.00000000000E+00 0.  1.
<mgrwt>
<rscale>  0 0.42862902E+04</rscale>
<asrwt>0</asrwt>
<pdfrwt beam="1">  1        2 0.60956193E+00 0.42862902E+04</pdfrwt>
<pdfrwt beam="2">  1       -2 0.17834404E+00 0.42862902E+04</pdfrwt>
<totfact> 0.52474172E-02</totfact>
</mgrwt>
</event>
<event>
 6    1  0.1817112E-005  0.3259270E+04  0.7818608E-02  0.8173337E-01
          2   -1    0    0  501    0  0.00000000000E+00  0.00000000000E+00  0.11035208971E+04  0.11035208971E+04  0.00000000000E+00 0. -1.
         -2   -1    0    0    0  501 -0.00000000000E+00 -0.00000000000E+00 -0.24065795312E+04  0.24065795312E+04  0.00000000000E+00 0.  1.
         23    2    1    2    0    0  0.11695630191E+04 -0.68476441701E+02  0.56587320213E+03  0.13043187330E+04  0.92022809786E+02 0.  0.
         11    1    3    3    0    0  0.65501362529E+03 -0.84082323206E+02  0.31769785997E+03  0.73283328023E+03  0.00000000000E+00 0.  1.
        -11    1    3    3    0    0  0.51454939386E+03  0.15605881505E+02  0.24817534216E+03  0.57148545275E+03  0.00000000000E+00 0. -1.
         22    1    1    2    0    0 -0.11695630191E+04  0.68476441701E+02 -0.18689318363E+04  0.22057816953E+04  0.00000000000E+00 0. -1.
<mgrwt>
<rscale>  0 0.32592703E+04</rscale>
<asrwt>0</asrwt>
<pdfrwt beam="1">  1        2 0.16977245E+00 0.32592703E+04</pdfrwt>
<pdfrwt beam="2">  1       -2 0.37024300E+00 0.32592703E+04</pdfrwt>
<totfact> 0.21001518E-01</totfact>
</mgrwt>
</event>
<event>
 6    1  0.1817112E-005  0.4043436E+03  0.7818608E-02  0.1042286E+00
         -2   -1    0    0    0  501 -0.00000000000E+00  0.00000000000E+00  0.15307606162E+03  0.15307606162E+03  0.00000000000E+00 0. -1.
          2   -1    0    0  501    0  0.00000000000E+00 -0.00000000000E+00 -0.26701387672E+03  0.26701387672E+03  0.00000000000E+00 0.  1.
         23    2    1    2    0    0 -0.14797439543E+03  0.12288477421E+03 -0.49792933486E+02  0.21732984544E+03  0.88067224639E+02 0.  0.
         11    1    3    3    0    0 -0.11852990469E+03  0.80180398212E+02  0.32506823158E+01  0.14313909842E+03  0.00000000000E+00 0. -1.
        -11    1    3    3    0    0 -0.29444490746E+02  0.42704375999E+02 -0.53043615802E+02  0.74190747011E+02  0.00000000000E+00 0.  1.
         22    1    1    2    0    0  0.14797439543E+03 -0.12288477421E+03 -0.64144881620E+02  0.20276009290E+03  0.00000000000E+00 0. -1.
<mgrwt>
<rscale>  0 0.40434358E+03</rscale>
<asrwt>0</asrwt>
<pdfrwt beam="1">  1        2 0.41079057E-01 0.40434358E+03</pdfrwt>
<pdfrwt beam="2">  1       -2 0.23550164E-01 0.40434358E+03</pdfrwt>
<totfact> 0.19748081E+03</totfact>
</mgrwt>
</event>
<event>
 6    1  0.1817112E-005  0.3456894E+04  0.7818608E-02  0.8124082E-01
          2   -1    0    0  501    0  0.00000000000E+00  0.00000000000E+00  0.12801270012E+04  0.12801270012E+04  0.00000000000E+00 0. -1.
         -2   -1    0    0    0  501 -0.00000000000E+00 -0.00000000000E+00 -0.23337749383E+04  0.23337749383E+04  0.00000000000E+00 0.  1.
         23    2    1    2    0    0 -0.33820400298E+03 -0.16646587445E+04 -0.85447521392E+03  0.19035977394E+04  0.89920958950E+02 0.  0.
         13    1    3    3    0    0 -0.22855681368E+03 -0.90284187675E+03 -0.47552999993E+03  0.10457009383E+04  0.00000000000E+00 0. -1.
        -13    1    3    3    0    0 -0.10964718930E+03 -0.76181686773E+03 -0.37894521400E+03  0.85789680107E+03  0.00000000000E+00 0.  1.
         22    1    1    2    0    0  0.33820400298E+03  0.16646587445E+04 -0.19917272315E+03  0.17103042001E+04  0.00000000000E+00 0. -1.
<mgrwt>
<rscale>  0 0.34568936E+04</rscale>
<asrwt>0</asrwt>
<pdfrwt beam="1">  1        2 0.19694262E+00 0.34568936E+04</pdfrwt>
<pdfrwt beam="2">  1       -2 0.35904230E+00 0.34568936E+04</pdfrwt>
<totfact> 0.19085104E-01</totfact>
</mgrwt>
</event>
<event>
 6    1  0.1817112E-005  0.1223134E+04  0.7818608E-02  0.9092845E-01
         -2   -1    0    0    0  501 -0.00000000000E+00  0.00000000000E+00  0.77370551294E+03  0.77370551294E+03  0.00000000000E+00 0. -1.
          2   -1    0    0  501    0  0.00000000000E+00 -0.00000000000E+00 -0.48340656823E+03  0.48340656823E+03  0.00000000000E+00 0.  1.
         23    2    1    2    0    0 -0.60754579462E+03 -0.20300614334E+02  0.17759225358E+03  0.63886714126E+03  0.84191496820E+02 0.  0.
         13    1    3    3    0    0 -0.10091949959E+03  0.27388042165E+02  0.23438629473E+02  0.10716445121E+03  0.00000000000E+00 0. -1.
        -13    1    3    3    0    0 -0.50662629503E+03 -0.47688656499E+02  0.15415362410E+03  0.53170269004E+03  0.00000000000E+00 0.  1.
         22    1    1    2    0    0  0.60754579462E+03  0.20300614334E+02  0.11270669113E+03  0.61824493992E+03  0.00000000000E+00 0.  1.
<mgrwt>
<rscale>  0 0.12231342E+04</rscale>
<asrwt>0</asrwt>
<pdfrwt beam="1">  1        2 0.74370241E-01 0.12231342E+04</pdfrwt>
<pdfrwt beam="2">  1       -2 0.11903162E+00 0.12231342E+04</pdfrwt>
<totfact> 0.34176549E+01</totfact>
</mgrwt>
</event>
<event>
 6    1  0.1817112E-005  0.5249237E+04  0.7818608E-02  0.7791169E-01
         -2   -1    0    0    0  501 -0.00000000000E+00  0.00000000000E+00  0.41144290146E+04  0.41144290146E+04  0.00000000000E+00 0.  1.
          2   -1    0    0  501    0  0.00000000000E+00 -0.00000000000E+00 -0.16742594839E+04  0.16742594839E+04  0.00000000000E+00 0. -1.
         23    2    1    2    0    0  0.76070126373E+03 -0.73534153272E+03  0.38682402605E+04  0.40113929149E+04  0.92719048611E+02 0.  0.
         11    1    3    3    0    0  0.15319463791E+03 -0.19666128969E+03  0.84245692615E+03  0.87856583838E+03  0.00000000000E+00 0.  1.
        -11    1    3    3    0    0  0.60750662582E+03 -0.53868024302E+03  0.30257833344E+04  0.31328270765E+04  0.00000000000E+00 0. -1.
         22    1    1    2    0    0 -0.76070126373E+03  0.73534153272E+03 -0.14280707298E+04  0.17772955837E+04  0.00000000000E+00 0. -1.
<mgrwt>
<rscale>  0 0.52492368E+04</rscale>
<asrwt>0</asrwt>
<pdfrwt beam="1">  1        2 0.25757838E+00 0.52492368E+04</pdfrwt>
<pdfrwt beam="2">  1       -2 0.63298908E+00 0.52492368E+04</pdfrwt>
<totfact> 0.28145663E-03</totfact>
</mgrwt>
</event>
<event>
 6    1  0.1817112E-005  0.2062555E+04  0.7818608E-02  0.8577920E-01
          2   -1    0    0  501    0  0.00000000000E+00  0.00000000000E+00  0.20824401730E+04  0.20824401730E+04  0.00000000000E+00 0. -1.
         -2   -1    0    0    0  501 -0.00000000000E+00 -0.00000000000E+00 -0.51071517478E+03  0.51071517478E+03  0.00000000000E+00 0.  1.
         23    2    1    2    0    0  0.94391970123E+03  0.21221864523E+03  0.34657452227E+03  0.10320612300E+04  0.94949077493E+02 0.  0.
         11    1    3    3    0    0  0.72274959074E+03  0.12134555181E+03  0.25339332383E+03  0.77543529093E+03  0.00000000000E+00 0. -1.
        -11    1    3    3    0    0  0.22117011049E+03  0.90873093424E+02  0.93181198441E+02  0.25662593911E+03  0.00000000000E+00 0.  1.
         22    1    1    2    0    0 -0.94391970123E+03 -0.21221864523E+03  0.12251504760E+04  0.15610941178E+04  0.00000000000E+00 0.  1.
<mgrwt>
<rscale>  0 0.20625555E+04</rscale>
<asrwt>0</asrwt>
<pdfrwt beam="1">  1        2 0.32037541E+00 0.20625555E+04</pdfrwt>
<pdfrwt beam="2">  1       -2 0.78571566E-01 0.20625555E+04</pdfrwt>
<totfact> 0.79960231E+00</totfact>
</mgrwt>
</event>
<event>
 6    1  0.1817112E-005  0.4563435E+04  0.7818608E-02  0.7899624E-01
         -1   -1    0    0    0  501 -0.00000000000E+00  0.00000000000E+00  0.16988629407E+04  0.16988629407E+04  0.00000000000E+00 0.  1.
          1   -1    0    0  501    0  0.00000000000E+00 -0.00000000000E+00 -0.30645410034E+04  0.30645410034E+04  0.00000000000E+00 0. -1.
         23    2    1    2    0    0 -0.20294546312E+04 -0.80117145884E+03  0.10874354190E+02  0.21835864383E+04  0.85846815323E+02 0.  0.
         13    1    3    3    0    0 -0.10614785255E+04 -0.44871037014E+03 -0.27047549667E+02  0.11527398779E+04  0.00000000000E+00 0. -1.
        -13    1    3    3    0    0 -0.96797610570E+03 -0.35246108870E+03  0.37921903857E+02  0.10308465604E+04  0.00000000000E+00 0.  1.
         22    1    1    2    0    0  0.20294546312E+04  0.80117145884E+03 -0.13765524169E+04  0.25798175057E+04  0.00000000000E+00 0.  1.
<mgrwt>
<rscale>  0 0.45634352E+04</rscale>
<asrwt>0</asrwt>
<pdfrwt beam="1">  1        1 0.47146784E+00 0.45634352E+04</pdfrwt>
<pdfrwt beam="2">  1       -1 0.26136353E+00 0.45634352E+04</pdfrwt>
<totfact> 0.23549961E-02</totfact>
</mgrwt>
</event>
<event>
 6    1  0.1817112E-005  0.9992306E+03  0.7818608E-02  0.9309389E-01
          2   -1    0    0  501    0  0.00000000000E+00  0.00000000000E+00  0.57550392806E+03  0.57550392806E+03  0.00000000000E+00 0. -1.
         -2   -1    0    0    0  501 -0.00000000000E+00 -0.00000000000E+00 -0.43373373092E+03  0.43373373092E+03  0.00000000000E+00 0.  1.
         23    2    1    2    0    0 -0.56293747649E+02  0.47693048257E+03  0.19625236445E+03  0.52591584301E+03  0.86260142336E+02 0.  0.
         13    1    3    3    0    0 -0.31435156145E+02  0.32525102077E+03  0.89578607373E+02  0.33882255305E+03  0.00000000000E+00 0. -1.
        -13    1    3    3    0    0 -0.24858591504E+02  0.15167946180E+03  0.10667375707E+03  0.18709328997E+03  0.00000000000E+00 0.  1.
         22    1    1    2    0    0  0.56293747649E+02 -0.47693048257E+03 -0.54482167307E+02  0.48332181596E+03  0.00000000000E+00 0.  1.
<mgrwt>
<rscale>  0 0.99923064E+03</rscale>
<asrwt>0</asrwt>
<pdfrwt beam="1">  1        2 0.88539065E-01 0.99923064E+03</pdfrwt>
<pdfrwt beam="2">  1       -2 0.66728267E-01 0.99923064E+03</pdfrwt>
<totfact> 0.10749921E+02</totfact>
</mgrwt>
</event>
<event>
 6    1  0.1817112E-005  0.3097345E+04  0.7818608E-02  0.8216467E-01
          2   -1    0    0  501    0  0.00000000000E+00  0.00000000000E+00  0.20713450446E+04  0.20713450446E+04  0.00000000000E+00 0. -1.
         -2   -1    0    0    0  501 -0.00000000000E+00 -0.00000000000E+00 -0.11578881861E+04  0.11578881861E+04  0.00000000000E+00 0.  1.
         23    2    1    2    0    0 -0.18551153325E+03 -0.49013534838E+03  0.19748822478E+04  0.20454802810E+04  0.95825352923E+02 0.  0.
         13    1    3    3    0    0 -0.14993576176E+03 -0.41868856750E+03  0.17837266494E+04  0.18383312022E+04  0.00000000000E+00 0. -1.
        -13    1    3    3    0    0 -0.35575771493E+02 -0.71446780871E+02  0.19115559842E+03  0.20714907873E+03  0.00000000000E+00 0.  1.
         22    1    1    2    0    0  0.18551153325E+03  0.49013534838E+03 -0.10614253894E+04  0.11837529497E+04  0.00000000000E+00 0.  1.
<mgrwt>
<rscale>  0 0.30973446E+04</rscale>
<asrwt>0</asrwt>
<pdfrwt beam="1">  1        2 0.31866847E+00 0.30973446E+04</pdfrwt>
<pdfrwt beam="2">  1       -2 0.17813664E+00 0.30973446E+04</pdfrwt>
<totfact> 0.96718005E-01</totfact>
</mgrwt>
</event>
<event>
 6    1  0.1817112E-005  0.2338253E+04  0.7818608E-02  0.8462989E-01
         -2   -1    0    0    0  501 -0.00000000000E+00  0.00000000000E+00  0.73689005822E+03  0.73689005822E+03  0.00000000000E+00 0.  1.
          2   -1    0    0  501    0  0.00000000000E+00 -0.00000000000E+00 -0.18548996934E+04  0.18548996934E+04  0.00000000000E+00 0. -1.
         23    2    1    2    0    0 -0.38315424325E+03  0.51839396556E+02 -0.17807662361E+04  0.18244952780E+04  0.90333464307E+02 0.  0.
         13    1    3    3    0    0 -0.74341906249E+02  0.19891826154E+02 -0.54106900647E+03  0.54651447697E+03  0.00000000000E+00 0.  1.
        -13    1    3    3    0    0 -0.30881233700E+03  0.31947570401E+02 -0.12396972296E+04  0.12779808010E+04  0.00000000000E+00 0. -1.
         22    1    1    2    0    0  0.38315424325E+03 -0.51839396556E+02  0.66275660091E+03  0.76729447359E+03  0.00000000000E+00 0.  1.
<mgrwt>
<rscale>  0 0.23382533E+04</rscale>
<asrwt>0</asrwt>
<pdfrwt beam="1">  1        2 0.28536918E+00 0.23382533E+04</pdfrwt>
<pdfrwt beam="2">  1       -2 0.11336770E+00 0.23382533E+04</pdfrwt>
<totfact> 0.44391687E+00</totfact>
</mgrwt>
</event>
<event>
 6    1  0.1817112E-005  0.9905332E+03  0.7818608E-02  0.9318989E-01
         -2   -1    0    0    0  501 -0.00000000000E+00  0.00000000000E+00  0.24090035844E+03  0.24090035844E+03  0.00000000000E+00 0.  1.
          2   -1    0    0  501    0  0.00000000000E+00 -0.00000000000E+00 -0.10182175844E+04  0.10182175844E+04  0.00000000000E+00 0. -1.
         23    2    1    2    0    0 -0.12484721867E+03 -0.46701394020E+03 -0.50045905593E+03  0.70203689431E+03  0.93314982509E+02 0.  0.
         13    1    3    3    0    0 -0.47561506924E+02 -0.15131159166E+03 -0.22898449106E+03  0.27855195540E+03  0.00000000000E+00 0.  1.
        -13    1    3    3    0    0 -0.77285711742E+02 -0.31570234853E+03 -0.27147456487E+03  0.42348493891E+03  0.00000000000E+00 0. -1.
         22    1    1    2    0    0  0.12484721867E+03  0.46701394020E+03 -0.27685817006E+03  0.55708104857E+03  0.00000000000E+00 0. -1.
<mgrwt>
<rscale>  0 0.99053315E+03</rscale>
<asrwt>0</asrwt>
<pdfrwt beam="1">  1        2 0.15664886E+00 0.99053315E+03</pdfrwt>
<pdfrwt beam="2">  1       -2 0.37061593E-01 0.99053315E+03</pdfrwt>
<totfact> 0.16786776E+02</totfact>
</mgrwt>
</event>
<event>
 6    1  0.1817112E-005  0.8629477E+03  0.7818608E-02  0.9473122E-01
         -2   -1    0    0    0  501 -0.00000000000E+00  0.00000000000E+00  0.33500371355E+03  0.33500371355E+03  0.00000000000E+00 0. -1.
          2   -1    0    0  501    0  0.00000000000E+00 -0.00000000000E+00 -0.55572425055E+03  0.55572425055E+03  0.00000000000E+00 0.  1.
         23    2    1    2    0    0 -0.20992346521E+03  0.45206340499E+02  0.26867191182E+03  0.35629701118E+03  0.93013383519E+02 0.  0.
         13    1    3    3    0    0 -0.93491644347E+02  0.53205588670E+02  0.78493615500E+02  0.13316444684E+03  0.00000000000E+00 0.  1.
        -13    1    3    3    0    0 -0.11643182086E+03 -0.79992481713E+01  0.19017829632E+03  0.22313256434E+03  0.00000000000E+00 0. -1.
         22    1    1    2    0    0  0.20992346521E+03 -0.45206340499E+02 -0.48939244882E+03  0.53443095291E+03  0.00000000000E+00 0.  1.
<mgrwt>
<rscale>  0 0.86294771E+03</rscale>
<asrwt>0</asrwt>
<pdfrwt beam="1">  1        2 0.85496038E-01 0.86294771E+03</pdfrwt>
<pdfrwt beam="2">  1       -2 0.51539033E-01 0.86294771E+03</pdfrwt>
<totfact> 0.19435156E+02</totfact>
</mgrwt>
</event>
<event>
 6    1  0.1817112E-005  0.2240285E+04  0.7818608E-02  0.8501845E-01
         -2   -1    0    0    0  501 -0.00000000000E+00  0.00000000000E+00  0.63190849479E+03  0.63190849479E+03  0.00000000000E+00 0.  1.
          2   -1    0    0  501    0  0.00000000000E+00 -0.00000000000E+00 -0.19856035861E+04  0.19856035861E+04  0.00000000000E+00 0. -1.
         23    2    1    2    0    0  0.81430658094E+03 -0.49202371425E+03 -0.13646284212E+04  0.16660384444E+04  0.91053979521E+02 0.  0.
         13    1    3    3    0    0  0.56830329212E+03 -0.37933801642E+03 -0.10236792542E+04  0.12307660939E+04  0.00000000000E+00 0.  1.
        -13    1    3    3    0    0  0.24600328882E+03 -0.11268569783E+03 -0.34094916702E+03  0.43527235049E+03  0.00000000000E+00 0. -1.
         22    1    1    2    0    0 -0.81430658094E+03  0.49202371425E+03  0.10933329924E+02  0.95147363644E+03  0.00000000000E+00 0.  1.
<mgrwt>
<rscale>  0 0.22402855E+04</rscale>
<asrwt>0</asrwt>
<pdfrwt beam="1">  1        2 0.30547748E+00 0.22402855E+04</pdfrwt>
<pdfrwt beam="2">  1       -2 0.97216691E-01 0.22402855E+04</pdfrwt>
<totfact> 0.54738611E+00</totfact>
</mgrwt>
</event>
<event>
 6    1  0.1817112E-005  0.8092927E+03  0.7818608E-02  0.9546663E-01
          1   -1    0    0  501    0  0.00000000000E+00  0.00000000000E+00  0.21072768185E+03  0.21072768185E+03  0.00000000000E+00 0. -1.
         -1   -1    0    0    0  501 -0.00000000000E+00 -0.00000000000E+00 -0.77701550192E+03  0.77701550192E+03  0.00000000000E+00 0.  1.
         23    2    1    2    0    0  0.25903226945E+03  0.13145393208E+03 -0.62168654019E+03  0.69202901254E+03  0.89622246495E+02 0.  0.
         13    1    3    3    0    0  0.14125182060E+03  0.90346050636E+02 -0.44666471256E+03  0.47709941431E+03  0.00000000000E+00 0.  1.
        -13    1    3    3    0    0  0.11778044885E+03  0.41107881442E+02 -0.17502182763E+03  0.21492959823E+03  0.00000000000E+00 0. -1.
         22    1    1    2    0    0 -0.25903226945E+03 -0.13145393208E+03  0.55398720116E+02  0.29571417123E+03  0.00000000000E+00 0. -1.
<mgrwt>
<rscale>  0 0.80929272E+03</rscale>
<asrwt>0</asrwt>
<pdfrwt beam="1">  1        1 0.32419643E-01 0.80929272E+03</pdfrwt>
<pdfrwt beam="2">  1       -1 0.11954085E+00 0.80929272E+03</pdfrwt>
<totfact> 0.87942621E+01</totfact>
</mgrwt>
</event>
<event>
 6    1  0.1817112E-005  0.1543083E+04  0.7818608E-02  0.8856298E-01
         -1   -1    0    0    0  501 -0.00000000000E+00  0.00000000000E+00  0.82757929956E+03  0.82757929956E+03  0.00000000000E+00 0.  1.
          1   -1    0    0  501    0  0.00000000000E+00 -0.00000000000E+00 -0.71929820729E+03  0.71929820729E+03  0.00000000000E+00 0. -1.
         23    2    1    2    0    0  0.33888734193E+03  0.24191757871E+03  0.70230805999E+03  0.82145570970E+03  0.90466161946E+02 0.  0.
         11    1    3    3    0    0  0.10151450485E+03  0.88368545792E+02  0.30944486006E+03  0.33744676024E+03  0.00000000000E+00 0.  1.
        -11    1    3    3    0    0  0.23737283708E+03  0.15354903292E+03  0.39286319993E+03  0.48400894946E+03  0.00000000000E+00 0. -1.
         22    1    1    2    0    0 -0.33888734193E+03 -0.24191757871E+03 -0.59402696772E+03  0.72542179716E+03  0.00000000000E+00 0. -1.
<mgrwt>
<rscale>  0 0.15430830E+04</rscale>
<asrwt>0</asrwt>
<pdfrwt beam="1">  1        1 0.11066126E+00 0.15430830E+04</pdfrwt>
<pdfrwt beam="2">  1       -1 0.12731989E+00 0.15430830E+04</pdfrwt>
<totfact> 0.13467841E+01</totfact>
</mgrwt>
</event>
<event>
 6    1  0.1817112E-005  0.1414601E+04  0.7818608E-02  0.8943317E-01
          2   -1    0    0  501    0  0.00000000000E+00  0.00000000000E+00  0.20615753065E+04  0.20615753065E+04  0.00000000000E+00 0. -1.
         -2   -1    0    0    0  501 -0.00000000000E+00 -0.00000000000E+00 -0.24266600432E+03  0.24266600432E+03  0.00000000000E+00 0.  1.
         23    2    1    2    0    0 -0.26416621047E+03  0.60314015136E+03  0.13198736697E+04  0.14780461817E+04  0.94827117812E+02 0.  0.
         13    1    3    3    0    0 -0.11417151085E+03  0.27370659146E+03  0.49151691023E+03  0.57405514121E+03  0.00000000000E+00 0. -1.
        -13    1    3    3    0    0 -0.14999469961E+03  0.32943355990E+03  0.82835675950E+03  0.90399104050E+03  0.00000000000E+00 0.  1.
         22    1    1    2    0    0  0.26416621047E+03 -0.60314015136E+03  0.49903563247E+03  0.82619512914E+03  0.00000000000E+00 0.  1.
<mgrwt>
<rscale>  0 0.14146013E+04</rscale>
<asrwt>0</asrwt>
<pdfrwt beam="1">  1        2 0.31716542E+00 0.14146013E+04</pdfrwt>
<pdfrwt beam="2">  1       -2 0.37333233E-01 0.14146013E+04</pdfrwt>
<totfact> 0.40641582E+01</totfact>
</mgrwt>
</event>
<event>
 6    1  0.1817112E-005  0.1179961E+04  0.7818608E-02  0.9130580E-01
          2   -1    0    0  501    0  0.00000000000E+00  0.00000000000E+00  0.23007616619E+04  0.23007616619E+04  0.00000000000E+00 0. -1.
         -2   -1    0    0    0  501 -0.00000000000E+00 -0.00000000000E+00 -0.15128764759E+03  0.15128764759E+03  0.00000000000E+00 0.  1.
         23    2    1    2    0    0 -0.47883874367E+03  0.32719097845E+03  0.12632453906E+04  0.13929262513E+04  0.90078554626E+02 0.  0.
         13    1    3    3    0    0 -0.15604592875E+03  0.13676787900E+03  0.36934242781E+03  0.42363854120E+03  0.00000000000E+00 0.  1.
        -13    1    3    3    0    0 -0.32279281492E+03  0.19042309945E+03  0.89390296277E+03  0.96928771013E+03  0.00000000000E+00 0. -1.
         22    1    1    2    0    0  0.47883874367E+03 -0.32719097845E+03  0.88622862372E+03  0.10591230582E+04  0.00000000000E+00 0.  1.
<mgrwt>
<rscale>  0 0.11799607E+04</rscale>
<asrwt>0</asrwt>
<pdfrwt beam="1">  1        2 0.35396331E+00 0.11799607E+04</pdfrwt>
<pdfrwt beam="2">  1       -2 0.23275024E-01 0.11799607E+04</pdfrwt>
<totfact> 0.73360274E+01</totfact>
</mgrwt>
</event>
<event>
 6    1  0.1817112E-005  0.3382149E+04  0.7818608E-02  0.8142301E-01
          2   -1    0    0  501    0  0.00000000000E+00  0.00000000000E+00  0.36781621292E+04  0.36781621292E+04  0.00000000000E+00 0. -1.
         -2   -1    0    0    0  501 -0.00000000000E+00 -0.00000000000E+00 -0.77748965463E+03  0.77748965463E+03  0.00000000000E+00 0.  1.
         23    2    1    2    0    0 -0.67493677051E+03  0.15141522240E+04  0.18832174466E+04  0.25105524713E+04  0.90383396430E+02 0.  0.
         11    1    3    3    0    0 -0.22365034431E+03  0.59589446870E+03  0.68988805089E+03  0.93864541606E+03  0.00000000000E+00 0. -1.
        -11    1    3    3    0    0 -0.45128642620E+03  0.91825775529E+03  0.11933293957E+04  0.15719070552E+04  0.00000000000E+00 0.  1.
         22    1    1    2    0    0  0.67493677051E+03 -0.15141522240E+04  0.10174550279E+04  0.19450993125E+04  0.00000000000E+00 0. -1.
<mgrwt>
<rscale>  0 0.33821490E+04</rscale>
<asrwt>0</asrwt>
<pdfrwt beam="1">  1        2 0.56587109E+00 0.33821490E+04</pdfrwt>
<pdfrwt beam="2">  1       -2 0.11961379E+00 0.33821490E+04</pdfrwt>
<totfact> 0.26851876E-01</totfact>
</mgrwt>
</event>
<event>
 6    1  0.1817112E-005  0.1327771E+04  0.7818608E-02  0.9007828E-01
          2   -1    0    0  501    0  0.00000000000E+00  0.00000000000E+00  0.28160082884E+04  0.28160082884E+04  0.00000000000E+00 0. -1.
         -2   -1    0    0    0  501 -0.00000000000E+00 -0.00000000000E+00 -0.15651372749E+03  0.15651372749E+03  0.00000000000E+00 0.  1.
         23    2    1    2    0    0  0.58585927921E+02 -0.47632682550E+03  0.23528100713E+04  0.24029827883E+04  0.91057637014E+02 0.  0.
         13    1    3    3    0    0 -0.10927947896E+02 -0.27520619969E+03  0.13660461043E+04  0.13935350126E+04  0.00000000000E+00 0. -1.
        -13    1    3    3    0    0  0.69513875816E+02 -0.20112062581E+03  0.98676396709E+03  0.10094477757E+04  0.00000000000E+00 0.  1.
         22    1    1    2    0    0 -0.58585927921E+02  0.47632682550E+03  0.30668448952E+03  0.56953922758E+03  0.00000000000E+00 0.  1.
<mgrwt>
<rscale>  0 0.13277710E+04</rscale>
<asrwt>0</asrwt>
<pdfrwt beam="1">  1        2 0.43323201E+00 0.13277710E+04</pdfrwt>
<pdfrwt beam="2">  1       -2 0.24079037E-01 0.13277710E+04</pdfrwt>
<totfact> 0.34245355E+01</totfact>
</mgrwt>
</event>
<event>
 6    1  0.1817112E-005  0.3000051E+04  0.7818608E-02  0.8243716E-01
          2   -1    0    0  501    0  0.00000000000E+00  0.00000000000E+00  0.10938036248E+04  0.10938036248E+04  0.00000000000E+00 0. -1.
         -2   -1    0    0    0  501 -0.00000000000E+00 -0.00000000000E+00 -0.20571122202E+04  0.20571122202E+04  0.00000000000E+00 0.  1.
         23    2    1    2    0    0  0.10585593177E+04  0.90105987706E+03  0.10580062080E+03  0.13972193926E+04  0.92582549768E+02 0.  0.
         13    1    3    3    0    0  0.33895685318E+03  0.23313882487E+03  0.29413202872E+02  0.41244465869E+03  0.00000000000E+00 0. -1.
        -13    1    3    3    0    0  0.71960246451E+03  0.66792105219E+03  0.76387417926E+02  0.98477473389E+03  0.00000000000E+00 0.  1.
         22    1    1    2    0    0 -0.10585593177E+04 -0.90105987706E+03 -0.10691092162E+04  0.17536964525E+04  0.00000000000E+00 0.  1.
<mgrwt>
<rscale>  0 0.30000512E+04</rscale>
<asrwt>0</asrwt>
<pdfrwt beam="1">  1        2 0.16827748E+00 0.30000512E+04</pdfrwt>
<pdfrwt beam="2">  1       -2 0.31647880E+00 0.30000512E+04</pdfrwt>
<totfact> 0.47356649E-01</totfact>
</mgrwt>
</event>
<event>
 6    1  0.1817112E-005  0.2201471E+04  0.7818608E-02  0.8517816E-01
          1   -1    0    0  501    0  0.00000000000E+00  0.00000000000E+00  0.15171099837E+04  0.15171099837E+04  0.00000000000E+00 0.  1.
         -1   -1    0    0    0  501 -0.00000000000E+00 -0.00000000000E+00 -0.79863630707E+03  0.79863630707E+03  0.00000000000E+00 0. -1.
         23    2    1    2    0    0 -0.84760390266E+03  0.56157370746E+03  0.79834727814E+03  0.12958555139E+04  0.89920695981E+02 0.  0.
         13    1    3    3    0    0 -0.54977836865E+03  0.31583469257E+03  0.51702324800E+03  0.81812031306E+03  0.00000000000E+00 0. -1.
        -13    1    3    3    0    0 -0.29782553401E+03  0.24573901489E+03  0.28132403013E+03  0.47773520079E+03  0.00000000000E+00 0.  1.
         22    1    1    2    0    0  0.84760390266E+03 -0.56157370746E+03 -0.79873601456E+02  0.10198907770E+04  0.00000000000E+00 0. -1.
<mgrwt>
<rscale>  0 0.22014714E+04</rscale>
<asrwt>0</asrwt>
<pdfrwt beam="1">  1        1 0.23340154E+00 0.22014714E+04</pdfrwt>
<pdfrwt beam="2">  1       -1 0.12286712E+00 0.22014714E+04</pdfrwt>
<totfact> 0.33892162E+00</totfact>
</mgrwt>
</event>
<event>
 6    1  0.1817112E-005  0.1466668E+04  0.7818608E-02  0.8906926E-01
          2   -1    0    0  501    0  0.00000000000E+00  0.00000000000E+00  0.27058378461E+04  0.27058378461E+04  0.00000000000E+00 0. -1.
         -2   -1    0    0    0  501 -0.00000000000E+00 -0.00000000000E+00 -0.19874764557E+03  0.19874764557E+03  0.00000000000E+00 0.  1.
         23    2    1    2    0    0 -0.44750924158E+03  0.29809625548E+03  0.22375693377E+04  0.23031144663E+04  0.92161841823E+02 0.  0.
         13    1    3    3    0    0 -0.20994936619E+03  0.11326496196E+03  0.82296792017E+03  0.85684531020E+03  0.00000000000E+00 0.  1.
        -13    1    3    3    0    0 -0.23755987538E+03  0.18483129352E+03  0.14146014176E+04  0.14462691561E+04  0.00000000000E+00 0. -1.
         22    1    1    2    0    0  0.44750924158E+03 -0.29809625548E+03  0.26952086279E+03  0.60147102533E+03  0.00000000000E+00 0.  1.
<mgrwt>
<rscale>  0 0.14666682E+04</rscale>
<asrwt>0</asrwt>
<pdfrwt beam="1">  1        2 0.41628272E+00 0.14666682E+04</pdfrwt>
<pdfrwt beam="2">  1       -2 0.30576563E-01 0.14666682E+04</pdfrwt>
<totfact> 0.25370539E+01</totfact>
</mgrwt>
</event>
<event>
 6    1  0.1817112E-005  0.2147198E+04  0.7818608E-02  0.8540732E-01
         -2   -1    0    0    0  501 -0.00000000000E+00  0.00000000000E+00  0.11803860396E+04  0.11803860396E+04  0.00000000000E+00 0.  1.
          2   -1    0    0  501    0  0.00000000000E+00 -0.00000000000E+00 -0.97647295839E+03  0.97647295839E+03  0.00000000000E+00 0. -1.
         23    2    1    2    0    0 -0.54602436999E+03 -0.79405647403E+03 -0.36887565226E+03  0.10358080492E+04  0.90336988408E+02 0.  0.
         11    1    3    3    0    0 -0.28399360911E+03 -0.35081976295E+03 -0.20243328108E+03  0.49467778339E+03  0.00000000000E+00 0. -1.
        -11    1    3    3    0    0 -0.26203076087E+03 -0.44323671108E+03 -0.16644237117E+03  0.54113026584E+03  0.00000000000E+00 0.  1.
         22    1    1    2    0    0  0.54602436999E+03  0.79405647403E+03  0.57278873349E+03  0.11210509488E+04  0.00000000000E+00 0.  1.
<mgrwt>
<rscale>  0 0.21471982E+04</rscale>
<asrwt>0</asrwt>
<pdfrwt beam="1">  1        2 0.15022661E+00 0.21471982E+04</pdfrwt>
<pdfrwt beam="2">  1       -2 0.18159785E+00 0.21471982E+04</pdfrwt>
<totfact> 0.42326071E+00</totfact>
</mgrwt>
</event>
<event>
 6    1  0.1817112E-005  0.2559939E+04  0.7818608E-02  0.8381938E-01
          2   -1    0    0  501    0  0.00000000000E+00  0.00000000000E+00  0.19852132417E+04  0.19852132417E+04  0.00000000000E+00 0. -1.
         -2   -1    0    0    0  501 -0.00000000000E+00 -0.00000000000E+00 -0.82526246518E+03  0.82526246518E+03  0.00000000000E+00 0.  1.
         23    2    1    2    0    0  0.26609476863E+03  0.12495632636E+04  0.62700786292E+03  0.14261914424E+04  0.93104213308E+02 0.  0.
         13    1    3    3    0    0  0.22314764260E+03  0.10172592855E+04  0.47038781046E+03  0.11427493236E+04  0.00000000000E+00 0. -1.
        -13    1    3    3    0    0  0.42947126035E+02  0.23230397811E+03  0.15662005246E+03  0.28344211880E+03  0.00000000000E+00 0.  1.
         22    1    1    2    0    0 -0.26609476863E+03 -0.12495632636E+04  0.53294291355E+03  0.13842842644E+04  0.00000000000E+00 0.  1.
<mgrwt>
<rscale>  0 0.25599390E+04</rscale>
<asrwt>0</asrwt>
<pdfrwt beam="1">  1        2 0.30541742E+00 0.25599390E+04</pdfrwt>
<pdfrwt beam="2">  1       -2 0.12696346E+00 0.25599390E+04</pdfrwt>
<totfact> 0.27860999E+00</totfact>
</mgrwt>
</event>
<event>
 6    1  0.1817112E-005  0.5543539E+04  0.7818608E-02  0.7749726E-01
          2   -1    0    0  501    0  0.00000000000E+00  0.00000000000E+00  0.47701038446E+04  0.47701038446E+04  0.00000000000E+00 0. -1.
         -2   -1    0    0    0  501 -0.00000000000E+00 -0.00000000000E+00 -0.16105953470E+04  0.16105953470E+04  0.00000000000E+00 0.  1.
         23    2    1    2    0    0 -0.77658795765E+02  0.12189205704E+04  0.44431425495E+04  0.46088316389E+04  0.89527175803E+02 0.  0.
         13    1    3    3    0    0  0.78637988361E+00  0.65826913490E+02  0.17493522979E+03  0.18691210649E+03  0.00000000000E+00 0.  1.
        -13    1    3    3    0    0 -0.78445175649E+02  0.11530936569E+04  0.42682073197E+04  0.44219195324E+04  0.00000000000E+00 0. -1.
         22    1    1    2    0    0  0.77658795765E+02 -0.12189205704E+04 -0.12836340518E+04  0.17718675527E+04  0.00000000000E+00 0.  1.
<mgrwt>
<rscale>  0 0.55435393E+04</rscale>
<asrwt>0</asrwt>
<pdfrwt beam="1">  1        2 0.73386213E+00 0.55435393E+04</pdfrwt>
<pdfrwt beam="2">  1       -2 0.24778390E+00 0.55435393E+04</pdfrwt>
<totfact> 0.29291956E-03</totfact>
</mgrwt>
</event>
<event>
 6    1  0.1817112E-005  0.3114596E+04  0.7818608E-02  0.8211744E-01
          2   -1    0    0  501    0  0.00000000000E+00  0.00000000000E+00  0.86897795481E+03  0.86897795481E+03  0.00000000000E+00 0. -1.
         -2   -1    0    0    0  501 -0.00000000000E+00 -0.00000000000E+00 -0.27908377687E+04  0.27908377687E+04  0.00000000000E+00 0.  1.
         23    2    1    2    0    0  0.60307139018E+03  0.53042363421E+02  0.72252206137E+03  0.94701936252E+03  0.91098572218E+02 0.  0.
         11    1    3    3    0    0  0.39847744366E+03  0.14479493223E+02  0.41376648251E+03  0.57462738437E+03  0.00000000000E+00 0.  1.
        -11    1    3    3    0    0  0.20459394653E+03  0.38562870198E+02  0.30875557886E+03  0.37239197815E+03  0.00000000000E+00 0. -1.
         22    1    1    2    0    0 -0.60307139018E+03 -0.53042363421E+02 -0.26443818753E+04  0.27127963610E+04  0.00000000000E+00 0.  1.
<mgrwt>
<rscale>  0 0.31145956E+04</rscale>
<asrwt>0</asrwt>
<pdfrwt beam="1">  1        2 0.13368892E+00 0.31145956E+04</pdfrwt>
<pdfrwt beam="2">  1       -2 0.42935966E+00 0.31145956E+04</pdfrwt>
<totfact> 0.12399616E-01</totfact>
</mgrwt>
</event>
<event>
 6    1  0.1817112E-005  0.1795484E+04  0.7818608E-02  0.8708705E-01
         -2   -1    0    0    0  501 -0.00000000000E+00  0.00000000000E+00  0.74882198490E+03  0.74882198490E+03  0.00000000000E+00 0.  1.
          2   -1    0    0  501    0  0.00000000000E+00 -0.00000000000E+00 -0.10762777573E+04  0.10762777573E+04  0.00000000000E+00 0. -1.
         23    2    1    2    0    0 -0.59150839061E+03 -0.14799451524E+03  0.50247370801E+03  0.79526116499E+03  0.90420907947E+02 0.  0.
         11    1    3    3    0    0 -0.56635439201E+03 -0.12177421279E+03  0.48170414874E+03  0.75340901453E+03  0.00000000000E+00 0.  1.
        -11    1    3    3    0    0 -0.25153998592E+02 -0.26220302454E+02  0.20769559269E+02  0.41852150461E+02  0.00000000000E+00 0. -1.
         22    1    1    2    0    0  0.59150839061E+03  0.14799451524E+03 -0.82992948046E+03  0.10298385773E+04  0.00000000000E+00 0. -1.
<mgrwt>
<rscale>  0 0.17954837E+04</rscale>
<asrwt>0</asrwt>
<pdfrwt beam="1">  1        2 0.16558119E+00 0.17954837E+04</pdfrwt>
<pdfrwt beam="2">  1       -2 0.11520338E+00 0.17954837E+04</pdfrwt>
<totfact> 0.12497959E+01</totfact>
</mgrwt>
</event>
<event>
 6    1  0.1817112E-005  0.1129068E+04  0.7818608E-02  0.9177314E-01
         -2   -1    0    0    0  501 -0.00000000000E+00  0.00000000000E+00  0.19620363042E+03  0.19620363042E+03  0.00000000000E+00 0.  1.
          2   -1    0    0  501    0  0.00000000000E+00 -0.00000000000E+00 -0.16243258685E+04  0.16243258685E+04  0.00000000000E+00 0. -1.
         23    2    1    2    0    0 -0.65120843944E+02  0.55335400697E+03 -0.63409771973E+03  0.85052108810E+03  0.10423445589E+03 0.  0.
         13    1    3    3    0    0  0.15834760497E+02  0.22703863687E+03 -0.21344573730E+03  0.31201981514E+03  0.00000000000E+00 0.  1.
        -13    1    3    3    0    0 -0.80955604441E+02  0.32631537009E+03 -0.42065198244E+03  0.53850127296E+03  0.00000000000E+00 0. -1.
         22    1    1    2    0    0  0.65120843944E+02 -0.55335400697E+03 -0.79402451839E+03  0.97000841086E+03  0.00000000000E+00 0. -1.
<mgrwt>
<rscale>  0 0.11290680E+04</rscale>
<asrwt>0</asrwt>
<pdfrwt beam="1">  1        2 0.24989629E+00 0.11290680E+04</pdfrwt>
<pdfrwt beam="2">  1       -2 0.30185173E-01 0.11290680E+04</pdfrwt>
<totfact> 0.10854922E+02</totfact>
</mgrwt>
</event>
<event>
 6    1  0.1817112E-005  0.1221551E+04  0.7818608E-02  0.9094199E-01
          2   -1    0    0  501    0  0.00000000000E+00  0.00000000000E+00  0.12373006260E+04  0.12373006260E+04  0.00000000000E+00 0. -1.
         -2   -1    0    0    0  501 -0.00000000000E+00 -0.00000000000E+00 -0.30150063722E+03  0.30150063722E+03  0.00000000000E+00 0.  1.
         23    2    1    2    0    0 -0.23622331654E+03 -0.18229447281E+03  0.11370297352E+04  0.11789038599E+04  0.89134516999E+02 0.  0.
         13    1    3    3    0    0 -0.12975940445E+03 -0.44637897118E+02  0.52054152436E+03  0.53832473795E+03  0.00000000000E+00 0. -1.
        -13    1    3    3    0    0 -0.10646391209E+03 -0.13765657569E+03  0.61648821080E+03  0.64057912193E+03  0.00000000000E+00 0.  1.
         22    1    1    2    0    0  0.23622331654E+03  0.18229447281E+03 -0.20122974638E+03  0.35989740333E+03  0.00000000000E+00 0.  1.
<mgrwt>
<rscale>  0 0.12215514E+04</rscale>
<asrwt>0</asrwt>
<pdfrwt beam="1">  1        2 0.19035394E+00 0.12215514E+04</pdfrwt>
<pdfrwt beam="2">  1       -2 0.46384714E-01 0.12215514E+04</pdfrwt>
<totfact> 0.78109986E+01</totfact>
</mgrwt>
</event>
<event>
 6    1  0.1817112E-005  0.2006997E+04  0.7818608E-02  0.8603356E-01
         -2   -1    0    0    0  501 -0.00000000000E+00  0.00000000000E+00  0.46254921775E+03  0.46254921775E+03  0.00000000000E+00 0.  1.
          2   -1    0    0  501    0  0.00000000000E+00 -0.00000000000E+00 -0.21770860111E+04  0.21770860111E+04  0.00000000000E+00 0. -1.
         23    2    1    2    0    0 -0.50667160749E+03  0.56202577974E+03  0.36174197392E+01  0.76223197040E+03  0.91626393829E+02 0.  0.
         13    1    3    3    0    0 -0.34329061162E+03  0.43969845050E+03  0.11865410819E+02  0.55796412015E+03  0.00000000000E+00 0. -1.
        -13    1    3    3    0    0 -0.16338099586E+03  0.12232732924E+03 -0.82479910795E+01  0.20426785025E+03  0.00000000000E+00 0.  1.
         22    1    1    2    0    0  0.50667160749E+03 -0.56202577974E+03 -0.17181542131E+04  0.18774032585E+04  0.00000000000E+00 0. -1.
<mgrwt>
<rscale>  0 0.20069972E+04</rscale>
<asrwt>0</asrwt>
<pdfrwt beam="1">  1        2 0.33493631E+00 0.20069972E+04</pdfrwt>
<pdfrwt beam="2">  1       -2 0.71161417E-01 0.20069972E+04</pdfrwt>
<totfact> 0.88565488E+00</totfact>
</mgrwt>
</event>
<event>
 6    1  0.1817112E-005  0.7033363E+03  0.7818608E-02  0.9711544E-01
          2   -1    0    0  501    0  0.00000000000E+00  0.00000000000E+00  0.36759884090E+03  0.36759884090E+03  0.00000000000E+00 0. -1.
         -2   -1    0    0    0  501 -0.00000000000E+00 -0.00000000000E+00 -0.33642786966E+03  0.33642786966E+03  0.00000000000E+00 0.  1.
         23    2    1    2    0    0  0.19033701201E+03 -0.28148588375E+03  0.80267045559E+02  0.36070047299E+03  0.90551376145E+02 0.  0.
         13    1    3    3    0    0  0.93036812401E+02 -0.10675941268E+03 -0.85623738202E+01  0.14186872419E+03  0.00000000000E+00 0.  1.
        -13    1    3    3    0    0  0.97300199605E+02 -0.17472647107E+03  0.88829419379E+02  0.21883174880E+03  0.00000000000E+00 0. -1.
         22    1    1    2    0    0 -0.19033701201E+03  0.28148588375E+03 -0.49096074322E+02  0.34332623757E+03  0.00000000000E+00 0. -1.
<mgrwt>
<rscale>  0 0.70333632E+03</rscale>
<asrwt>0</asrwt>
<pdfrwt beam="1">  1        2 0.56553668E-01 0.70333632E+03</pdfrwt>
<pdfrwt beam="2">  1       -2 0.51758134E-01 0.70333632E+03</pdfrwt>
<totfact> 0.31118984E+02</totfact>
</mgrwt>
</event>
<event>
 6    1  0.1817112E-005  0.1950476E+04  0.7818608E-02  0.8630131E-01
         -2   -1    0    0    0  501 -0.00000000000E+00  0.00000000000E+00  0.37217194240E+03  0.37217194240E+03  0.00000000000E+00 0.  1.
          2   -1    0    0  501    0  0.00000000000E+00 -0.00000000000E+00 -0.25555088827E+04  0.25555088827E+04  0.00000000000E+00 0. -1.
         23    2    1    2    0    0 -0.96008499291E+03 -0.27364830817E+02 -0.13281427703E+04  0.16416524055E+04  0.92452012820E+02 0.  0.
         13    1    3    3    0    0 -0.60511671443E+03  0.43254226271E+01 -0.76812551625E+03  0.97785569287E+03  0.00000000000E+00 0.  1.
        -13    1    3    3    0    0 -0.35496827848E+03 -0.31690253444E+02 -0.56001725408E+03  0.66379671267E+03  0.00000000000E+00 0. -1.
         22    1    1    2    0    0  0.96008499291E+03  0.27364830817E+02 -0.85519416997E+03  0.12860284196E+04  0.00000000000E+00 0. -1.
<mgrwt>
<rscale>  0 0.19504755E+04</rscale>
<asrwt>0</asrwt>
<pdfrwt beam="1">  1        2 0.39315520E+00 0.19504755E+04</pdfrwt>
<pdfrwt beam="2">  1       -2 0.57257224E-01 0.19504755E+04</pdfrwt>
<totfact> 0.86230412E+00</totfact>
</mgrwt>
</event>
<event>
 6    1  0.1817112E-005  0.2503144E+04  0.7818608E-02  0.8401866E-01
         -1   -1    0    0    0  501 -0.00000000000E+00  0.00000000000E+00  0.20493131146E+04  0.20493131146E+04  0.00000000000E+00 0.  1.
          1   -1    0    0  501    0  0.00000000000E+00 -0.00000000000E+00 -0.76436954651E+03  0.76436954651E+03  0.00000000000E+00 0. -1.
         23    2    1    2    0    0 -0.80745683290E+03  0.16882582110E+03  0.16988197569E+04  0.18907621908E+04  0.92219308744E+02 0.  0.
         11    1    3    3    0    0 -0.39094549447E+03  0.76280971330E+02  0.92483768117E+03  0.10069666840E+04  0.00000000000E+00 0. -1.
        -11    1    3    3    0    0 -0.41651133843E+03  0.92544849768E+02  0.77398207575E+03  0.88379550680E+03  0.00000000000E+00 0.  1.
         22    1    1    2    0    0  0.80745683290E+03 -0.16882582110E+03 -0.41387618880E+03  0.92292047031E+03  0.00000000000E+00 0. -1.
<mgrwt>
<rscale>  0 0.25031441E+04</rscale>
<asrwt>0</asrwt>
<pdfrwt beam="1">  1        1 0.11759532E+00 0.25031441E+04</pdfrwt>
<pdfrwt beam="2">  1       -1 0.31527894E+00 0.25031441E+04</pdfrwt>
<totfact> 0.55484473E-01</totfact>
</mgrwt>
</event>
<event>
 6    1  0.1817112E-005  0.2500831E+04  0.7818608E-02  0.8402689E-01
          1   -1    0    0  501    0  0.00000000000E+00  0.00000000000E+00  0.85922771752E+03  0.85922771752E+03  0.00000000000E+00 0. -1.
         -1   -1    0    0    0  501 -0.00000000000E+00 -0.00000000000E+00 -0.18197028664E+04  0.18197028664E+04  0.00000000000E+00 0.  1.
         23    2    1    2    0    0  0.48124952359E+03 -0.75400808041E+03  0.45253808106E+03  0.10065862183E+04  0.91081341452E+02 0.  0.
         13    1    3    3    0    0  0.31178306835E+03 -0.41301727816E+03  0.28236759362E+03  0.58951116333E+03  0.00000000000E+00 0. -1.
        -13    1    3    3    0    0  0.16946645524E+03 -0.34099080225E+03  0.17017048745E+03  0.41707505496E+03  0.00000000000E+00 0.  1.
         22    1    1    2    0    0 -0.48124952359E+03  0.75400808041E+03 -0.14130132300E+04  0.16723443657E+04  0.00000000000E+00 0.  1.
<mgrwt>
<rscale>  0 0.25008312E+04</rscale>
<asrwt>0</asrwt>
<pdfrwt beam="1">  1        1 0.13218888E+00 0.25008312E+04</pdfrwt>
<pdfrwt beam="2">  1       -1 0.27995429E+00 0.25008312E+04</pdfrwt>
<totfact> 0.77833207E-01</totfact>
</mgrwt>
</event>
<event>
 6    1  0.1817112E-005  0.1640789E+04  0.7818608E-02  0.8795874E-01
         -2   -1    0    0    0  501 -0.00000000000E+00  0.00000000000E+00  0.16196807636E+03  0.16196807636E+03  0.00000000000E+00 0.  1.
          2   -1    0    0  501    0  0.00000000000E+00 -0.00000000000E+00 -0.41554309060E+04  0.41554309060E+04  0.00000000000E+00 0. -1.
         23    2    1    2    0    0 -0.18031946181E+03  0.60409105741E+02 -0.40960535492E+04  0.41013220884E+04  0.83808269508E+02 0.  0.
         11    1    3    3    0    0 -0.80494471872E+02  0.15705456464E+02 -0.25918043831E+04  0.25931016142E+04  0.00000000000E+00 0.  1.
        -11    1    3    3    0    0 -0.99824989934E+02  0.44703649277E+02 -0.15042491661E+04  0.15082204741E+04  0.00000000000E+00 0. -1.
         22    1    1    2    0    0  0.18031946181E+03 -0.60409105741E+02  0.10259071960E+03  0.21607689398E+03  0.00000000000E+00 0.  1.
<mgrwt>
<rscale>  0 0.16407890E+04</rscale>
<asrwt>0</asrwt>
<pdfrwt beam="1">  1        2 0.63929705E+00 0.16407890E+04</pdfrwt>
<pdfrwt beam="2">  1       -2 0.24918166E-01 0.16407890E+04</pdfrwt>
<totfact> 0.35818231E+00</totfact>
</mgrwt>
</event>
<event>
 6    1  0.1817112E-005  0.3102173E+04  0.7818608E-02  0.8215142E-01
         -2   -1    0    0    0  501 -0.00000000000E+00  0.00000000000E+00  0.20365588083E+04  0.20365588083E+04  0.00000000000E+00 0.  1.
          2   -1    0    0  501    0  0.00000000000E+00 -0.00000000000E+00 -0.11813403642E+04  0.11813403642E+04  0.00000000000E+00 0. -1.
         23    2    1    2    0    0 -0.46348991619E+03 -0.78205833999E+03  0.17299930698E+04  0.19562856043E+04  0.87972693265E+02 0.  0.
         13    1    3    3    0    0 -0.20424721580E+03 -0.26473145143E+03  0.60876730114E+03  0.69454826576E+03  0.00000000000E+00 0. -1.
        -13    1    3    3    0    0 -0.25924270039E+03 -0.51732688855E+03  0.11212257686E+04  0.12617373386E+04  0.00000000000E+00 0.  1.
         22    1    1    2    0    0  0.46348991619E+03  0.78205833999E+03 -0.87477462569E+03  0.12616135681E+04  0.00000000000E+00 0. -1.
<mgrwt>
<rscale>  0 0.31021729E+04</rscale>
<asrwt>0</asrwt>
<pdfrwt beam="1">  1        2 0.18174467E+00 0.31021729E+04</pdfrwt>
<pdfrwt beam="2">  1       -2 0.31331674E+00 0.31021729E+04</pdfrwt>
<totfact> 0.43430833E-01</totfact>
</mgrwt>
</event>
<event>
 6    1  0.1817112E-005  0.2576782E+04  0.7818608E-02  0.8376131E-01
         -2   -1    0    0    0  501 -0.00000000000E+00  0.00000000000E+00  0.79145202267E+03  0.79145202267E+03  0.00000000000E+00 0.  1.
          2   -1    0    0  501    0  0.00000000000E+00 -0.00000000000E+00 -0.20973486500E+04  0.20973486500E+04  0.00000000000E+00 0. -1.
         23    2    1    2    0    0  0.36974207535E+03  0.83903738792E+03  0.35835587088E+03  0.98868769750E+03  0.91605089224E+02 0.  0.
         11    1    3    3    0    0  0.25409796778E+03  0.60371708765E+03  0.21233147012E+03  0.68856717345E+03  0.00000000000E+00 0. -1.
        -11    1    3    3    0    0  0.11564410758E+03  0.23532030027E+03  0.14602440076E+03  0.30012052405E+03  0.00000000000E+00 0.  1.
         22    1    1    2    0    0 -0.36974207535E+03 -0.83903738792E+03 -0.16642524982E+04  0.19001129752E+04  0.00000000000E+00 0. -1.
<mgrwt>
<rscale>  0 0.25767816E+04</rscale>
<asrwt>0</asrwt>
<pdfrwt beam="1">  1        2 0.32266902E+00 0.25767816E+04</pdfrwt>
<pdfrwt beam="2">  1       -2 0.12176185E+00 0.25767816E+04</pdfrwt>
<totfact> 0.26755766E+00</totfact>
</mgrwt>
</event>
<event>
 6    1  0.1817112E-005  0.2706062E+04  0.7818608E-02  0.8333041E-01
          2   -1    0    0  501    0  0.00000000000E+00  0.00000000000E+00  0.23726402615E+04  0.23726402615E+04  0.00000000000E+00 0. -1.
         -2   -1    0    0    0  501 -0.00000000000E+00 -0.00000000000E+00 -0.77158478516E+03  0.77158478516E+03  0.00000000000E+00 0.  1.
         23    2    1    2    0    0 -0.58213842980E+02  0.11707836095E+04  0.15829311187E+04  0.19718549668E+04  0.91749506511E+02 0.  0.
         11    1    3    3    0    0 -0.18792368500E+02  0.84832047392E+03  0.10865917061E+04  0.13786523548E+04  0.00000000000E+00 0.  1.
        -11    1    3    3    0    0 -0.39421474480E+02  0.32246313557E+03  0.49633941261E+03  0.59320261207E+03  0.00000000000E+00 0. -1.
         22    1    1    2    0    0  0.58213842980E+02 -0.11707836095E+04  0.18124357645E+02  0.11723700798E+04  0.00000000000E+00 0. -1.
<mgrwt>
<rscale>  0 0.27060622E+04</rscale>
<asrwt>0</asrwt>
<pdfrwt beam="1">  1        2 0.36502158E+00 0.27060622E+04</pdfrwt>
<pdfrwt beam="2">  1       -2 0.11870535E+00 0.27060622E+04</pdfrwt>
<totfact> 0.19711396E+00</totfact>
</mgrwt>
</event>
<event>
 6    1  0.1817112E-005  0.3695227E+04  0.7818608E-02  0.8069020E-01
          2   -1    0    0  501    0  0.00000000000E+00  0.00000000000E+00  0.24592810071E+04  0.24592810071E+04  0.00000000000E+00 0.  1.
         -2   -1    0    0    0  501 -0.00000000000E+00 -0.00000000000E+00 -0.13880784395E+04  0.13880784395E+04  0.00000000000E+00 0. -1.
         23    2    1    2    0    0 -0.15750292733E+04  0.58362969669E+03  0.13344888714E+04  0.21471651893E+04  0.90094214331E+02 0.  0.
         11    1    3    3    0    0 -0.17972808973E+03  0.81794999525E+02  0.12563451271E+03  0.23404409621E+03  0.00000000000E+00 0. -1.
        -11    1    3    3    0    0 -0.13953011836E+04  0.50183469716E+03  0.12088543587E+04  0.19131210931E+04  0.00000000000E+00 0.  1.
         22    1    1    2    0    0  0.15750292733E+04 -0.58362969669E+03 -0.26328630376E+03  0.17001942573E+04  0.00000000000E+00 0. -1.
<mgrwt>
<rscale>  0 0.36952266E+04</rscale>
<asrwt>0</asrwt>
<pdfrwt beam="1">  1        2 0.37835092E+00 0.36952266E+04</pdfrwt>
<pdfrwt beam="2">  1       -2 0.21355053E+00 0.36952266E+04</pdfrwt>
<totfact> 0.32290935E-01</totfact>
</mgrwt>
</event>
<event>
 6    1  0.1817112E-005  0.1717549E+04  0.7818608E-02  0.8751418E-01
         -2   -1    0    0    0  501 -0.00000000000E+00  0.00000000000E+00  0.92317356801E+03  0.92317356801E+03  0.00000000000E+00 0. -1.
          2   -1    0    0  501    0  0.00000000000E+00 -0.00000000000E+00 -0.79886761401E+03  0.79886761401E+03  0.00000000000E+00 0.  1.
         23    2    1    2    0    0  0.50061440912E+03 -0.25446043403E+02  0.75669769374E+03  0.91508294256E+03  0.11628888302E+03 0.  0.
         13    1    3    3    0    0  0.29840094613E+03 -0.25452513811E+02  0.34820345147E+03  0.45927834559E+03  0.00000000000E+00 0. -1.
        -13    1    3    3    0    0  0.20221346299E+03  0.64704082719E-02  0.40849424227E+03  0.45580459697E+03  0.00000000000E+00 0.  1.
         22    1    1    2    0    0 -0.50061440912E+03  0.25446043403E+02 -0.63239173974E+03  0.80695823946E+03  0.00000000000E+00 0.  1.
<mgrwt>
<rscale>  0 0.17175488E+04</rscale>
<asrwt>0</asrwt>
<pdfrwt beam="1">  1        2 0.12290271E+00 0.17175488E+04</pdfrwt>
<pdfrwt beam="2">  1       -2 0.14202670E+00 0.17175488E+04</pdfrwt>
<totfact> 0.11341596E+01</totfact>
</mgrwt>
</event>
<event>
 6    1  0.1817112E-005  0.2187636E+04  0.7818608E-02  0.8523592E-01
          2   -1    0    0  501    0  0.00000000000E+00  0.00000000000E+00  0.17587665822E+04  0.17587665822E+04  0.00000000000E+00 0. -1.
         -2   -1    0    0    0  501 -0.00000000000E+00 -0.00000000000E+00 -0.68027093574E+03  0.68027093574E+03  0.00000000000E+00 0.  1.
         23    2    1    2    0    0 -0.15122841830E+03 -0.30654189831E+03 -0.61609356642E+03  0.71031817394E+03  0.90236665150E+02 0.  0.
         11    1    3    3    0    0 -0.37302674651E+01 -0.32019499970E+02 -0.20736016132E+02  0.38329435669E+02  0.00000000000E+00 0. -1.
        -11    1    3    3    0    0 -0.14749815083E+03 -0.27452239834E+03 -0.59535755028E+03  0.67198873827E+03  0.00000000000E+00 0.  1.
         22    1    1    2    0    0  0.15122841830E+03  0.30654189831E+03  0.16945892129E+04  0.17287193440E+04  0.00000000000E+00 0. -1.
<mgrwt>
<rscale>  0 0.21876360E+04</rscale>
<asrwt>0</asrwt>
<pdfrwt beam="1">  1        2 0.27057947E+00 0.21876360E+04</pdfrwt>
<pdfrwt beam="2">  1       -2 0.10465707E+00 0.21876360E+04</pdfrwt>
<totfact> 0.61662779E+00</totfact>
</mgrwt>
</event>
<event>
 6    1  0.1817112E-005  0.5433490E+04  0.7818608E-02  0.7764908E-01
          2   -1    0    0  501    0  0.00000000000E+00  0.00000000000E+00  0.25844024371E+04  0.25844024371E+04  0.00000000000E+00 0. -1.
         -2   -1    0    0    0  501 -0.00000000000E+00 -0.00000000000E+00 -0.28558645423E+04  0.28558645423E+04  0.00000000000E+00 0.  1.
         23    2    1    2    0    0 -0.21173597994E+04  0.11070673830E+04  0.11571456361E+04  0.26564331501E+04  0.94023120120E+02 0.  0.
         11    1    3    3    0    0 -0.14210675383E+04  0.70894540007E+03  0.73251350524E+03  0.17488889513E+04  0.00000000000E+00 0.  1.
        -11    1    3    3    0    0 -0.69629226116E+03  0.39812198292E+03  0.42463213089E+03  0.90754419882E+03  0.00000000000E+00 0. -1.
         22    1    1    2    0    0  0.21173597994E+04 -0.11070673830E+04 -0.14286077413E+04  0.27838338293E+04  0.00000000000E+00 0. -1.
<mgrwt>
<rscale>  0 0.54334900E+04</rscale>
<asrwt>0</asrwt>
<pdfrwt beam="1">  1        2 0.39760037E+00 0.54334900E+04</pdfrwt>
<pdfrwt beam="2">  1       -2 0.43936378E+00 0.54334900E+04</pdfrwt>
<totfact> 0.89511470E-03</totfact>
</mgrwt>
</event>
<event>
 6    1  0.2224453E-005  0.2974443E+04  0.7818608E-02  0.8251067E-01
          1   -1    0    0  501    0  0.00000000000E+00  0.00000000000E+00  0.15074823467E+04  0.15074823467E+04  0.00000000000E+00 0. -1.
         -1   -1    0    0    0  501 -0.00000000000E+00 -0.00000000000E+00 -0.14672328868E+04  0.14672328868E+04  0.00000000000E+00 0.  1.
         23    2    1    2    0    0 -0.82500208285E+03  0.82621544458E+03 -0.89887053604E+03  0.14763138306E+04  0.90960916410E+02 0.  0.
         13    1    3    3    0    0 -0.28654019857E+03  0.33487209754E+03 -0.37454877539E+03  0.57838688804E+03  0.00000000000E+00 0.  1.
        -13    1    3    3    0    0 -0.53846188428E+03  0.49134334704E+03 -0.52432176064E+03  0.89792694257E+03  0.00000000000E+00 0. -1.
         22    1    1    2    0    0  0.82500208285E+03 -0.82621544458E+03  0.93911999588E+03  0.14984014029E+04  0.00000000000E+00 0. -1.
<mgrwt>
<rscale>  0 0.29744429E+04</rscale>
<asrwt>0</asrwt>
<pdfrwt beam="1">  1        1 0.23192036E+00 0.29744429E+04</pdfrwt>
<pdfrwt beam="2">  1       -1 0.22572814E+00 0.29744429E+04</pdfrwt>
<totfact> 0.55557678E-01</totfact>
</mgrwt>
</event>
<event>
 6    1  0.1817112E-005  0.3313648E+03  0.7818608E-02  0.1070535E+00
          2   -1    0    0  501    0  0.00000000000E+00  0.00000000000E+00  0.40864681941E+03  0.40864681941E+03  0.00000000000E+00 0. -1.
         -2   -1    0    0    0  501 -0.00000000000E+00 -0.00000000000E+00 -0.67174534981E+02  0.67174534981E+02  0.00000000000E+00 0.  1.
         23    2    1    2    0    0 -0.12190466637E+03 -0.92058111869E+02  0.15951195067E+03  0.23823977534E+03  0.89323482369E+02 0.  0.
         11    1    3    3    0    0 -0.11765924766E+03 -0.76368587942E+02  0.89558623620E+02  0.16642297573E+03  0.00000000000E+00 0. -1.
        -11    1    3    3    0    0 -0.42454187066E+01 -0.15689523926E+02  0.69953327046E+02  0.71816799607E+02  0.00000000000E+00 0.  1.
         22    1    1    2    0    0  0.12190466637E+03  0.92058111869E+02  0.18196033376E+03  0.23758157906E+03  0.00000000000E+00 0.  1.
<mgrwt>
<rscale>  0 0.33136481E+03</rscale>
<asrwt>0</asrwt>
<pdfrwt beam="1">  1        2 0.62868740E-01 0.33136481E+03</pdfrwt>
<pdfrwt beam="2">  1       -2 0.10334544E-01 0.33136481E+03</pdfrwt>
<totfact> 0.49173077E+03</totfact>
</mgrwt>
</event>
<event>
 6    1  0.1817112E-005  0.4278539E+04  0.7818608E-02  0.7950598E-01
         -2   -1    0    0    0  501 -0.00000000000E+00  0.00000000000E+00  0.11599146026E+04  0.11599146026E+04  0.00000000000E+00 0. -1.
          2   -1    0    0  501    0  0.00000000000E+00 -0.00000000000E+00 -0.39455272841E+04  0.39455272841E+04  0.00000000000E+00 0.  1.
         23    2    1    2    0    0  0.52512795407E+03 -0.20700183411E+04 -0.12669884079E+04  0.24849543396E+04  0.94884895290E+02 0.  0.
         13    1    3    3    0    0  0.18917199665E+03 -0.67570747404E+03 -0.36880608677E+03  0.79270711138E+03  0.00000000000E+00 0. -1.
        -13    1    3    3    0    0  0.33595595742E+03 -0.13943108670E+04 -0.89818232117E+03  0.16922472282E+04  0.00000000000E+00 0.  1.
         22    1    1    2    0    0 -0.52512795407E+03  0.20700183411E+04 -0.15186242736E+04  0.26204875472E+04  0.00000000000E+00 0.  1.
<mgrwt>
<rscale>  0 0.42785393E+04</rscale>
<asrwt>0</asrwt>
<pdfrwt beam="1">  1        2 0.60700419E+00 0.42785393E+04</pdfrwt>
<pdfrwt beam="2">  1       -2 0.17844840E+00 0.42785393E+04</pdfrwt>
<totfact> 0.54050958E-02</totfact>
</mgrwt>
</event>
<event>
 6    1  0.1817112E-005  0.5119573E+04  0.7818608E-02  0.7810322E-01
          2   -1    0    0  501    0  0.00000000000E+00  0.00000000000E+00  0.34197988823E+04  0.34197988823E+04  0.00000000000E+00 0. -1.
         -2   -1    0    0    0  501 -0.00000000000E+00 -0.00000000000E+00 -0.19160501375E+04  0.19160501375E+04  0.00000000000E+00 0.  1.
         23    2    1    2    0    0  0.11060758768E+04 -0.19364054253E+04  0.20601897333E+04  0.30374373095E+04  0.92595116430E+02 0.  0.
         13    1    3    3    0    0  0.54494338003E+03 -0.10352728381E+04  0.11109780958E+04  0.16133894341E+04  0.00000000000E+00 0. -1.
        -13    1    3    3    0    0  0.56113249677E+03 -0.90113258720E+03  0.94921163752E+03  0.14240478754E+04  0.00000000000E+00 0.  1.
         22    1    1    2    0    0 -0.11060758768E+04  0.19364054253E+04 -0.55644098854E+03  0.22984117103E+04  0.00000000000E+00 0.  1.
<mgrwt>
<rscale>  0 0.51195727E+04</rscale>
<asrwt>0</asrwt>
<pdfrwt beam="1">  1        2 0.52612290E+00 0.51195727E+04</pdfrwt>
<pdfrwt beam="2">  1       -2 0.29477695E+00 0.51195727E+04</pdfrwt>
<totfact> 0.22760000E-02</totfact>
</mgrwt>
</event>
<event>
 6    1  0.1817112E-005  0.2211916E+04  0.7818608E-02  0.8513485E-01
          2   -1    0    0  501    0  0.00000000000E+00  0.00000000000E+00  0.13229383902E+04  0.13229383902E+04  0.00000000000E+00 0.  1.
         -2   -1    0    0    0  501 -0.00000000000E+00 -0.00000000000E+00 -0.92456533764E+03  0.92456533764E+03  0.00000000000E+00 0. -1.
         23    2    1    2    0    0  0.10475385983E+04  0.25897827351E+03 -0.37915515235E+02  0.10835644788E+04  0.90925971663E+02 0.  0.
         13    1    3    3    0    0  0.68459183122E+03  0.20724656752E+03 -0.47223937543E+02  0.71683137166E+03  0.00000000000E+00 0.  1.
        -13    1    3    3    0    0  0.36294676707E+03  0.51731705990E+02  0.93084223081E+01  0.36673310712E+03  0.00000000000E+00 0. -1.
         22    1    1    2    0    0 -0.10475385983E+04 -0.25897827351E+03  0.43628856775E+03  0.11639392490E+04  0.00000000000E+00 0.  1.
<mgrwt>
<rscale>  0 0.22119159E+04</rscale>
<asrwt>0</asrwt>
<pdfrwt beam="1">  1        2 0.20352898E+00 0.22119159E+04</pdfrwt>
<pdfrwt beam="2">  1       -2 0.14224082E+00 0.22119159E+04</pdfrwt>
<totfact> 0.50450721E+00</totfact>
</mgrwt>
</event>
<event>
 6    1  0.1817112E-005  0.2379054E+04  0.7818608E-02  0.8447387E-01
         -2   -1    0    0    0  501 -0.00000000000E+00  0.00000000000E+00  0.68202463515E+03  0.68202463515E+03  0.00000000000E+00 0.  1.
          2   -1    0    0  501    0  0.00000000000E+00 -0.00000000000E+00 -0.20746675193E+04  0.20746675193E+04  0.00000000000E+00 0. -1.
         23    2    1    2    0    0 -0.58579092758E+03  0.11907143250E+03 -0.18866420311E+04  0.19812154146E+04  0.92018196553E+02 0.  0.
         13    1    3    3    0    0 -0.36224695495E+03  0.11664595185E+03 -0.12335968883E+04  0.12909649171E+04  0.00000000000E+00 0. -1.
        -13    1    3    3    0    0 -0.22354397263E+03  0.24254806458E+01 -0.65304514279E+03  0.69025049741E+03  0.00000000000E+00 0.  1.
         22    1    1    2    0    0  0.58579092758E+03 -0.11907143250E+03  0.49399914697E+03  0.77547673987E+03  0.00000000000E+00 0.  1.
<mgrwt>
<rscale>  0 0.23790539E+04</rscale>
<asrwt>0</asrwt>
<pdfrwt beam="1">  1        2 0.31917961E+00 0.23790539E+04</pdfrwt>
<pdfrwt beam="2">  1       -2 0.10492687E+00 0.23790539E+04</pdfrwt>
<totfact> 0.40260024E+00</totfact>
</mgrwt>
</event>
<event>
 6    1  0.1817112E-005  0.2779930E+04  0.7818608E-02  0.8309526E-01
         -2   -1    0    0    0  501 -0.00000000000E+00  0.00000000000E+00  0.15729026554E+04  0.15729026554E+04  0.00000000000E+00 0.  1.
          2   -1    0    0  501    0  0.00000000000E+00 -0.00000000000E+00 -0.12283043211E+04  0.12283043211E+04  0.00000000000E+00 0. -1.
         23    2    1    2    0    0 -0.54918196712E+03 -0.50557851302E+03  0.13522602681E+04  0.15471762597E+04  0.89084678890E+02 0.  0.
         11    1    3    3    0    0 -0.41526073218E+03 -0.38626019415E+03  0.11007455781E+04  0.12382565328E+04  0.00000000000E+00 0. -1.
        -11    1    3    3    0    0 -0.13392123494E+03 -0.11931831887E+03  0.25151469007E+03  0.30891972696E+03  0.00000000000E+00 0.  1.
         22    1    1    2    0    0  0.54918196712E+03  0.50557851302E+03 -0.10076619338E+04  0.12540307168E+04  0.00000000000E+00 0. -1.
<mgrwt>
<rscale>  0 0.27799303E+04</rscale>
<asrwt>0</asrwt>
<pdfrwt beam="1">  1        2 0.18896989E+00 0.27799303E+04</pdfrwt>
<pdfrwt beam="2">  1       -2 0.24198502E+00 0.27799303E+04</pdfrwt>
<totfact> 0.11434429E+00</totfact>
</mgrwt>
</event>
<event>
 6    1  0.1817112E-005  0.1041434E+04  0.7818608E-02  0.9264233E-01
         -2   -1    0    0    0  501 -0.00000000000E+00  0.00000000000E+00  0.51855792991E+03  0.51855792991E+03  0.00000000000E+00 0.  1.
          2   -1    0    0  501    0  0.00000000000E+00 -0.00000000000E+00 -0.52288487839E+03  0.52288487839E+03  0.00000000000E+00 0. -1.
         23    2    1    2    0    0 -0.47356692810E+03 -0.20564628996E+03  0.16093100478E+02  0.52474849793E+03  0.92444395394E+02 0.  0.
         11    1    3    3    0    0 -0.38479795618E+02 -0.23242713217E+02 -0.24557985277E+02  0.51225121076E+02  0.00000000000E+00 0. -1.
        -11    1    3    3    0    0 -0.43508713248E+03 -0.18240357674E+03  0.40651085755E+02  0.47352337686E+03  0.00000000000E+00 0.  1.
         22    1    1    2    0    0  0.47356692810E+03  0.20564628996E+03 -0.20420048957E+02  0.51669431036E+03  0.00000000000E+00 0.  1.
<mgrwt>
<rscale>  0 0.10414338E+04</rscale>
<asrwt>0</asrwt>
<pdfrwt beam="1">  1        2 0.80443828E-01 0.10414338E+04</pdfrwt>
<pdfrwt beam="2">  1       -2 0.79778143E-01 0.10414338E+04</pdfrwt>
<totfact> 0.81032370E+01</totfact>
</mgrwt>
</event>
<event>
 6    1  0.1817112E-005  0.2267886E+04  0.7818608E-02  0.8490692E-01
          2   -1    0    0  501    0  0.00000000000E+00  0.00000000000E+00  0.16590359278E+04  0.16590359278E+04  0.00000000000E+00 0. -1.
         -2   -1    0    0    0  501 -0.00000000000E+00 -0.00000000000E+00 -0.77504467616E+03  0.77504467616E+03  0.00000000000E+00 0.  1.
         23    2    1    2    0    0 -0.47951230612E+03 -0.42226605687E+03 -0.56032527263E+03  0.85474818271E+03  0.91593505146E+02 0.  0.
         13    1    3    3    0    0 -0.18827467508E+03 -0.19776251222E+03 -0.29025280679E+03  0.39850226645E+03  0.00000000000E+00 0.  1.
        -13    1    3    3    0    0 -0.29123763104E+03 -0.22450354466E+03 -0.27007246584E+03  0.45624591626E+03  0.00000000000E+00 0. -1.
         22    1    1    2    0    0  0.47951230612E+03  0.42226605687E+03  0.14443165243E+04  0.15793324212E+04  0.00000000000E+00 0. -1.
<mgrwt>
<rscale>  0 0.22678862E+04</rscale>
<asrwt>0</asrwt>
<pdfrwt beam="1">  1        2 0.25523629E+00 0.22678862E+04</pdfrwt>
<pdfrwt beam="2">  1       -2 0.11923764E+00 0.22678862E+04</pdfrwt>
<totfact> 0.50693192E+00</totfact>
</mgrwt>
</event>
<event>
 6    1  0.1817112E-005  0.5404349E+03  0.7818608E-02  0.1003732E+00
         -2   -1    0    0    0  501 -0.00000000000E+00  0.00000000000E+00  0.60718987160E+03  0.60718987160E+03  0.00000000000E+00 0.  1.
          2   -1    0    0  501    0  0.00000000000E+00 -0.00000000000E+00 -0.12025477078E+03  0.12025477078E+03  0.00000000000E+00 0. -1.
         23    2    1    2    0    0  0.88144565485E+00 -0.18369820677E+03  0.50281976511E+03  0.54305882222E+03  0.91320096879E+02 0.  0.
         13    1    3    3    0    0 -0.29861637723E+02 -0.15483823635E+02  0.69291874616E+02  0.77024866696E+02  0.00000000000E+00 0. -1.
        -13    1    3    3    0    0  0.30743083378E+02 -0.16821438313E+03  0.43352789049E+03  0.46603395553E+03  0.00000000000E+00 0.  1.
         22    1    1    2    0    0 -0.88144565485E+00  0.18369820677E+03 -0.15884664288E+02  0.18438582016E+03  0.00000000000E+00 0. -1.
<mgrwt>
<rscale>  0 0.54043493E+03</rscale>
<asrwt>0</asrwt>
<pdfrwt beam="1">  1        2 0.18500734E-01 0.54043493E+03</pdfrwt>
<pdfrwt beam="2">  1       -2 0.93413825E-01 0.54043493E+03</pdfrwt>
<totfact> 0.30555197E+02</totfact>
</mgrwt>
</event>
<event>
 6    1  0.1817112E-005  0.3879689E+04  0.7818608E-02  0.8029267E-01
         -1   -1    0    0    0  501 -0.00000000000E+00  0.00000000000E+00  0.12608748494E+04  0.12608748494E+04  0.00000000000E+00 0.  1.
          1   -1    0    0  501    0  0.00000000000E+00 -0.00000000000E+00 -0.29844334300E+04  0.29844334300E+04  0.00000000000E+00 0. -1.
         23    2    1    2    0    0 -0.92550502235E+03  0.15964480013E+04 -0.21128064564E+03  0.18594771202E+04  0.88373536875E+02 0.  0.
         11    1    3    3    0    0 -0.19984382602E+03  0.40028000084E+03 -0.77053335654E+02  0.45398111239E+03  0.00000000000E+00 0.  1.
        -11    1    3    3    0    0 -0.72566119634E+03  0.11961680005E+04 -0.13422730999E+03  0.14054960078E+04  0.00000000000E+00 0. -1.
         22    1    1    2    0    0  0.92550502235E+03 -0.15964480013E+04 -0.15122779350E+04  0.23858311592E+04  0.00000000000E+00 0. -1.
<mgrwt>
<rscale>  0 0.38796892E+04</rscale>
<asrwt>0</asrwt>
<pdfrwt beam="1">  1        1 0.45914361E+00 0.38796892E+04</pdfrwt>
<pdfrwt beam="2">  1       -1 0.19398075E+00 0.38796892E+04</pdfrwt>
<totfact> 0.80320978E-02</totfact>
</mgrwt>
</event>
<event>
 6    1  0.1817112E-005  0.2032418E+04  0.7818608E-02  0.8591612E-01
         -2   -1    0    0    0  501 -0.00000000000E+00  0.00000000000E+00  0.80951080889E+03  0.80951080889E+03  0.00000000000E+00 0.  1.
          2   -1    0    0  501    0  0.00000000000E+00 -0.00000000000E+00 -0.12756854668E+04  0.12756854668E+04  0.00000000000E+00 0. -1.
         23    2    1    2    0    0 -0.39451715967E+03 -0.24147572515E+03  0.69233759754E+03  0.83775691398E+03  0.92471524485E+02 0.  0.
         11    1    3    3    0    0 -0.33670108395E+03 -0.16906410994E+03  0.52081430364E+03  0.64280466091E+03  0.00000000000E+00 0.  1.
        -11    1    3    3    0    0 -0.57816075722E+02 -0.72411615214E+02  0.17152329389E+03  0.19495225307E+03  0.00000000000E+00 0. -1.
         22    1    1    2    0    0  0.39451715967E+03  0.24147572515E+03 -0.11585122555E+04  0.12474393617E+04  0.00000000000E+00 0. -1.
<mgrwt>
<rscale>  0 0.20324184E+04</rscale>
<asrwt>0</asrwt>
<pdfrwt beam="1">  1        2 0.19625930E+00 0.20324184E+04</pdfrwt>
<pdfrwt beam="2">  1       -2 0.12454012E+00 0.20324184E+04</pdfrwt>
<totfact> 0.76615364E+00</totfact>
</mgrwt>
</event>
<event>
 6    1  0.1817112E-005  0.1081914E+04  0.7818608E-02  0.9223001E-01
          2   -1    0    0  501    0  0.00000000000E+00  0.00000000000E+00  0.16259542049E+03  0.16259542049E+03  0.00000000000E+00 0. -1.
         -2   -1    0    0    0  501 -0.00000000000E+00 -0.00000000000E+00 -0.17997716768E+04  0.17997716768E+04  0.00000000000E+00 0.  1.
         23    2    1    2    0    0 -0.18143651491E+03  0.17438693328E+03 -0.16851700883E+04  0.17061768957E+04  0.88945834680E+02 0.  0.
         11    1    3    3    0    0 -0.98609089664E+01 -0.68519457165E+01 -0.18496974666E+03  0.18535909437E+03  0.00000000000E+00 0. -1.
        -11    1    3    3    0    0 -0.17157560594E+03  0.18123887900E+03 -0.15002003417E+04  0.15208178014E+04  0.00000000000E+00 0.  1.
         22    1    1    2    0    0  0.18143651491E+03 -0.17438693328E+03  0.47993832049E+02  0.25619020152E+03  0.00000000000E+00 0. -1.
<mgrwt>
<rscale>  0 0.10819143E+04</rscale>
<asrwt>0</asrwt>
<pdfrwt beam="1">  1        2 0.25014680E-01 0.10819143E+04</pdfrwt>
<pdfrwt beam="2">  1       -2 0.27688795E+00 0.10819143E+04</pdfrwt>
<totfact> 0.96669300E+00</totfact>
</mgrwt>
</event>
<event>
 6    1  0.1817112E-005  0.1079424E+04  0.7818608E-02  0.9225482E-01
         -2   -1    0    0    0  501 -0.00000000000E+00  0.00000000000E+00  0.14460573674E+04  0.14460573674E+04  0.00000000000E+00 0.  1.
          2   -1    0    0  501    0  0.00000000000E+00 -0.00000000000E+00 -0.20143680631E+03  0.20143680631E+03  0.00000000000E+00 0. -1.
         23    2    1    2    0    0  0.24401509186E+03 -0.32705946970E+03  0.11564162643E+04  0.12300121265E+04  0.95498655328E+02 0.  0.
         11    1    3    3    0    0  0.16218872455E+03 -0.14988790128E+03  0.53902732086E+03  0.58251353457E+03  0.00000000000E+00 0. -1.
        -11    1    3    3    0    0  0.81826367315E+02 -0.17717156842E+03  0.61738894347E+03  0.64749859194E+03  0.00000000000E+00 0.  1.
         22    1    1    2    0    0 -0.24401509186E+03  0.32705946970E+03  0.88204296780E+02  0.41748204722E+03  0.00000000000E+00 0.  1.
<mgrwt>
<rscale>  0 0.10794242E+04</rscale>
<asrwt>0</asrwt>
<pdfrwt beam="1">  1        2 0.30990279E-01 0.10794242E+04</pdfrwt>
<pdfrwt beam="2">  1       -2 0.22247036E+00 0.10794242E+04</pdfrwt>
<totfact> 0.16297606E+01</totfact>
</mgrwt>
</event>
<event>
 6    1  0.1817112E-005  0.2731336E+04  0.7818608E-02  0.8324909E-01
         -2   -1    0    0    0  501 -0.00000000000E+00  0.00000000000E+00  0.73865549599E+03  0.73865549599E+03  0.00000000000E+00 0.  1.
          2   -1    0    0  501    0  0.00000000000E+00 -0.00000000000E+00 -0.25249239680E+04  0.25249239680E+04  0.00000000000E+00 0. -1.
         23    2    1    2    0    0 -0.85505205929E+03 -0.88263207348E+03 -0.16018518138E+04  0.20209359491E+04  0.89997087311E+02 0.  0.
         11    1    3    3    0    0 -0.49937842472E+03 -0.48177311283E+03 -0.96568789917E+03  0.11891329875E+04  0.00000000000E+00 0.  1.
        -11    1    3    3    0    0 -0.35567363457E+03 -0.40085896065E+03 -0.63616391467E+03  0.83180296164E+03  0.00000000000E+00 0. -1.
         22    1    1    2    0    0  0.85505205929E+03  0.88263207348E+03 -0.18441665817E+03  0.12426435149E+04  0.00000000000E+00 0.  1.
<mgrwt>
<rscale>  0 0.27313359E+04</rscale>
<asrwt>0</asrwt>
<pdfrwt beam="1">  1        2 0.38844984E+00 0.27313359E+04</pdfrwt>
<pdfrwt beam="2">  1       -2 0.11363931E+00 0.27313359E+04</pdfrwt>
<totfact> 0.17880356E+00</totfact>
</mgrwt>
</event>
<event>
 6    1  0.1817112E-005  0.1630082E+04  0.7818608E-02  0.8802278E-01
          2   -1    0    0  501    0  0.00000000000E+00  0.00000000000E+00  0.26879679304E+04  0.26879679304E+04  0.00000000000E+00 0. -1.
         -2   -1    0    0    0  501 -0.00000000000E+00 -0.00000000000E+00 -0.24713529584E+03  0.24713529584E+03  0.00000000000E+00 0.  1.
         23    2    1    2    0    0 -0.43055658685E+03  0.67258928061E+03  0.14932844990E+04  0.16959088169E+04  0.91939140060E+02 0.  0.
         11    1    3    3    0    0 -0.11761972296E+03  0.25419759974E+03  0.47584489493E+03  0.55215865743E+03  0.00000000000E+00 0. -1.
        -11    1    3    3    0    0 -0.31293686389E+03  0.41839168088E+03  0.10174396040E+04  0.11437501595E+04  0.00000000000E+00 0.  1.
         22    1    1    2    0    0  0.43055658685E+03 -0.67258928061E+03  0.94754813557E+03  0.12391944093E+04  0.00000000000E+00 0.  1.
<mgrwt>
<rscale>  0 0.16300819E+04</rscale>
<asrwt>0</asrwt>
<pdfrwt beam="1">  1        2 0.41353351E+00 0.16300819E+04</pdfrwt>
<pdfrwt beam="2">  1       -2 0.38020817E-01 0.16300819E+04</pdfrwt>
<totfact> 0.16918987E+01</totfact>
</mgrwt>
</event>
<event>
 6    1  0.1817112E-005  0.3763403E+04  0.7818608E-02  0.8054054E-01
          2   -1    0    0  501    0  0.00000000000E+00  0.00000000000E+00  0.14147106752E+04  0.14147106752E+04  0.00000000000E+00 0. -1.
         -2   -1    0    0    0  501 -0.00000000000E+00 -0.00000000000E+00 -0.25028444818E+04  0.25028444818E+04  0.00000000000E+00 0.  1.
         23    2    1    2    0    0 -0.42390334528E+03 -0.17151886458E+04 -0.12151822670E+04  0.21461976415E+04  0.89051881400E+02 0.  0.
         11    1    3    3    0    0 -0.26546340048E+03 -0.96555107862E+03 -0.73151792768E+03  0.12401121647E+04  0.00000000000E+00 0.  1.
        -11    1    3    3    0    0 -0.15843994480E+03 -0.74963756714E+03 -0.48366433931E+03  0.90608547681E+03  0.00000000000E+00 0. -1.
         22    1    1    2    0    0  0.42390334528E+03  0.17151886458E+04  0.12704846033E+03  0.17713575156E+04  0.00000000000E+00 0. -1.
<mgrwt>
<rscale>  0 0.37634031E+04</rscale>
<asrwt>0</asrwt>
<pdfrwt beam="1">  1        2 0.21764780E+00 0.37634031E+04</pdfrwt>
<pdfrwt beam="2">  1       -2 0.38505299E+00 0.37634031E+04</pdfrwt>
<totfact> 0.10593173E-01</totfact>
</mgrwt>
</event>
<event>
 6    1  0.1817112E-005  0.3570130E+04  0.7818608E-02  0.8097368E-01
         -2   -1    0    0    0  501 -0.00000000000E+00  0.00000000000E+00  0.29466373749E+04  0.29466373749E+04  0.00000000000E+00 0.  1.
          2   -1    0    0  501    0  0.00000000000E+00 -0.00000000000E+00 -0.10813874720E+04  0.10813874720E+04  0.00000000000E+00 0. -1.
         23    2    1    2    0    0  0.55171748236E+03  0.13077563015E+04  0.21524140270E+04  0.25798943422E+04  0.91378055391E+02 0.  0.
         13    1    3    3    0    0  0.34884837204E+03  0.71013428876E+03  0.11994255869E+04  0.14368742579E+04  0.00000000000E+00 0.  1.
        -13    1    3    3    0    0  0.20286911033E+03  0.59762201274E+03  0.95298844016E+03  0.11430200843E+04  0.00000000000E+00 0. -1.
         22    1    1    2    0    0 -0.55171748236E+03 -0.13077563015E+04 -0.28716412410E+03  0.14481305047E+04  0.00000000000E+00 0. -1.
<mgrwt>
<rscale>  0 0.35701298E+04</rscale>
<asrwt>0</asrwt>
<pdfrwt beam="1">  1        2 0.16636730E+00 0.35701298E+04</pdfrwt>
<pdfrwt beam="2">  1       -2 0.45332882E+00 0.35701298E+04</pdfrwt>
<totfact> 0.60252551E-02</totfact>
</mgrwt>
</event>
<event>
 6    1  0.1817112E-005  0.3394880E+04  0.7818608E-02  0.8139164E-01
          2   -1    0    0  501    0  0.00000000000E+00  0.00000000000E+00  0.29576764571E+04  0.29576764571E+04  0.00000000000E+00 0. -1.
         -2   -1    0    0    0  501 -0.00000000000E+00 -0.00000000000E+00 -0.97417763557E+03  0.97417763557E+03  0.00000000000E+00 0.  1.
         23    2    1    2    0    0 -0.56564463810E+03 -0.11054066483E+04 -0.34578581808E+03  0.12922623350E+04  0.92175896687E+02 0.  0.
         11    1    3    3    0    0 -0.38622747615E+03 -0.73162951028E+03 -0.27383100269E+03  0.87145672392E+03  0.00000000000E+00 0. -1.
        -11    1    3    3    0    0 -0.17941716195E+03 -0.37377713799E+03 -0.71954815391E+02  0.42080561111E+03  0.00000000000E+00 0.  1.
         22    1    1    2    0    0  0.56564463810E+03  0.11054066483E+04  0.23292846396E+04  0.26395917576E+04  0.00000000000E+00 0. -1.
<mgrwt>
<rscale>  0 0.33948798E+04</rscale>
<asrwt>0</asrwt>
<pdfrwt beam="1">  1        2 0.45502714E+00 0.33948798E+04</pdfrwt>
<pdfrwt beam="2">  1       -2 0.14987348E+00 0.33948798E+04</pdfrwt>
<totfact> 0.46022992E-01</totfact>
</mgrwt>
</event>
<event>
 6    1  0.1817112E-005  0.1210364E+04  0.7818608E-02  0.9103833E-01
          2   -1    0    0  501    0  0.00000000000E+00  0.00000000000E+00  0.36290092877E+03  0.36290092877E+03  0.00000000000E+00 0. -1.
         -2   -1    0    0    0  501 -0.00000000000E+00 -0.00000000000E+00 -0.10092160682E+04  0.10092160682E+04  0.00000000000E+00 0.  1.
         23    2    1    2    0    0  0.13842823149E+03  0.19208228583E+03  0.30198053471E+03  0.39471090665E+03  0.92447156154E+02 0.  0.
         13    1    3    3    0    0  0.79482938682E+02  0.44657929431E+02  0.14607563296E+03  0.17219163379E+03  0.00000000000E+00 0. -1.
        -13    1    3    3    0    0  0.58945292811E+02  0.14742435640E+03  0.15590490175E+03  0.22251927286E+03  0.00000000000E+00 0.  1.
         22    1    1    2    0    0 -0.13842823149E+03 -0.19208228583E+03 -0.94829567416E+03  0.97740609034E+03  0.00000000000E+00 0.  1.
<mgrwt>
<rscale>  0 0.12103643E+04</rscale>
<asrwt>0</asrwt>
<pdfrwt beam="1">  1        2 0.55830913E-01 0.12103643E+04</pdfrwt>
<pdfrwt beam="2">  1       -2 0.15526401E+00 0.12103643E+04</pdfrwt>
<totfact> 0.23882683E+01</totfact>
</mgrwt>
</event>
<event>
 6    1  0.1817112E-005  0.1884195E+04  0.7818608E-02  0.8662764E-01
         -2   -1    0    0    0  501 -0.00000000000E+00  0.00000000000E+00  0.50904866699E+03  0.50904866699E+03  0.00000000000E+00 0.  1.
          2   -1    0    0  501    0  0.00000000000E+00 -0.00000000000E+00 -0.17435414775E+04  0.17435414775E+04  0.00000000000E+00 0. -1.
         23    2    1    2    0    0 -0.84047723724E+03 -0.36275291926E+03 -0.87270401926E+03  0.12682717020E+04  0.94388231256E+02 0.  0.
         13    1    3    3    0    0 -0.57831686685E+03 -0.29441190322E+03 -0.63268891602E+03  0.90632446270E+03  0.00000000000E+00 0.  1.
        -13    1    3    3    0    0 -0.26216037039E+03 -0.68341016043E+02 -0.24001510324E+03  0.36194723933E+03  0.00000000000E+00 0. -1.
         22    1    1    2    0    0  0.84047723724E+03  0.36275291926E+03 -0.36178879129E+03  0.98431844250E+03  0.00000000000E+00 0.  1.
<mgrwt>
<rscale>  0 0.18841948E+04</rscale>
<asrwt>0</asrwt>
<pdfrwt beam="1">  1        2 0.26823715E+00 0.18841948E+04</pdfrwt>
<pdfrwt beam="2">  1       -2 0.78315179E-01 0.18841948E+04</pdfrwt>
<totfact> 0.12610289E+01</totfact>
</mgrwt>
</event>
<event>
 6    1  0.1817112E-005  0.2663141E+04  0.7818608E-02  0.8347065E-01
         -2   -1    0    0    0  501 -0.00000000000E+00  0.00000000000E+00  0.44258912985E+03  0.44258912985E+03  0.00000000000E+00 0. -1.
          2   -1    0    0  501    0  0.00000000000E+00 -0.00000000000E+00 -0.40061525499E+04  0.40061525499E+04  0.00000000000E+00 0.  1.
         23    2    1    2    0    0 -0.65459722556E+03 -0.11493365020E+04 -0.20170881255E+04  0.24137827713E+04  0.90723967835E+02 0.  0.
         11    1    3    3    0    0 -0.45523996324E+03 -0.86897127416E+03 -0.15288856824E+04  0.18165478054E+04  0.00000000000E+00 0.  1.
        -11    1    3    3    0    0 -0.19935726231E+03 -0.28036522783E+03 -0.48820244312E+03  0.59723496589E+03  0.00000000000E+00 0. -1.
         22    1    1    2    0    0  0.65459722556E+03  0.11493365020E+04 -0.15464752945E+04  0.20349589084E+04  0.00000000000E+00 0.  1.
<mgrwt>
<rscale>  0 0.26631407E+04</rscale>
<asrwt>0</asrwt>
<pdfrwt beam="1">  1        2 0.61633115E+00 0.26631407E+04</pdfrwt>
<pdfrwt beam="2">  1       -2 0.68090637E-01 0.26631407E+04</pdfrwt>
<totfact> 0.58868237E-01</totfact>
</mgrwt>
</event>
<event>
 6    1  0.1817112E-005  0.2336892E+04  0.7818608E-02  0.8463515E-01
          2   -1    0    0  501    0  0.00000000000E+00  0.00000000000E+00  0.19455467506E+04  0.19455467506E+04  0.00000000000E+00 0. -1.
         -2   -1    0    0    0  501 -0.00000000000E+00 -0.00000000000E+00 -0.70173928179E+03  0.70173928179E+03  0.00000000000E+00 0.  1.
         23    2    1    2    0    0 -0.60699951504E+03  0.52034109439E+03  0.15854499654E+04  0.17778477877E+04  0.88813837313E+02 0.  0.
         13    1    3    3    0    0 -0.37585706761E+03  0.29660466859E+03  0.10329237293E+04  0.11384965065E+04  0.00000000000E+00 0. -1.
        -13    1    3    3    0    0 -0.23114244743E+03  0.22373642580E+03  0.55252623607E+03  0.63935128120E+03  0.00000000000E+00 0.  1.
         22    1    1    2    0    0  0.60699951504E+03 -0.52034109439E+03 -0.34164249663E+03  0.86943824465E+03  0.00000000000E+00 0.  1.
<mgrwt>
<rscale>  0 0.23368924E+04</rscale>
<asrwt>0</asrwt>
<pdfrwt beam="1">  1        2 0.29931488E+00 0.23368924E+04</pdfrwt>
<pdfrwt beam="2">  1       -2 0.10795989E+00 0.23368924E+04</pdfrwt>
<totfact> 0.44513790E+00</totfact>
</mgrwt>
</event>
<event>
 6    1  0.2344600E-005  0.1764436E+04  0.7818608E-02  0.8725444E-01
         -2   -1    0    0    0  501 -0.00000000000E+00  0.00000000000E+00  0.54839818460E+03  0.54839818460E+03  0.00000000000E+00 0.  1.
          2   -1    0    0  501    0  0.00000000000E+00 -0.00000000000E+00 -0.14192405117E+04  0.14192405117E+04  0.00000000000E+00 0. -1.
         23    2    1    2    0    0 -0.24185076596E+03  0.45962505496E+03 -0.12286583144E+04  0.13369412530E+04  0.89797974883E+02 0.  0.
         11    1    3    3    0    0 -0.98767807756E+02  0.23345584668E+03 -0.49783297056E+03  0.55865407792E+03  0.00000000000E+00 0. -1.
        -11    1    3    3    0    0 -0.14308295821E+03  0.22616920828E+03 -0.73082534384E+03  0.77828717508E+03  0.00000000000E+00 0.  1.
         22    1    1    2    0    0  0.24185076596E+03 -0.45962505496E+03  0.35781598733E+03  0.63069744326E+03  0.00000000000E+00 0.  1.
<mgrwt>
<rscale>  0 0.17644364E+04</rscale>
<asrwt>0</asrwt>
<pdfrwt beam="1">  1        2 0.21834469E+00 0.17644364E+04</pdfrwt>
<pdfrwt beam="2">  1       -2 0.84368952E-01 0.17644364E+04</pdfrwt>
<totfact> 0.16370195E+01</totfact>
</mgrwt>
</event>
<event>
 6    1  0.1817112E-005  0.1574830E+04  0.7818608E-02  0.8836162E-01
          2   -1    0    0  501    0  0.00000000000E+00  0.00000000000E+00  0.18781142798E+04  0.18781142798E+04  0.00000000000E+00 0. -1.
         -2   -1    0    0    0  501 -0.00000000000E+00 -0.00000000000E+00 -0.33013013643E+03  0.33013013643E+03  0.00000000000E+00 0.  1.
         23    2    1    2    0    0  0.36617783271E+03  0.69068708567E+03  0.87379582137E+03  0.11759340225E+04  0.90370528103E+02 0.  0.
         13    1    3    3    0    0  0.12763079027E+03  0.32707184833E+03  0.36119670694E+03  0.50371487342E+03  0.00000000000E+00 0. -1.
        -13    1    3    3    0    0  0.23854704244E+03  0.36361523734E+03  0.51259911442E+03  0.67221914908E+03  0.00000000000E+00 0.  1.
         22    1    1    2    0    0 -0.36617783271E+03 -0.69068708567E+03  0.67418832198E+03  0.10323103937E+04  0.00000000000E+00 0.  1.
<mgrwt>
<rscale>  0 0.15748297E+04</rscale>
<asrwt>0</asrwt>
<pdfrwt beam="1">  1        2 0.28894065E+00 0.15748297E+04</pdfrwt>
<pdfrwt beam="2">  1       -2 0.50789253E-01 0.15748297E+04</pdfrwt>
<totfact> 0.27497128E+01</totfact>
</mgrwt>
</event>
<event>
 6    1  0.2217718E-005  0.2857804E+04  0.7818608E-02  0.8285544E-01
         -2   -1    0    0    0  501 -0.00000000000E+00  0.00000000000E+00  0.16111478473E+04  0.16111478473E+04  0.00000000000E+00 0.  1.
          2   -1    0    0  501    0  0.00000000000E+00 -0.00000000000E+00 -0.12672706279E+04  0.12672706279E+04  0.00000000000E+00 0. -1.
         23    2    1    2    0    0 -0.85097846658E+03 -0.19003452584E+03 -0.96427295428E+03  0.13063070452E+04  0.12782133756E+03 0.  0.
         13    1    3    3    0    0 -0.54230182929E+03 -0.18348663686E+03 -0.62348029940E+03  0.84645513980E+03  0.00000000000E+00 0.  1.
        -13    1    3    3    0    0 -0.30867663730E+03 -0.65478889774E+01 -0.34079265488E+03  0.45985190538E+03  0.00000000000E+00 0. -1.
         22    1    1    2    0    0  0.85097846658E+03  0.19003452584E+03  0.13081501736E+04  0.15721114300E+04  0.00000000000E+00 0.  1.
<mgrwt>
<rscale>  0 0.28578036E+04</rscale>
<asrwt>0</asrwt>
<pdfrwt beam="1">  1        2 0.19496471E+00 0.28578036E+04</pdfrwt>
<pdfrwt beam="2">  1       -2 0.24786890E+00 0.28578036E+04</pdfrwt>
<totfact> 0.99109089E-01</totfact>
</mgrwt>
</event>
<event>
 6    1  0.1817112E-005  0.4759581E+04  0.7818608E-02  0.7866704E-01
         -2   -1    0    0    0  501 -0.00000000000E+00  0.00000000000E+00  0.15465921368E+04  0.15465921368E+04  0.00000000000E+00 0.  1.
          2   -1    0    0  501    0  0.00000000000E+00 -0.00000000000E+00 -0.36618592706E+04  0.36618592706E+04  0.00000000000E+00 0. -1.
         23    2    1    2    0    0  0.28880872630E+03 -0.72449781605E+03 -0.35173905869E+04  0.36040020490E+04  0.92123081996E+02 0.  0.
         11    1    3    3    0    0  0.15105169180E+03 -0.31675984615E+03 -0.13998718857E+04  0.14431890763E+04  0.00000000000E+00 0. -1.
        -11    1    3    3    0    0  0.13775703450E+03 -0.40773796990E+03 -0.21175187012E+04  0.21608129726E+04  0.00000000000E+00 0.  1.
         22    1    1    2    0    0 -0.28880872630E+03  0.72449781605E+03  0.14021234531E+04  0.16044493584E+04  0.00000000000E+00 0.  1.
<mgrwt>
<rscale>  0 0.47595810E+04</rscale>
<asrwt>0</asrwt>
<pdfrwt beam="1">  1        2 0.56336297E+00 0.47595810E+04</pdfrwt>
<pdfrwt beam="2">  1       -2 0.23793725E+00 0.47595810E+04</pdfrwt>
<totfact> 0.35154982E-02</totfact>
</mgrwt>
</event>
<event>
 6    1  0.1817112E-005  0.4128121E+04  0.7818608E-02  0.7979188E-01
         -2   -1    0    0    0  501 -0.00000000000E+00  0.00000000000E+00  0.11612472947E+04  0.11612472947E+04  0.00000000000E+00 0.  1.
          2   -1    0    0  501    0  0.00000000000E+00 -0.00000000000E+00 -0.36687662232E+04  0.36687662232E+04  0.00000000000E+00 0. -1.
         23    2    1    2    0    0 -0.58778718614E+03  0.19760168457E+04 -0.13450182283E+04  0.24632553493E+04  0.91741652585E+02 0.  0.
         11    1    3    3    0    0 -0.48532985815E+03  0.15041170270E+04 -0.10464867758E+04  0.18955336119E+04  0.00000000000E+00 0. -1.
        -11    1    3    3    0    0 -0.10245732800E+03  0.47189981871E+03 -0.29853145251E+03  0.56772173738E+03  0.00000000000E+00 0.  1.
         22    1    1    2    0    0  0.58778718614E+03 -0.19760168457E+04 -0.11625007003E+04  0.23667581686E+04  0.00000000000E+00 0. -1.
<mgrwt>
<rscale>  0 0.41281206E+04</rscale>
<asrwt>0</asrwt>
<pdfrwt beam="1">  1        2 0.56442557E+00 0.41281206E+04</pdfrwt>
<pdfrwt beam="2">  1       -2 0.17865343E+00 0.41281206E+04</pdfrwt>
<totfact> 0.88807487E-02</totfact>
</mgrwt>
</event>
<event>
 6    1  0.1817112E-005  0.1812844E+04  0.7818608E-02  0.8699499E-01
          2   -1    0    0  501    0  0.00000000000E+00  0.00000000000E+00  0.80674571039E+03  0.80674571039E+03  0.00000000000E+00 0. -1.
         -2   -1    0    0    0  501 -0.00000000000E+00 -0.00000000000E+00 -0.10184131258E+04  0.10184131258E+04  0.00000000000E+00 0.  1.
         23    2    1    2    0    0  0.48304831234E+03  0.72187320957E+03  0.14635319930E+03  0.88568272512E+03  0.92617643531E+02 0.  0.
         11    1    3    3    0    0  0.14938323538E+03  0.16356338014E+03  0.60477189002E+02  0.22962103720E+03  0.00000000000E+00 0.  1.
        -11    1    3    3    0    0  0.33366507696E+03  0.55830982942E+03  0.85876010299E+02  0.65606168792E+03  0.00000000000E+00 0. -1.
         22    1    1    2    0    0 -0.48304831234E+03 -0.72187320957E+03 -0.35802061474E+03  0.93947611110E+03  0.00000000000E+00 0.  1.
<mgrwt>
<rscale>  0 0.18128435E+04</rscale>
<asrwt>0</asrwt>
<pdfrwt beam="1">  1        2 0.12411473E+00 0.18128435E+04</pdfrwt>
<pdfrwt beam="2">  1       -2 0.15667894E+00 0.18128435E+04</pdfrwt>
<totfact> 0.85624091E+00</totfact>
</mgrwt>
</event>
<event>
 6    1  0.1817112E-005  0.6487819E+04  0.7818608E-02  0.7632695E-01
          2   -1    0    0  501    0  0.00000000000E+00  0.00000000000E+00  0.40702937513E+04  0.40702937513E+04  0.00000000000E+00 0. -1.
         -2   -1    0    0    0  501 -0.00000000000E+00 -0.00000000000E+00 -0.25853048758E+04  0.25853048758E+04  0.00000000000E+00 0.  1.
         23    2    1    2    0    0 -0.53752311722E+02 -0.29498030712E+04  0.21245884823E+04  0.36367718472E+04  0.89475020210E+02 0.  0.
         11    1    3    3    0    0 -0.24003765418E+02 -0.85814224835E+03  0.56958642880E+03  0.10302489986E+04  0.00000000000E+00 0. -1.
        -11    1    3    3    0    0 -0.29748546305E+02 -0.20916608229E+04  0.15550020535E+04  0.26065228486E+04  0.00000000000E+00 0.  1.
         22    1    1    2    0    0  0.53752311722E+02  0.29498030712E+04 -0.63959960681E+03  0.30188267799E+04  0.00000000000E+00 0.  1.
<mgrwt>
<rscale>  0 0.64878194E+04</rscale>
<asrwt>0</asrwt>
<pdfrwt beam="1">  1        2 0.62619903E+00 0.64878194E+04</pdfrwt>
<pdfrwt beam="2">  1       -2 0.39773921E+00 0.64878194E+04</pdfrwt>
<totfact> 0.14842320E-03</totfact>
</mgrwt>
</event>
<event>
 6    1  0.1817112E-005  0.1598512E+04  0.7818608E-02  0.8821462E-01
          2   -1    0    0  501    0  0.00000000000E+00  0.00000000000E+00  0.12489944401E+04  0.12489944401E+04  0.00000000000E+00 0. -1.
         -2   -1    0    0    0  501 -0.00000000000E+00 -0.00000000000E+00 -0.51145988373E+03  0.51145988373E+03  0.00000000000E+00 0.  1.
         23    2    1    2    0    0 -0.34737627254E+03  0.21819585138E+03  0.11221016974E+04  0.11981629490E+04  0.90567813376E+02 0.  0.
         13    1    3    3    0    0 -0.32811365808E+03  0.18953707827E+03  0.10744941965E+04  0.11393509797E+04  0.00000000000E+00 0. -1.
        -13    1    3    3    0    0 -0.19262614458E+02  0.28658773111E+02  0.47607500883E+02  0.58811969295E+02  0.00000000000E+00 0.  1.
         22    1    1    2    0    0  0.34737627254E+03 -0.21819585138E+03 -0.38456714099E+03  0.56229137484E+03  0.00000000000E+00 0.  1.
<mgrwt>
<rscale>  0 0.15985125E+04</rscale>
<asrwt>0</asrwt>
<pdfrwt beam="1">  1        2 0.19215299E+00 0.15985125E+04</pdfrwt>
<pdfrwt beam="2">  1       -2 0.78686136E-01 0.15985125E+04</pdfrwt>
<totfact> 0.24372911E+01</totfact>
</mgrwt>
</event>
<event>
 6    1  0.1817112E-005  0.5241246E+04  0.7818608E-02  0.7792333E-01
         -2   -1    0    0    0  501 -0.00000000000E+00  0.00000000000E+00  0.33744173251E+04  0.33744173251E+04  0.00000000000E+00 0.  1.
          2   -1    0    0  501    0  0.00000000000E+00 -0.00000000000E+00 -0.20352153508E+04  0.20352153508E+04  0.00000000000E+00 0. -1.
         23    2    1    2    0    0  0.19344912308E+04 -0.17667477116E+04  0.67285771535E+03  0.27063627171E+04  0.89486606067E+02 0.  0.
         13    1    3    3    0    0  0.18132532288E+04 -0.16460756417E+04  0.65018514899E+03  0.25338099806E+04  0.00000000000E+00 0. -1.
        -13    1    3    3    0    0  0.12123800205E+03 -0.12067206994E+03  0.22672566361E+02  0.17255273649E+03  0.00000000000E+00 0.  1.
         22    1    1    2    0    0 -0.19344912308E+04  0.17667477116E+04  0.66634425896E+03  0.27032699588E+04  0.00000000000E+00 0.  1.
<mgrwt>
<rscale>  0 0.52412464E+04</rscale>
<asrwt>0</asrwt>
<pdfrwt beam="1">  1        2 0.31311005E+00 0.52412464E+04</pdfrwt>
<pdfrwt beam="2">  1       -2 0.51914113E+00 0.52412464E+04</pdfrwt>
<totfact> 0.58223309E-03</totfact>
</mgrwt>
</event>
<event>
 6    1  0.1817112E-005  0.1529579E+04  0.7818608E-02  0.8865018E-01
          2   -1    0    0  501    0  0.00000000000E+00  0.00000000000E+00  0.82966207374E+03  0.82966207374E+03  0.00000000000E+00 0. -1.
         -2   -1    0    0    0  501 -0.00000000000E+00 -0.00000000000E+00 -0.70498901206E+03  0.70498901206E+03  0.00000000000E+00 0.  1.
         23    2    1    2    0    0 -0.55354371034E+03 -0.18086122731E+03 -0.43148042425E+03  0.72940073796E+03  0.82028392790E+02 0.  0.
         13    1    3    3    0    0 -0.26278925598E+03 -0.11278108244E+03 -0.17138671158E+03  0.33339341703E+03  0.00000000000E+00 0.  1.
        -13    1    3    3    0    0 -0.29075445436E+03 -0.68080144868E+02 -0.26009371267E+03  0.39600732093E+03  0.00000000000E+00 0. -1.
         22    1    1    2    0    0  0.55354371034E+03  0.18086122731E+03  0.55615348592E+03  0.80525034784E+03  0.00000000000E+00 0. -1.
<mgrwt>
<rscale>  0 0.15295786E+04</rscale>
<asrwt>0</asrwt>
<pdfrwt beam="1">  1        2 0.12764032E+00 0.15295786E+04</pdfrwt>
<pdfrwt beam="2">  1       -2 0.10845985E+00 0.15295786E+04</pdfrwt>
<totfact> 0.21500848E+01</totfact>
</mgrwt>
</event>
<event>
 6    1  0.1817112E-005  0.2511809E+04  0.7818608E-02  0.8398790E-01
         -2   -1    0    0    0  501 -0.00000000000E+00  0.00000000000E+00  0.93895885892E+03  0.93895885892E+03  0.00000000000E+00 0.  1.
          2   -1    0    0  501    0  0.00000000000E+00 -0.00000000000E+00 -0.16798357190E+04  0.16798357190E+04  0.00000000000E+00 0. -1.
         23    2    1    2    0    0  0.52255210105E+03 -0.25977554974E+03  0.78661059640E+03  0.98363037692E+03  0.90710823345E+02 0.  0.
         11    1    3    3    0    0  0.18519765548E+03 -0.80922927278E+02  0.34496368941E+03  0.39980825250E+03  0.00000000000E+00 0.  1.
        -11    1    3    3    0    0  0.33735444557E+03 -0.17885262246E+03  0.44164690699E+03  0.58382212442E+03  0.00000000000E+00 0. -1.
         22    1    1    2    0    0 -0.52255210105E+03  0.25977554974E+03 -0.15274874565E+04  0.16351642010E+04  0.00000000000E+00 0. -1.
<mgrwt>
<rscale>  0 0.25118094E+04</rscale>
<asrwt>0</asrwt>
<pdfrwt beam="1">  1        2 0.25843626E+00 0.25118094E+04</pdfrwt>
<pdfrwt beam="2">  1       -2 0.14445521E+00 0.25118094E+04</pdfrwt>
<totfact> 0.29679391E+00</totfact>
</mgrwt>
</event>
<event>
 6    1  0.1817112E-005  0.2215444E+04  0.7818608E-02  0.8512027E-01
         -2   -1    0    0    0  501 -0.00000000000E+00  0.00000000000E+00  0.10202673134E+04  0.10202673134E+04  0.00000000000E+00 0.  1.
          2   -1    0    0  501    0  0.00000000000E+00 -0.00000000000E+00 -0.12026735534E+04  0.12026735534E+04  0.00000000000E+00 0. -1.
         23    2    1    2    0    0 -0.69511972808E+01  0.41818549711E+03  0.93584913932E+03  0.10290302660E+04  0.90345158251E+02 0.  0.
         11    1    3    3    0    0 -0.52379259969E-01  0.29066635603E+03  0.54238492499E+03  0.61536033357E+03  0.00000000000E+00 0.  1.
        -11    1    3    3    0    0 -0.68988180208E+01  0.12751914108E+03  0.39346421433E+03  0.41366993242E+03  0.00000000000E+00 0. -1.
         22    1    1    2    0    0  0.69511972808E+01 -0.41818549711E+03 -0.11182553794E+04  0.11939106008E+04  0.00000000000E+00 0. -1.
<mgrwt>
<rscale>  0 0.22154444E+04</rscale>
<asrwt>0</asrwt>
<pdfrwt beam="1">  1        2 0.18502670E+00 0.22154444E+04</pdfrwt>
<pdfrwt beam="2">  1       -2 0.15696420E+00 0.22154444E+04</pdfrwt>
<totfact> 0.45714724E+00</totfact>
</mgrwt>
</event>
<event>
 6    1  0.1817112E-005  0.3443587E+04  0.7818608E-02  0.8127291E-01
          2   -1    0    0  501    0  0.00000000000E+00  0.00000000000E+00  0.19752709408E+04  0.19752709408E+04  0.00000000000E+00 0. -1.
         -2   -1    0    0    0  501 -0.00000000000E+00 -0.00000000000E+00 -0.15008440385E+04  0.15008440385E+04  0.00000000000E+00 0.  1.
         23    2    1    2    0    0  0.74383788111E+03  0.20059758531E+03  0.17904264851E+04  0.19511923300E+04  0.89388620649E+02 0.  0.
         13    1    3    3    0    0  0.63037104406E+03  0.16883541716E+03  0.15897429819E+04  0.17184748470E+04  0.00000000000E+00 0.  1.
        -13    1    3    3    0    0  0.11346683705E+03  0.31762168150E+02  0.20068350315E+03  0.23271748295E+03  0.00000000000E+00 0. -1.
         22    1    1    2    0    0 -0.74383788111E+03 -0.20059758531E+03 -0.13159995828E+04  0.15249226494E+04  0.00000000000E+00 0.  1.
<mgrwt>
<rscale>  0 0.34435874E+04</rscale>
<asrwt>0</asrwt>
<pdfrwt beam="1">  1        2 0.30388784E+00 0.34435874E+04</pdfrwt>
<pdfrwt beam="2">  1       -2 0.23089908E+00 0.34435874E+04</pdfrwt>
<totfact> 0.48049953E-01</totfact>
</mgrwt>
</event>
<event>
 6    1  0.1817112E-005  0.8875089E+03  0.7818608E-02  0.9441332E-01
         -2   -1    0    0    0  501 -0.00000000000E+00  0.00000000000E+00  0.14847009643E+03  0.14847009643E+03  0.00000000000E+00 0.  1.
          2   -1    0    0  501    0  0.00000000000E+00 -0.00000000000E+00 -0.13263141679E+04  0.13263141679E+04  0.00000000000E+00 0. -1.
         23    2    1    2    0    0  0.35688979552E+02  0.35383950920E+03 -0.10228039906E+04  0.10868235341E+04  0.92635249986E+02 0.  0.
         11    1    3    3    0    0  0.56266206933E+02  0.14152340895E+03 -0.48124721322E+03  0.50477088026E+03  0.00000000000E+00 0.  1.
        -11    1    3    3    0    0 -0.20577227381E+02  0.21231610025E+03 -0.54155677739E+03  0.58205265384E+03  0.00000000000E+00 0. -1.
         22    1    1    2    0    0 -0.35688979552E+02 -0.35383950920E+03 -0.15504008088E+03  0.38796073025E+03  0.00000000000E+00 0.  1.
<mgrwt>
<rscale>  0 0.88750886E+03</rscale>
<asrwt>0</asrwt>
<pdfrwt beam="1">  1        2 0.20404834E+00 0.88750886E+03</pdfrwt>
<pdfrwt beam="2">  1       -2 0.22841553E-01 0.88750886E+03</pdfrwt>
<totfact> 0.26997340E+02</totfact>
</mgrwt>
</event>
<event>
 6    1  0.1817112E-005  0.2395629E+04  0.7818608E-02  0.8441142E-01
         -2   -1    0    0    0  501 -0.00000000000E+00  0.00000000000E+00  0.12874168345E+04  0.12874168345E+04  0.00000000000E+00 0.  1.
          2   -1    0    0  501    0  0.00000000000E+00 -0.00000000000E+00 -0.11144479453E+04  0.11144479453E+04  0.00000000000E+00 0. -1.
         23    2    1    2    0    0 -0.42115686984E+03  0.81270258719E+03 -0.68551484840E+03  0.11469333347E+04  0.87560622109E+02 0.  0.
         13    1    3    3    0    0 -0.17785350853E+03  0.43286191512E+03 -0.36730870112E+03  0.59490922835E+03  0.00000000000E+00 0.  1.
        -13    1    3    3    0    0 -0.24330336131E+03  0.37984067207E+03 -0.31820614728E+03  0.55202410631E+03  0.00000000000E+00 0. -1.
         22    1    1    2    0    0  0.42115686984E+03 -0.81270258719E+03  0.85848373761E+03  0.12549314451E+04  0.00000000000E+00 0.  1.
<mgrwt>
<rscale>  0 0.23956286E+04</rscale>
<asrwt>0</asrwt>
<pdfrwt beam="1">  1        2 0.17145353E+00 0.23956286E+04</pdfrwt>
<pdfrwt beam="2">  1       -2 0.19806413E+00 0.23956286E+04</pdfrwt>
<totfact> 0.26294204E+00</totfact>
</mgrwt>
</event>
<event>
 6    1  0.1817112E-005  0.1715076E+04  0.7818608E-02  0.8752812E-01
         -2   -1    0    0    0  501 -0.00000000000E+00  0.00000000000E+00  0.39091266780E+03  0.39091266780E+03  0.00000000000E+00 0.  1.
          2   -1    0    0  501    0  0.00000000000E+00 -0.00000000000E+00 -0.18811658133E+04  0.18811658133E+04  0.00000000000E+00 0. -1.
         23    2    1    2    0    0  0.28430560246E+03 -0.79572781152E+03 -0.58190188075E+03  0.10314679678E+04  0.10632000815E+03 0.  0.
         13    1    3    3    0    0  0.19860096845E+03 -0.66496386395E+03 -0.49659907741E+03  0.85336388997E+03  0.00000000000E+00 0.  1.
        -13    1    3    3    0    0  0.85704634017E+02 -0.13076394756E+03 -0.85302803340E+02  0.17810407781E+03  0.00000000000E+00 0. -1.
         22    1    1    2    0    0 -0.28430560246E+03  0.79572781152E+03 -0.90835126479E+03  0.12406105134E+04  0.00000000000E+00 0.  1.
<mgrwt>
<rscale>  0 0.17150761E+04</rscale>
<asrwt>0</asrwt>
<pdfrwt beam="1">  1        2 0.28941013E+00 0.17150761E+04</pdfrwt>
<pdfrwt beam="2">  1       -2 0.60140410E-01 0.17150761E+04</pdfrwt>
<totfact> 0.19051823E+01</totfact>
</mgrwt>
</event>
<event>
 6    1  0.2416938E-005  0.4298670E+04  0.7818608E-02  0.7946864E-01
          2   -1    0    0  501    0  0.00000000000E+00  0.00000000000E+00  0.33047203704E+04  0.33047203704E+04  0.00000000000E+00 0.  1.
         -2   -1    0    0    0  501 -0.00000000000E+00 -0.00000000000E+00 -0.13978915167E+04  0.13978915167E+04  0.00000000000E+00 0. -1.
         23    2    1    2    0    0  0.21161475540E+03  0.13386311426E+04  0.27774873140E+04  0.30917859203E+04  0.89388237321E+02 0.  0.
         11    1    3    3    0    0  0.94543705514E+02  0.37862436231E+03  0.75033018825E+03  0.84574837356E+03  0.00000000000E+00 0.  1.
        -11    1    3    3    0    0  0.11707104989E+03  0.96000678027E+03  0.20271571258E+04  0.22460375468E+04  0.00000000000E+00 0. -1.
         22    1    1    2    0    0 -0.21161475540E+03 -0.13386311426E+04 -0.87065846034E+03  0.16108259667E+04  0.00000000000E+00 0. -1.
<mgrwt>
<rscale>  0 0.42986698E+04</rscale>
<asrwt>0</asrwt>
<pdfrwt beam="1">  1        2 0.50841851E+00 0.42986698E+04</pdfrwt>
<pdfrwt beam="2">  1       -2 0.21506024E+00 0.42986698E+04</pdfrwt>
<totfact> 0.90372576E-02</totfact>
</mgrwt>
</event>
<event>
 6    1  0.1817112E-005  0.8424097E+03  0.7818608E-02  0.9500581E-01
          1   -1    0    0  501    0  0.00000000000E+00  0.00000000000E+00  0.16187049297E+04  0.16187049297E+04  0.00000000000E+00 0. -1.
         -1   -1    0    0    0  501 -0.00000000000E+00 -0.00000000000E+00 -0.10960212839E+03  0.10960212839E+03  0.00000000000E+00 0.  1.
         23    2    1    2    0    0  0.17021387121E+03 -0.37949061640E+03  0.80533072751E+03  0.91082248836E+03  0.89744831319E+02 0.  0.
         13    1    3    3    0    0  0.16268766367E+03 -0.32462963492E+03  0.74591619059E+03  0.82960390498E+03  0.00000000000E+00 0. -1.
        -13    1    3    3    0    0  0.75262075471E+01 -0.54860981480E+02  0.59414536916E+02  0.81218583377E+02  0.00000000000E+00 0.  1.
         22    1    1    2    0    0 -0.17021387121E+03  0.37949061640E+03  0.70377207384E+03  0.81748456976E+03  0.00000000000E+00 0. -1.
<mgrwt>
<rscale>  0 0.84240965E+03</rscale>
<asrwt>0</asrwt>
<pdfrwt beam="1">  1        1 0.24903151E+00 0.84240965E+03</pdfrwt>
<pdfrwt beam="2">  1       -1 0.16861867E-01 0.84240965E+03</pdfrwt>
<totfact> 0.14921667E+02</totfact>
</mgrwt>
</event>
<event>
 6    1  0.1817112E-005  0.2712433E+04  0.7818608E-02  0.8330982E-01
          1   -1    0    0  501    0  0.00000000000E+00  0.00000000000E+00  0.35823852947E+04  0.35823852947E+04  0.00000000000E+00 0. -1.
         -1   -1    0    0    0  501 -0.00000000000E+00 -0.00000000000E+00 -0.51343549146E+03  0.51343549146E+03  0.00000000000E+00 0.  1.
         23    2    1    2    0    0 -0.78639652379E+03  0.13754772090E+03 -0.11652484676E+03  0.81183119817E+03  0.90293888303E+02 0.  0.
         13    1    3    3    0    0 -0.65584438883E+03  0.97183800697E+02 -0.12592670694E+03  0.67485856963E+03  0.00000000000E+00 0. -1.
        -13    1    3    3    0    0 -0.13055213496E+03  0.40363920205E+02  0.94018601777E+01  0.13697262855E+03  0.00000000000E+00 0.  1.
         22    1    1    2    0    0  0.78639652379E+03 -0.13754772090E+03  0.31854746500E+04  0.32839895879E+04  0.00000000000E+00 0. -1.
<mgrwt>
<rscale>  0 0.27124334E+04</rscale>
<asrwt>0</asrwt>
<pdfrwt beam="1">  1        1 0.55113618E+00 0.27124334E+04</pdfrwt>
<pdfrwt beam="2">  1       -1 0.78990078E-01 0.27124334E+04</pdfrwt>
<totfact> 0.30043528E-01</totfact>
</mgrwt>
</event>
<event>
 6    1  0.1817112E-005  0.4336559E+04  0.7818608E-02  0.7939892E-01
         -2   -1    0    0    0  501 -0.00000000000E+00  0.00000000000E+00  0.97989308739E+03  0.97989308739E+03  0.00000000000E+00 0.  1.
          2   -1    0    0  501    0  0.00000000000E+00 -0.00000000000E+00 -0.47979063662E+04  0.47979063662E+04  0.00000000000E+00 0. -1.
         23    2    1    2    0    0 -0.30442177819E+03 -0.18817738141E+04 -0.53644531606E+03  0.19827456199E+04  0.98799339735E+02 0.  0.
         13    1    3    3    0    0 -0.10757452305E+03 -0.78172743522E+03 -0.17543538428E+03  0.80836107962E+03  0.00000000000E+00 0. -1.
        -13    1    3    3    0    0 -0.19684725514E+03 -0.11000463789E+04 -0.36100993178E+03  0.11743845403E+04  0.00000000000E+00 0.  1.
         22    1    1    2    0    0  0.30442177819E+03  0.18817738141E+04 -0.32815679627E+04  0.37950538337E+04  0.00000000000E+00 0. -1.
<mgrwt>
<rscale>  0 0.43365587E+04</rscale>
<asrwt>0</asrwt>
<pdfrwt beam="1">  1        2 0.73813943E+00 0.43365587E+04</pdfrwt>
<pdfrwt beam="2">  1       -2 0.15075278E+00 0.43365587E+04</pdfrwt>
<totfact> 0.13431661E-02</totfact>
</mgrwt>
</event>
<event>
 6    1  0.1817112E-005  0.3235927E+04  0.7818608E-02  0.8179393E-01
          2   -1    0    0  501    0  0.00000000000E+00  0.00000000000E+00  0.23128825115E+04  0.23128825115E+04  0.00000000000E+00 0. -1.
         -2   -1    0    0    0  501 -0.00000000000E+00 -0.00000000000E+00 -0.11318371391E+04  0.11318371391E+04  0.00000000000E+00 0.  1.
         23    2    1    2    0    0  0.57576897936E+03  0.73408943605E+03 -0.81456243005E+03  0.12418016497E+04  0.90344712500E+02 0.  0.
         11    1    3    3    0    0  0.15879131619E+03  0.18984033557E+03 -0.26964803369E+03  0.36601106156E+03  0.00000000000E+00 0.  1.
        -11    1    3    3    0    0  0.41697766317E+03  0.54424910048E+03 -0.54491439636E+03  0.87579058816E+03  0.00000000000E+00 0. -1.
         22    1    1    2    0    0 -0.57576897936E+03 -0.73408943605E+03  0.19956078024E+04  0.22029180009E+04  0.00000000000E+00 0. -1.
<mgrwt>
<rscale>  0 0.32359273E+04</rscale>
<asrwt>0</asrwt>
<pdfrwt beam="1">  1        2 0.35582808E+00 0.32359273E+04</pdfrwt>
<pdfrwt beam="2">  1       -2 0.17412879E+00 0.32359273E+04</pdfrwt>
<totfact> 0.74577202E-01</totfact>
</mgrwt>
</event>
<event>
 6    1  0.1817112E-005  0.3524277E+04  0.7818608E-02  0.8108061E-01
         -2   -1    0    0    0  501 -0.00000000000E+00  0.00000000000E+00  0.92823735676E+03  0.92823735676E+03  0.00000000000E+00 0.  1.
          2   -1    0    0  501    0  0.00000000000E+00 -0.00000000000E+00 -0.33451926909E+04  0.33451926909E+04  0.00000000000E+00 0. -1.
         23    2    1    2    0    0  0.70970324427E+03  0.15428419598E+04 -0.64441701599E+03  0.18186526449E+04  0.90466260232E+02 0.  0.
         11    1    3    3    0    0  0.60797663392E+02  0.20236123863E+03 -0.85646881053E+02  0.22799520830E+03  0.00000000000E+00 0. -1.
        -11    1    3    3    0    0  0.64890558088E+03  0.13404807212E+04 -0.55877013494E+03  0.15906574366E+04  0.00000000000E+00 0.  1.
         22    1    1    2    0    0 -0.70970324427E+03 -0.15428419598E+04 -0.17725383181E+04  0.24547774028E+04  0.00000000000E+00 0. -1.
<mgrwt>
<rscale>  0 0.35242774E+04</rscale>
<asrwt>0</asrwt>
<pdfrwt beam="1">  1        2 0.51464504E+00 0.35242774E+04</pdfrwt>
<pdfrwt beam="2">  1       -2 0.14280575E+00 0.35242774E+04</pdfrwt>
<totfact> 0.29012912E-01</totfact>
</mgrwt>
</event>
<event>
 6    1  0.1817112E-005  0.2719455E+04  0.7818608E-02  0.8328720E-01
         -2   -1    0    0    0  501 -0.00000000000E+00  0.00000000000E+00  0.55290568486E+03  0.55290568486E+03  0.00000000000E+00 0.  1.
          2   -1    0    0  501    0  0.00000000000E+00 -0.00000000000E+00 -0.33438944442E+04  0.33438944442E+04  0.00000000000E+00 0. -1.
         23    2    1    2    0    0  0.97445111349E+03  0.64058474255E+03 -0.39928571569E+03  0.12359455231E+04  0.90710905573E+02 0.  0.
         11    1    3    3    0    0  0.35617062842E+03  0.18312635286E+03 -0.13052180213E+03  0.42122288457E+03  0.00000000000E+00 0.  1.
        -11    1    3    3    0    0  0.61828048508E+03  0.45745838970E+03 -0.26876391356E+03  0.81472263855E+03  0.00000000000E+00 0. -1.
         22    1    1    2    0    0 -0.97445111349E+03 -0.64058474255E+03 -0.23917030437E+04  0.26608546060E+04  0.00000000000E+00 0. -1.
<mgrwt>
<rscale>  0 0.27194545E+04</rscale>
<asrwt>0</asrwt>
<pdfrwt beam="1">  1        2 0.51444530E+00 0.27194545E+04</pdfrwt>
<pdfrwt beam="2">  1       -2 0.85062413E-01 0.27194545E+04</pdfrwt>
<totfact> 0.10965350E+00</totfact>
</mgrwt>
</event>
<event>
 6    1  0.1817112E-005  0.9641389E+03  0.7818608E-02  0.9348775E-01
          2   -1    0    0  501    0  0.00000000000E+00  0.00000000000E+00  0.52650593564E+03  0.52650593564E+03  0.00000000000E+00 0. -1.
         -2   -1    0    0    0  501 -0.00000000000E+00 -0.00000000000E+00 -0.44138336542E+03  0.44138336542E+03  0.00000000000E+00 0.  1.
         23    2    1    2    0    0 -0.41207310720E+03 -0.78436652425E+02  0.27065331793E+03  0.50921925357E+03  0.10047126740E+03 0.  0.
         13    1    3    3    0    0 -0.21786182359E+03 -0.72792677509E+02  0.99626945917E+02  0.25037587030E+03  0.00000000000E+00 0. -1.
        -13    1    3    3    0    0 -0.19421128361E+03 -0.56439749164E+01  0.17102637201E+03  0.25884338327E+03  0.00000000000E+00 0.  1.
         22    1    1    2    0    0  0.41207310720E+03  0.78436652425E+02 -0.18553074771E+03  0.45867004749E+03  0.00000000000E+00 0.  1.
<mgrwt>
<rscale>  0 0.96413891E+03</rscale>
<asrwt>0</asrwt>
<pdfrwt beam="1">  1        2 0.81000913E-01 0.96413891E+03</pdfrwt>
<pdfrwt beam="2">  1       -2 0.67905133E-01 0.96413891E+03</pdfrwt>
<totfact> 0.11524811E+02</totfact>
</mgrwt>
</event>
<event>
 6    1  0.1817112E-005  0.2378426E+04  0.7818608E-02  0.8447625E-01
         -2   -1    0    0    0  501 -0.00000000000E+00  0.00000000000E+00  0.14147931764E+04  0.14147931764E+04  0.00000000000E+00 0.  1.
          2   -1    0    0  501    0  0.00000000000E+00 -0.00000000000E+00 -0.99960044325E+03  0.99960044325E+03  0.00000000000E+00 0. -1.
         23    2    1    2    0    0 -0.47003715024E+03 -0.10584254967E+04  0.47404668515E+03  0.12547974648E+04  0.92719811661E+02 0.  0.
         11    1    3    3    0    0 -0.30351501475E+03 -0.76404769160E+03  0.30694738692E+03  0.87755736995E+03  0.00000000000E+00 0. -1.
        -11    1    3    3    0    0 -0.16652213549E+03 -0.29437780505E+03  0.16709929823E+03  0.37724009488E+03  0.00000000000E+00 0.  1.
         22    1    1    2    0    0  0.47003715024E+03  0.10584254967E+04 -0.58853952027E+02  0.11595961548E+04  0.00000000000E+00 0. -1.
<mgrwt>
<rscale>  0 0.23784263E+04</rscale>
<asrwt>0</asrwt>
<pdfrwt beam="1">  1        2 0.15378468E+00 0.23784263E+04</pdfrwt>
<pdfrwt beam="2">  1       -2 0.21766049E+00 0.23784263E+04</pdfrwt>
<totfact> 0.23215568E+00</totfact>
</mgrwt>
</event>
<event>
 6    1  0.1817112E-005  0.1964840E+04  0.7818608E-02  0.8623238E-01
          2   -1    0    0  501    0  0.00000000000E+00  0.00000000000E+00  0.58083644125E+03  0.58083644125E+03  0.00000000000E+00 0. -1.
         -2   -1    0    0    0  501 -0.00000000000E+00 -0.00000000000E+00 -0.16616534817E+04  0.16616534817E+04  0.00000000000E+00 0.  1.
         23    2    1    2    0    0  0.21366116948E+03  0.49622598133E+03  0.39216452891E+03  0.67355205816E+03  0.89375821227E+02 0.  0.
         13    1    3    3    0    0  0.18383647184E+03  0.33748154755E+03  0.25076331501E+03  0.45888112128E+03  0.00000000000E+00 0. -1.
        -13    1    3    3    0    0  0.29824697642E+02  0.15874443378E+03  0.14140121390E+03  0.21467093688E+03  0.00000000000E+00 0.  1.
         22    1    1    2    0    0 -0.21366116948E+03 -0.49622598133E+03 -0.14729815694E+04  0.15689378648E+04  0.00000000000E+00 0.  1.
<mgrwt>
<rscale>  0 0.19648398E+04</rscale>
<asrwt>0</asrwt>
<pdfrwt beam="1">  1        2 0.89359453E-01 0.19648398E+04</pdfrwt>
<pdfrwt beam="2">  1       -2 0.25563900E+00 0.19648398E+04</pdfrwt>
<totfact> 0.28511418E+00</totfact>
</mgrwt>
</event>
<event>
 6    1  0.1817112E-005  0.3128358E+04  0.7818608E-02  0.8207998E-01
          2   -1    0    0  501    0  0.00000000000E+00  0.00000000000E+00  0.23503782433E+04  0.23503782433E+04  0.00000000000E+00 0.  1.
         -2   -1    0    0    0  501 -0.00000000000E+00 -0.00000000000E+00 -0.10409625720E+04  0.10409625720E+04  0.00000000000E+00 0. -1.
         23    2    1    2    0    0 -0.93224133658E+02  0.15433003218E+04  0.40781871494E+03  0.16015520864E+04  0.90478498263E+02 0.  0.
         11    1    3    3    0    0  0.13899895084E+02  0.25864494043E+03  0.51337536988E+02  0.26405672685E+03  0.00000000000E+00 0. -1.
        -11    1    3    3    0    0 -0.10712402874E+03  0.12846553814E+04  0.35648117795E+03  0.13374953595E+04  0.00000000000E+00 0.  1.
         22    1    1    2    0    0  0.93224133658E+02 -0.15433003218E+04  0.90159695637E+03  0.17897887289E+04  0.00000000000E+00 0.  1.
<mgrwt>
<rscale>  0 0.31283579E+04</rscale>
<asrwt>0</asrwt>
<pdfrwt beam="1">  1        2 0.36159665E+00 0.31283579E+04</pdfrwt>
<pdfrwt beam="2">  1       -2 0.16014809E+00 0.31283579E+04</pdfrwt>
<totfact> 0.90314095E-01</totfact>
</mgrwt>
</event>
<event>
 6    1  0.1817112E-005  0.2954941E+04  0.7818608E-02  0.8256716E-01
         -2   -1    0    0    0  501 -0.00000000000E+00  0.00000000000E+00  0.51570966474E+03  0.51570966474E+03  0.00000000000E+00 0.  1.
          2   -1    0    0  501    0  0.00000000000E+00 -0.00000000000E+00 -0.42328440429E+04  0.42328440429E+04  0.00000000000E+00 0. -1.
         23    2    1    2    0    0 -0.35014883249E+03  0.29733226619E+02 -0.41641530313E+04  0.41799466852E+04  0.91079928953E+02 0.  0.
         11    1    3    3    0    0 -0.12777364629E+03  0.73664207488E+01 -0.10473882490E+04  0.10551789009E+04  0.00000000000E+00 0. -1.
        -11    1    3    3    0    0 -0.22237518620E+03  0.22366805870E+02 -0.31167647823E+04  0.31247677843E+04  0.00000000000E+00 0.  1.
         22    1    1    2    0    0  0.35014883249E+03 -0.29733226619E+02  0.44701865316E+03  0.56860702241E+03  0.00000000000E+00 0.  1.
<mgrwt>
<rscale>  0 0.29549407E+04</rscale>
<asrwt>0</asrwt>
<pdfrwt beam="1">  1        2 0.65120680E+00 0.29549407E+04</pdfrwt>
<pdfrwt beam="2">  1       -2 0.79339945E-01 0.29549407E+04</pdfrwt>
<totfact> 0.26330784E-01</totfact>
</mgrwt>
</event>
<event>
 6    1  0.1986486E-005  0.3502365E+04  0.7818608E-02  0.8113230E-01
         -1   -1    0    0    0  501 -0.00000000000E+00  0.00000000000E+00  0.13039487264E+04  0.13039487264E+04  0.00000000000E+00 0.  1.
          1   -1    0    0  501    0  0.00000000000E+00 -0.00000000000E+00 -0.23518104181E+04  0.23518104181E+04  0.00000000000E+00 0. -1.
         23    2    1    2    0    0 -0.82789643130E+03 -0.84134879262E+03  0.82420837273E+03  0.14426331612E+04  0.92686052314E+02 0.  0.
         13    1    3    3    0    0 -0.46618206262E+03 -0.40922728438E+03  0.44369361964E+03  0.76266422094E+03  0.00000000000E+00 0. -1.
        -13    1    3    3    0    0 -0.36171436868E+03 -0.43212150824E+03  0.38051475309E+03  0.67996894026E+03  0.00000000000E+00 0.  1.
         22    1    1    2    0    0  0.82789643130E+03  0.84134879262E+03 -0.18720700644E+04  0.22131259833E+04  0.00000000000E+00 0. -1.
<mgrwt>
<rscale>  0 0.35023650E+04</rscale>
<asrwt>0</asrwt>
<pdfrwt beam="1">  1        1 0.36181699E+00 0.35023650E+04</pdfrwt>
<pdfrwt beam="2">  1       -1 0.20060750E+00 0.35023650E+04</pdfrwt>
<totfact> 0.20848470E-01</totfact>
</mgrwt>
</event>
<event>
 6    1  0.1817112E-005  0.4695492E+04  0.7818608E-02  0.7877278E-01
          2   -1    0    0  501    0  0.00000000000E+00  0.00000000000E+00  0.35668717080E+04  0.35668717080E+04  0.00000000000E+00 0.  1.
         -2   -1    0    0    0  501 -0.00000000000E+00 -0.00000000000E+00 -0.15453065204E+04  0.15453065204E+04  0.00000000000E+00 0. -1.
         23    2    1    2    0    0  0.97119492661E+03  0.21179146351E+04  0.13168832349E+04  0.26779722713E+04  0.92585336558E+02 0.  0.
         13    1    3    3    0    0  0.33494863471E+03  0.82061861265E+03  0.52904198084E+03  0.10322261927E+04  0.00000000000E+00 0.  1.
        -13    1    3    3    0    0  0.63624629190E+03  0.12972960224E+04  0.78784125406E+03  0.16457460787E+04  0.00000000000E+00 0. -1.
         22    1    1    2    0    0 -0.97119492661E+03 -0.21179146351E+04  0.70468195271E+03  0.24342059571E+04  0.00000000000E+00 0. -1.
<mgrwt>
<rscale>  0 0.46954915E+04</rscale>
<asrwt>0</asrwt>
<pdfrwt beam="1">  1        2 0.54874949E+00 0.46954915E+04</pdfrwt>
<pdfrwt beam="2">  1       -2 0.23773947E+00 0.46954915E+04</pdfrwt>
<totfact> 0.41514948E-02</totfact>
</mgrwt>
</event>
<event>
 6    1  0.1817112E-005  0.2397421E+04  0.7818608E-02  0.8440470E-01
         -2   -1    0    0    0  501 -0.00000000000E+00  0.00000000000E+00  0.58105730994E+03  0.58105730994E+03  0.00000000000E+00 0.  1.
          2   -1    0    0  501    0  0.00000000000E+00 -0.00000000000E+00 -0.24729169476E+04  0.24729169476E+04  0.00000000000E+00 0. -1.
         23    2    1    2    0    0  0.56709058795E+03  0.63772359571E+03  0.12232201258E+03  0.86646177994E+03  0.86661536270E+02 0.  0.
         11    1    3    3    0    0  0.22882784820E+03  0.23643681588E+03  0.87502508584E+02  0.34047208553E+03  0.00000000000E+00 0.  1.
        -11    1    3    3    0    0  0.33826273975E+03  0.40128677983E+03  0.34819504001E+02  0.52598969441E+03  0.00000000000E+00 0. -1.
         22    1    1    2    0    0 -0.56709058795E+03 -0.63772359571E+03 -0.20141816503E+04  0.21875124776E+04  0.00000000000E+00 0. -1.
<mgrwt>
<rscale>  0 0.23974207E+04</rscale>
<asrwt>0</asrwt>
<pdfrwt beam="1">  1        2 0.38044876E+00 0.23974207E+04</pdfrwt>
<pdfrwt beam="2">  1       -2 0.89393434E-01 0.23974207E+04</pdfrwt>
<totfact> 0.34840959E+00</totfact>
</mgrwt>
</event>
<event>
 6    1  0.1817112E-005  0.2299756E+04  0.7818608E-02  0.8478017E-01
         -2   -1    0    0    0  501 -0.00000000000E+00  0.00000000000E+00  0.73652898652E+03  0.73652898652E+03  0.00000000000E+00 0.  1.
          2   -1    0    0  501    0  0.00000000000E+00 -0.00000000000E+00 -0.17952029075E+04  0.17952029075E+04  0.00000000000E+00 0. -1.
         23    2    1    2    0    0 -0.11479234208E+04 -0.10284875796E+02 -0.54692692781E+03  0.12748631882E+04  0.91176342381E+02 0.  0.
         11    1    3    3    0    0 -0.82985677738E+03  0.31885724545E+02 -0.40672550191E+03  0.92471866224E+03  0.00000000000E+00 0. -1.
        -11    1    3    3    0    0 -0.31806664344E+03 -0.42170600341E+02 -0.14020142589E+03  0.35014452591E+03  0.00000000000E+00 0.  1.
         22    1    1    2    0    0  0.11479234208E+04  0.10284875796E+02 -0.51174699315E+03  0.12568687058E+04  0.00000000000E+00 0.  1.
<mgrwt>
<rscale>  0 0.22997556E+04</rscale>
<asrwt>0</asrwt>
<pdfrwt beam="1">  1        2 0.27618506E+00 0.22997556E+04</pdfrwt>
<pdfrwt beam="2">  1       -2 0.11331215E+00 0.22997556E+04</pdfrwt>
<totfact> 0.48120915E+00</totfact>
</mgrwt>
</event>
<event>
 6    1  0.1817112E-005  0.1849947E+04  0.7818608E-02  0.8680180E-01
         -1   -1    0    0    0  501 -0.00000000000E+00  0.00000000000E+00  0.21831586946E+04  0.21831586946E+04  0.00000000000E+00 0. -1.
          1   -1    0    0  501    0  0.00000000000E+00 -0.00000000000E+00 -0.39189808987E+03  0.39189808987E+03  0.00000000000E+00 0.  1.
         23    2    1    2    0    0 -0.81722328095E+03 -0.40939752355E+02  0.30424216801E+03  0.87777843800E+03  0.91660979578E+02 0.  0.
         11    1    3    3    0    0 -0.42847661017E+03  0.24286172943E+02  0.16172185326E+03  0.45862400883E+03  0.00000000000E+00 0.  1.
        -11    1    3    3    0    0 -0.38874667078E+03 -0.65225925298E+02  0.14252031475E+03  0.41915442917E+03  0.00000000000E+00 0. -1.
         22    1    1    2    0    0  0.81722328095E+03  0.40939752355E+02  0.14870184367E+04  0.16972783465E+04  0.00000000000E+00 0. -1.
<mgrwt>
<rscale>  0 0.18499467E+04</rscale>
<asrwt>0</asrwt>
<pdfrwt beam="1">  1        1 0.60292015E-01 0.18499467E+04</pdfrwt>
<pdfrwt beam="2">  1       -1 0.33587056E+00 0.18499467E+04</pdfrwt>
<totfact> 0.11180527E+00</totfact>
</mgrwt>
</event>
<event>
 6    1  0.1817112E-005  0.3818301E+03  0.7818608E-02  0.1050259E+00
          2   -1    0    0  501    0  0.00000000000E+00  0.00000000000E+00  0.42395139789E+03  0.42395139789E+03  0.00000000000E+00 0. -1.
         -2   -1    0    0    0  501 -0.00000000000E+00 -0.00000000000E+00 -0.85973408700E+02  0.85973408700E+02  0.00000000000E+00 0.  1.
         23    2    1    2    0    0  0.39237566984E+02  0.71223425085E+02  0.39314943838E+03  0.41165857765E+03  0.91016156330E+02 0.  0.
         11    1    3    3    0    0  0.40538620600E+02 -0.92382790647E+01  0.13353957138E+03  0.13986258501E+03  0.00000000000E+00 0. -1.
        -11    1    3    3    0    0 -0.13010536160E+01  0.80461704150E+02  0.25960986700E+03  0.27179599264E+03  0.00000000000E+00 0.  1.
         22    1    1    2    0    0 -0.39237566984E+02 -0.71223425085E+02 -0.55171449191E+02  0.98266228937E+02  0.00000000000E+00 0.  1.
<mgrwt>
<rscale>  0 0.38183005E+03</rscale>
<asrwt>0</asrwt>
<pdfrwt beam="1">  1        2 0.65223291E-01 0.38183005E+03</pdfrwt>
<pdfrwt beam="2">  1       -2 0.13226679E-01 0.38183005E+03</pdfrwt>
<totfact> 0.31735869E+03</totfact>
</mgrwt>
</event>
<event>
 6    1  0.1817112E-005  0.3115593E+04  0.7818608E-02  0.8211471E-01
          2   -1    0    0  501    0  0.00000000000E+00  0.00000000000E+00  0.22070551782E+04  0.22070551782E+04  0.00000000000E+00 0. -1.
         -2   -1    0    0    0  501 -0.00000000000E+00 -0.00000000000E+00 -0.10995332790E+04  0.10995332790E+04  0.00000000000E+00 0.  1.
         23    2    1    2    0    0  0.77432666690E+03 -0.13179184766E+04  0.86555210007E+03  0.17589966888E+04  0.91640685258E+02 0.  0.
         11    1    3    3    0    0  0.48635771325E+03 -0.74730453301E+03  0.48171553086E+03  0.10134385738E+04  0.00000000000E+00 0. -1.
        -11    1    3    3    0    0  0.28796895364E+03 -0.57061394360E+03  0.38383656921E+03  0.74555811494E+03  0.00000000000E+00 0.  1.
         22    1    1    2    0    0 -0.77432666690E+03  0.13179184766E+04  0.24196979906E+03  0.15475917684E+04  0.00000000000E+00 0. -1.
<mgrwt>
<rscale>  0 0.31155934E+04</rscale>
<asrwt>0</asrwt>
<pdfrwt beam="1">  1        2 0.33954695E+00 0.31155934E+04</pdfrwt>
<pdfrwt beam="2">  1       -2 0.16915897E+00 0.31155934E+04</pdfrwt>
<totfact> 0.93756750E-01</totfact>
</mgrwt>
</event>
<event>
 6    1  0.1817112E-005  0.1763258E+04  0.7818608E-02  0.8726086E-01
          2   -1    0    0  501    0  0.00000000000E+00  0.00000000000E+00  0.15740818932E+04  0.15740818932E+04  0.00000000000E+00 0. -1.
         -2   -1    0    0    0  501 -0.00000000000E+00 -0.00000000000E+00 -0.49379248782E+03  0.49379248782E+03  0.00000000000E+00 0.  1.
         23    2    1    2    0    0  0.39545429191E+03 -0.43847900892E+03  0.13055998243E+04  0.14358833027E+04  0.92314784794E+02 0.  0.
         11    1    3    3    0    0  0.21346278429E+03 -0.17740551421E+03  0.66453852369E+03  0.72017395553E+03  0.00000000000E+00 0.  1.
        -11    1    3    3    0    0  0.18199150762E+03 -0.26107349471E+03  0.64106130060E+03  0.71570934716E+03  0.00000000000E+00 0. -1.
         22    1    1    2    0    0 -0.39545429191E+03  0.43847900892E+03 -0.22531041889E+03  0.63199107835E+03  0.00000000000E+00 0.  1.
<mgrwt>
<rscale>  0 0.17632581E+04</rscale>
<asrwt>0</asrwt>
<pdfrwt beam="1">  1        2 0.24216644E+00 0.17632581E+04</pdfrwt>
<pdfrwt beam="2">  1       -2 0.75968076E-01 0.17632581E+04</pdfrwt>
<totfact> 0.16943232E+01</totfact>
</mgrwt>
</event>
<event>
 6    1  0.1817112E-005  0.1708602E+04  0.7818608E-02  0.8756473E-01
          2   -1    0    0  501    0  0.00000000000E+00  0.00000000000E+00  0.24877938399E+04  0.24877938399E+04  0.00000000000E+00 0.  1.
         -2   -1    0    0    0  501 -0.00000000000E+00 -0.00000000000E+00 -0.29336454915E+03  0.29336454915E+03  0.00000000000E+00 0. -1.
         23    2    1    2    0    0 -0.69758982373E+03  0.26962037658E+03  0.43592024045E+03  0.87022123949E+03  0.89060877888E+02 0.  0.
         13    1    3    3    0    0 -0.50073757403E+03  0.14990043723E+03  0.30814051757E+03  0.60676093949E+03  0.00000000000E+00 0.  1.
        -13    1    3    3    0    0 -0.19685224971E+03  0.11971993935E+03  0.12777972288E+03  0.26346029999E+03  0.00000000000E+00 0. -1.
         22    1    1    2    0    0  0.69758982373E+03 -0.26962037658E+03  0.17585090503E+04  0.19109371496E+04  0.00000000000E+00 0.  1.
<mgrwt>
<rscale>  0 0.17086024E+04</rscale>
<asrwt>0</asrwt>
<pdfrwt beam="1">  1        2 0.38273750E+00 0.17086024E+04</pdfrwt>
<pdfrwt beam="2">  1       -2 0.45133009E-01 0.17086024E+04</pdfrwt>
<totfact> 0.15688248E+01</totfact>
</mgrwt>
</event>
<event>
 6    1  0.2634048E-005  0.3204045E+04  0.7818608E-02  0.8187750E-01
         -1   -1    0    0    0  501 -0.00000000000E+00  0.00000000000E+00  0.16793835018E+04  0.16793835018E+04  0.00000000000E+00 0.  1.
          1   -1    0    0  501    0  0.00000000000E+00 -0.00000000000E+00 -0.15282250085E+04  0.15282250085E+04  0.00000000000E+00 0. -1.
         23    2    1    2    0    0 -0.10462520316E+04  0.63213291943E+03  0.11103268170E+04  0.16538262814E+04  0.89890973723E+02 0.  0.
         11    1    3    3    0    0 -0.34431393061E+03  0.21459338253E+03  0.42611554668E+03  0.58836796460E+03  0.00000000000E+00 0. -1.
        -11    1    3    3    0    0 -0.70193810094E+03  0.41753953689E+03  0.68421127036E+03  0.10654583168E+04  0.00000000000E+00 0.  1.
         22    1    1    2    0    0  0.10462520316E+04 -0.63213291943E+03 -0.95916832371E+03  0.15537822288E+04  0.00000000000E+00 0. -1.
<mgrwt>
<rscale>  0 0.32040449E+04</rscale>
<asrwt>0</asrwt>
<pdfrwt beam="1">  1        1 0.23511154E+00 0.32040449E+04</pdfrwt>
<pdfrwt beam="2">  1       -1 0.25836669E+00 0.32040449E+04</pdfrwt>
<totfact> 0.32159377E-01</totfact>
</mgrwt>
</event>
<event>
 6    1  0.1817112E-005  0.6521489E+03  0.7818608E-02  0.9802755E-01
          2   -1    0    0  501    0  0.00000000000E+00  0.00000000000E+00  0.68451705351E+03  0.68451705351E+03  0.00000000000E+00 0. -1.
         -2   -1    0    0    0  501 -0.00000000000E+00 -0.00000000000E+00 -0.15532781461E+03  0.15532781461E+03  0.00000000000E+00 0.  1.
         23    2    1    2    0    0  0.29780771672E+03 -0.89105868146E+02  0.36600201668E+03  0.48876174211E+03  0.91111319084E+02 0.  0.
         11    1    3    3    0    0  0.26607811832E+03 -0.90876195241E+02  0.27885042827E+03  0.39599698137E+03  0.00000000000E+00 0.  1.
        -11    1    3    3    0    0  0.31729598396E+02  0.17703270956E+01  0.87151588414E+02  0.92764760741E+02  0.00000000000E+00 0. -1.
         22    1    1    2    0    0 -0.29780771672E+03  0.89105868146E+02  0.16318722222E+03  0.35108312601E+03  0.00000000000E+00 0.  1.
<mgrwt>
<rscale>  0 0.65214887E+03</rscale>
<asrwt>0</asrwt>
<pdfrwt beam="1">  1        2 0.10531031E+00 0.65214887E+03</pdfrwt>
<pdfrwt beam="2">  1       -2 0.23896587E-01 0.65214887E+03</pdfrwt>
<totfact> 0.65917229E+02</totfact>
</mgrwt>
</event>
<event>
 6    1  0.1817112E-005  0.3888094E+04  0.7818608E-02  0.8027510E-01
         -2   -1    0    0    0  501 -0.00000000000E+00  0.00000000000E+00  0.90070156984E+03  0.90070156984E+03  0.00000000000E+00 0.  1.
          2   -1    0    0  501    0  0.00000000000E+00 -0.00000000000E+00 -0.41959712836E+04  0.41959712836E+04  0.00000000000E+00 0. -1.
         23    2    1    2    0    0  0.70727287257E+03  0.10781193703E+04  0.25676479860E+03  0.13178469154E+04  0.90642362385E+02 0.  0.
         13    1    3    3    0    0  0.54465040257E+03  0.85426485113E+03  0.23687786284E+03  0.10404439527E+04  0.00000000000E+00 0.  1.
        -13    1    3    3    0    0  0.16262247001E+03  0.22385451914E+03  0.19886935760E+02  0.27740296268E+03  0.00000000000E+00 0. -1.
         22    1    1    2    0    0 -0.70727287257E+03 -0.10781193703E+04 -0.35520345123E+04  0.37788259380E+04  0.00000000000E+00 0. -1.
<mgrwt>
<rscale>  0 0.38880936E+04</rscale>
<asrwt>0</asrwt>
<pdfrwt beam="1">  1        2 0.64553404E+00 0.38880936E+04</pdfrwt>
<pdfrwt beam="2">  1       -2 0.13856947E+00 0.38880936E+04</pdfrwt>
<totfact> 0.68518781E-02</totfact>
</mgrwt>
</event>
<event>
 6    1  0.1817112E-005  0.1810943E+04  0.7818608E-02  0.8700502E-01
         -2   -1    0    0    0  501 -0.00000000000E+00  0.00000000000E+00  0.14042032106E+04  0.14042032106E+04  0.00000000000E+00 0.  1.
          2   -1    0    0  501    0  0.00000000000E+00 -0.00000000000E+00 -0.58387455838E+03  0.58387455838E+03  0.00000000000E+00 0. -1.
         23    2    1    2    0    0 -0.10480170361E+03 -0.45029785124E+03  0.12632552121E+04  0.13478157216E+04  0.83916247649E+02 0.  0.
         13    1    3    3    0    0 -0.49309749920E+02 -0.21020985882E+03  0.47119251081E+03  0.51830687669E+03  0.00000000000E+00 0.  1.
        -13    1    3    3    0    0 -0.55491953686E+02 -0.24008799242E+03  0.79206270128E+03  0.82950884491E+03  0.00000000000E+00 0. -1.
         22    1    1    2    0    0  0.10480170361E+03  0.45029785124E+03 -0.44292655985E+03  0.64026204739E+03  0.00000000000E+00 0. -1.
<mgrwt>
<rscale>  0 0.18109429E+04</rscale>
<asrwt>0</asrwt>
<pdfrwt beam="1">  1        2 0.89826855E-01 0.18109429E+04</pdfrwt>
<pdfrwt beam="2">  1       -2 0.21603126E+00 0.18109429E+04</pdfrwt>
<totfact> 0.50606857E+00</totfact>
</mgrwt>
</event>
<event>
 6    1  0.1817112E-005  0.2322294E+04  0.7818608E-02  0.8469183E-01
          2   -1    0    0  501    0  0.00000000000E+00  0.00000000000E+00  0.22361769151E+04  0.22361769151E+04  0.00000000000E+00 0. -1.
         -2   -1    0    0    0  501 -0.00000000000E+00 -0.00000000000E+00 -0.60293179632E+03  0.60293179632E+03  0.00000000000E+00 0.  1.
         23    2    1    2    0    0 -0.33082847869E+03 -0.26393226062E+02  0.21759846845E+04  0.22029402424E+04  0.88838501770E+02 0.  0.
         13    1    3    3    0    0 -0.22542460837E+03 -0.52973156047E+02  0.13312053116E+04  0.13511957634E+04  0.00000000000E+00 0.  1.
        -13    1    3    3    0    0 -0.10540387031E+03  0.26579929985E+02  0.84477937289E+03  0.85174447894E+03  0.00000000000E+00 0. -1.
         22    1    1    2    0    0  0.33082847869E+03  0.26393226062E+02 -0.54273956579E+03  0.63616846901E+03  0.00000000000E+00 0.  1.
<mgrwt>
<rscale>  0 0.23222938E+04</rscale>
<asrwt>0</asrwt>
<pdfrwt beam="1">  1        2 0.34402721E+00 0.23222938E+04</pdfrwt>
<pdfrwt beam="2">  1       -2 0.92758739E-01 0.23222938E+04</pdfrwt>
<totfact> 0.43929355E+00</totfact>
</mgrwt>
</event>
<event>
 6    1  0.1817112E-005  0.1649035E+04  0.7818608E-02  0.8790978E-01
          1   -1    0    0  501    0  0.00000000000E+00  0.00000000000E+00  0.84424012335E+03  0.84424012335E+03  0.00000000000E+00 0. -1.
         -1   -1    0    0    0  501 -0.00000000000E+00 -0.00000000000E+00 -0.80525545003E+03  0.80525545003E+03  0.00000000000E+00 0.  1.
         23    2    1    2    0    0 -0.60500284081E+01 -0.75493760113E+03  0.34472424572E+03  0.83497481209E+03  0.91546418784E+02 0.  0.
         11    1    3    3    0    0 -0.19826934561E+02 -0.37931024347E+03  0.22000526959E+03  0.43894383102E+03  0.00000000000E+00 0. -1.
        -11    1    3    3    0    0  0.13776906153E+02 -0.37562735766E+03  0.12471897612E+03  0.39603098107E+03  0.00000000000E+00 0.  1.
         22    1    1    2    0    0  0.60500284081E+01  0.75493760113E+03 -0.30573957240E+03  0.81452076129E+03  0.00000000000E+00 0.  1.
<mgrwt>
<rscale>  0 0.16490348E+04</rscale>
<asrwt>0</asrwt>
<pdfrwt beam="1">  1        1 0.12988310E+00 0.16490348E+04</pdfrwt>
<pdfrwt beam="2">  1       -1 0.12388545E+00 0.16490348E+04</pdfrwt>
<totfact> 0.11078756E+01</totfact>
</mgrwt>
</event>
<event>
 6    1  0.1817112E-005  0.4390579E+04  0.7818608E-02  0.7930078E-01
         -2   -1    0    0    0  501 -0.00000000000E+00  0.00000000000E+00  0.13953955734E+04  0.13953955734E+04  0.00000000000E+00 0.  1.
          2   -1    0    0  501    0  0.00000000000E+00 -0.00000000000E+00 -0.34537126890E+04  0.34537126890E+04  0.00000000000E+00 0. -1.
         23    2    1    2    0    0 -0.10871010631E+04 -0.14942528644E+04  0.27781669578E+03  0.18705009488E+04  0.83733736666E+02 0.  0.
         11    1    3    3    0    0 -0.29026873390E+03 -0.45327828613E+03  0.10177743445E+03  0.54779173845E+03  0.00000000000E+00 0. -1.
        -11    1    3    3    0    0 -0.79683232924E+03 -0.10409745783E+04  0.17603926132E+03  0.13227092103E+04  0.00000000000E+00 0.  1.
         22    1    1    2    0    0  0.10871010631E+04  0.14942528644E+04 -0.23361338113E+04  0.29786073136E+04  0.00000000000E+00 0. -1.
<mgrwt>
<rscale>  0 0.43905787E+04</rscale>
<asrwt>0</asrwt>
<pdfrwt beam="1">  1        2 0.53134041E+00 0.43905787E+04</pdfrwt>
<pdfrwt beam="2">  1       -2 0.21467624E+00 0.43905787E+04</pdfrwt>
<totfact> 0.71403222E-02</totfact>
</mgrwt>
</event>
<event>
 6    1  0.1817112E-005  0.1650996E+04  0.7818608E-02  0.8789817E-01
         -2   -1    0    0    0  501 -0.00000000000E+00  0.00000000000E+00  0.10316047948E+04  0.10316047948E+04  0.00000000000E+00 0.  1.
          2   -1    0    0  501    0  0.00000000000E+00 -0.00000000000E+00 -0.66057012474E+03  0.66057012474E+03  0.00000000000E+00 0. -1.
         23    2    1    2    0    0  0.72924851868E+03  0.35666118377E+03  0.32484172495E+03  0.87906706061E+03  0.90698118885E+02 0.  0.
         11    1    3    3    0    0  0.16702915104E+03  0.11857976555E+03  0.59151299439E+02  0.21321063370E+03  0.00000000000E+00 0. -1.
        -11    1    3    3    0    0  0.56221936764E+03  0.23808141822E+03  0.26569042552E+03  0.66585642691E+03  0.00000000000E+00 0.  1.
         22    1    1    2    0    0 -0.72924851868E+03 -0.35666118377E+03  0.46192945068E+02  0.81310785889E+03  0.00000000000E+00 0.  1.
<mgrwt>
<rscale>  0 0.16509964E+04</rscale>
<asrwt>0</asrwt>
<pdfrwt beam="1">  1        2 0.10162617E+00 0.16509964E+04</pdfrwt>
<pdfrwt beam="2">  1       -2 0.15870843E+00 0.16509964E+04</pdfrwt>
<totfact> 0.10832244E+01</totfact>
</mgrwt>
</event>
<event>
 6    1  0.1817112E-005  0.5044769E+04  0.7818608E-02  0.7821638E-01
          2   -1    0    0  501    0  0.00000000000E+00  0.00000000000E+00  0.27793244936E+04  0.27793244936E+04  0.00000000000E+00 0. -1.
         -2   -1    0    0    0  501 -0.00000000000E+00 -0.00000000000E+00 -0.22891979937E+04  0.22891979937E+04  0.00000000000E+00 0.  1.
         23    2    1    2    0    0  0.11791464006E+04  0.14591923248E+04 -0.14475688276E+04  0.23714330084E+04  0.92792930905E+02 0.  0.
         13    1    3    3    0    0  0.67534515892E+03  0.80390240573E+03 -0.75737808652E+03  0.12945932672E+04  0.00000000000E+00 0. -1.
        -13    1    3    3    0    0  0.50380124167E+03  0.65528991909E+03 -0.69019074111E+03  0.10768397412E+04  0.00000000000E+00 0.  1.
         22    1    1    2    0    0 -0.11791464006E+04 -0.14591923248E+04  0.19376953275E+04  0.26970894789E+04  0.00000000000E+00 0. -1.
<mgrwt>
<rscale>  0 0.50447692E+04</rscale>
<asrwt>0</asrwt>
<pdfrwt beam="1">  1        2 0.42758838E+00 0.50447692E+04</pdfrwt>
<pdfrwt beam="2">  1       -2 0.35218431E+00 0.50447692E+04</pdfrwt>
<totfact> 0.26020637E-02</totfact>
</mgrwt>
</event>
<event>
 6    1  0.1817112E-005  0.2090367E+04  0.7818608E-02  0.8565498E-01
         -2   -1    0    0    0  501 -0.00000000000E+00  0.00000000000E+00  0.12911453244E+04  0.12911453244E+04  0.00000000000E+00 0. -1.
          2   -1    0    0  501    0  0.00000000000E+00 -0.00000000000E+00 -0.84607749537E+03  0.84607749537E+03  0.00000000000E+00 0.  1.
         23    2    1    2    0    0  0.86284500840E+03  0.47580074243E+03 -0.12757800070E+03  0.99756888049E+03  0.89328998939E+02 0.  0.
         11    1    3    3    0    0  0.68256702645E+03  0.41388376505E+03 -0.11566105331E+03  0.80658229327E+03  0.00000000000E+00 0.  1.
        -11    1    3    3    0    0  0.18027798195E+03  0.61916977384E+02 -0.11916947387E+02  0.19098658722E+03  0.00000000000E+00 0. -1.
         22    1    1    2    0    0 -0.86284500840E+03 -0.47580074243E+03  0.57264582975E+03  0.11396539393E+04  0.00000000000E+00 0. -1.
<mgrwt>
<rscale>  0 0.20903674E+04</rscale>
<asrwt>0</asrwt>
<pdfrwt beam="1">  1        2 0.13016577E+00 0.20903674E+04</pdfrwt>
<pdfrwt beam="2">  1       -2 0.19863774E+00 0.20903674E+04</pdfrwt>
<totfact> 0.39978155E+00</totfact>
</mgrwt>
</event>
<event>
 6    1  0.1817112E-005  0.2255999E+04  0.7818608E-02  0.8495475E-01
          2   -1    0    0  501    0  0.00000000000E+00  0.00000000000E+00  0.46986804645E+04  0.46986804645E+04  0.00000000000E+00 0. -1.
         -2   -1    0    0    0  501 -0.00000000000E+00 -0.00000000000E+00 -0.27079577400E+03  0.27079577400E+03  0.00000000000E+00 0.  1.
         23    2    1    2    0    0  0.29129273449E+03 -0.91606281090E+03  0.92566558719E+03  0.13377326933E+04  0.93002412145E+02 0.  0.
         13    1    3    3    0    0  0.11016864130E+03 -0.31180600449E+03  0.37909875412E+03  0.50306657545E+03  0.00000000000E+00 0. -1.
        -13    1    3    3    0    0  0.18112409319E+03 -0.60425680641E+03  0.54656683307E+03  0.83466611782E+03  0.00000000000E+00 0.  1.
         22    1    1    2    0    0 -0.29129273449E+03  0.91606281090E+03  0.35022191033E+04  0.36317435452E+04  0.00000000000E+00 0. -1.
<mgrwt>
<rscale>  0 0.22559989E+04</rscale>
<asrwt>0</asrwt>
<pdfrwt beam="1">  1        2 0.72287385E+00 0.22559989E+04</pdfrwt>
<pdfrwt beam="2">  1       -2 0.41660892E-01 0.22559989E+04</pdfrwt>
<totfact> 0.38723921E-01</totfact>
</mgrwt>
</event>
<event>
 6    1  0.1817112E-005  0.2907497E+04  0.7818608E-02  0.8270651E-01
         -2   -1    0    0    0  501 -0.00000000000E+00  0.00000000000E+00  0.96565716764E+03  0.96565716764E+03  0.00000000000E+00 0.  1.
          2   -1    0    0  501    0  0.00000000000E+00 -0.00000000000E+00 -0.21885448032E+04  0.21885448032E+04  0.00000000000E+00 0. -1.
         23    2    1    2    0    0  0.30725756596E+03 -0.35495847570E+03 -0.21029948284E+04  0.21567094134E+04  0.91681591240E+02 0.  0.
         13    1    3    3    0    0  0.65637408818E+02 -0.14098955277E+03 -0.70204016519E+03  0.71905960599E+03  0.00000000000E+00 0.  1.
        -13    1    3    3    0    0  0.24162015714E+03 -0.21396892293E+03 -0.14009546632E+04  0.14376498074E+04  0.00000000000E+00 0. -1.
         22    1    1    2    0    0 -0.30725756596E+03  0.35495847570E+03  0.88010719283E+03  0.99749255746E+03  0.00000000000E+00 0.  1.
<mgrwt>
<rscale>  0 0.29074965E+04</rscale>
<asrwt>0</asrwt>
<pdfrwt beam="1">  1        2 0.33669919E+00 0.29074965E+04</pdfrwt>
<pdfrwt beam="2">  1       -2 0.14856264E+00 0.29074965E+04</pdfrwt>
<totfact> 0.13894151E+00</totfact>
</mgrwt>
</event>
<event>
 6    1  0.1817112E-005  0.1211343E+04  0.7818608E-02  0.9102985E-01
         -2   -1    0    0    0  501 -0.00000000000E+00  0.00000000000E+00  0.50386576847E+03  0.50386576847E+03  0.00000000000E+00 0.  1.
          2   -1    0    0  501    0  0.00000000000E+00 -0.00000000000E+00 -0.72804719992E+03  0.72804719992E+03  0.00000000000E+00 0. -1.
         23    2    1    2    0    0 -0.55722660406E+03  0.22193803010E+03 -0.16697167062E+03  0.62939248391E+03  0.92181248300E+02 0.  0.
         13    1    3    3    0    0 -0.10813530549E+03  0.31542381491E+02 -0.68291707835E+02  0.13172669996E+03  0.00000000000E+00 0.  1.
        -13    1    3    3    0    0 -0.44909129857E+03  0.19039564861E+03 -0.98679962784E+02  0.49766578395E+03  0.00000000000E+00 0. -1.
         22    1    1    2    0    0  0.55722660406E+03 -0.22193803010E+03 -0.57209760833E+02  0.60252048448E+03  0.00000000000E+00 0. -1.
<mgrwt>
<rscale>  0 0.12113432E+04</rscale>
<asrwt>0</asrwt>
<pdfrwt beam="1">  1        2 0.11200726E+00 0.12113432E+04</pdfrwt>
<pdfrwt beam="2">  1       -2 0.77517811E-01 0.12113432E+04</pdfrwt>
<totfact> 0.57032284E+01</totfact>
</mgrwt>
</event>
<event>
 6    1  0.1817112E-005  0.1976468E+04  0.7818608E-02  0.8617702E-01
          1   -1    0    0  501    0  0.00000000000E+00  0.00000000000E+00  0.92498670420E+03  0.92498670420E+03  0.00000000000E+00 0. -1.
         -1   -1    0    0    0  501 -0.00000000000E+00 -0.00000000000E+00 -0.10558062285E+04  0.10558062285E+04  0.00000000000E+00 0.  1.
         23    2    1    2    0    0 -0.75166666397E+03  0.59449278011E+03  0.16795450299E+03  0.97695511777E+03  0.88363724027E+02 0.  0.
         13    1    3    3    0    0 -0.44132734132E+03  0.35984919772E+03  0.14285932650E+03  0.58708607074E+03  0.00000000000E+00 0. -1.
        -13    1    3    3    0    0 -0.31033932265E+03  0.23464358239E+03  0.25095176494E+02  0.38986904702E+03  0.00000000000E+00 0.  1.
         22    1    1    2    0    0  0.75166666397E+03 -0.59449278011E+03 -0.29877402732E+03  0.10038378150E+04  0.00000000000E+00 0.  1.
<mgrwt>
<rscale>  0 0.19764683E+04</rscale>
<asrwt>0</asrwt>
<pdfrwt beam="1">  1        1 0.14230565E+00 0.19764683E+04</pdfrwt>
<pdfrwt beam="2">  1       -1 0.16243173E+00 0.19764683E+04</pdfrwt>
<totfact> 0.45210996E+00</totfact>
</mgrwt>
</event>
<event>
 6    1  0.1817112E-005  0.2954473E+04  0.7818608E-02  0.8256852E-01
          2   -1    0    0  501    0  0.00000000000E+00  0.00000000000E+00  0.23519762650E+04  0.23519762650E+04  0.00000000000E+00 0. -1.
         -2   -1    0    0    0  501 -0.00000000000E+00 -0.00000000000E+00 -0.92782700273E+03  0.92782700273E+03  0.00000000000E+00 0.  1.
         23    2    1    2    0    0 -0.76933768556E+03  0.12302631298E+04  0.10108512865E+04  0.17710809408E+04  0.97362890221E+02 0.  0.
         11    1    3    3    0    0 -0.56516395168E+03  0.96081253311E+03  0.80902202841E+03  0.13773480528E+04  0.00000000000E+00 0. -1.
        -11    1    3    3    0    0 -0.20417373388E+03  0.26945059670E+03  0.20182925808E+03  0.39373288799E+03  0.00000000000E+00 0.  1.
         22    1    1    2    0    0  0.76933768556E+03 -0.12302631298E+04  0.41329797574E+03  0.15087223269E+04  0.00000000000E+00 0. -1.
<mgrwt>
<rscale>  0 0.29544726E+04</rscale>
<asrwt>0</asrwt>
<pdfrwt beam="1">  1        2 0.36184250E+00 0.29544726E+04</pdfrwt>
<pdfrwt beam="2">  1       -2 0.14274262E+00 0.29544726E+04</pdfrwt>
<totfact> 0.12422969E+00</totfact>
</mgrwt>
</event>
<event>
 6    1  0.1817112E-005  0.2148387E+04  0.7818608E-02  0.8540223E-01
          2   -1    0    0  501    0  0.00000000000E+00  0.00000000000E+00  0.10190145759E+04  0.10190145759E+04  0.00000000000E+00 0. -1.
         -2   -1    0    0    0  501 -0.00000000000E+00 -0.00000000000E+00 -0.11323604532E+04  0.11323604532E+04  0.00000000000E+00 0.  1.
         23    2    1    2    0    0 -0.35168668708E+03  0.62110330900E+03 -0.85803120150E+03  0.11198668719E+04  0.91822773416E+02 0.  0.
         13    1    3    3    0    0 -0.10873270116E+03  0.20243389326E+03 -0.21229628355E+03  0.31284499908E+03  0.00000000000E+00 0.  1.
        -13    1    3    3    0    0 -0.24295398592E+03  0.41866941574E+03 -0.64573491795E+03  0.80702187282E+03  0.00000000000E+00 0. -1.
         22    1    1    2    0    0  0.35168668708E+03 -0.62110330900E+03  0.74468532416E+03  0.10315081572E+04  0.00000000000E+00 0. -1.
<mgrwt>
<rscale>  0 0.21483871E+04</rscale>
<asrwt>0</asrwt>
<pdfrwt beam="1">  1        2 0.15677147E+00 0.21483871E+04</pdfrwt>
<pdfrwt beam="2">  1       -2 0.17420930E+00 0.21483871E+04</pdfrwt>
<totfact> 0.44732359E+00</totfact>
</mgrwt>
</event>
<event>
 6    1  0.1817112E-005  0.2095638E+04  0.7818608E-02  0.8563167E-01
          2   -1    0    0  501    0  0.00000000000E+00  0.00000000000E+00  0.35478000115E+04  0.35478000115E+04  0.00000000000E+00 0. -1.
         -2   -1    0    0    0  501 -0.00000000000E+00 -0.00000000000E+00 -0.30946636669E+03  0.30946636669E+03  0.00000000000E+00 0.  1.
         23    2    1    2    0    0 -0.72694024532E+03  0.73623361877E+02  0.24501093090E+03  0.77605827272E+03  0.91507194863E+02 0.  0.
         13    1    3    3    0    0 -0.34767537025E+03 -0.40294127292E+01  0.90950687867E+02  0.35939731060E+03  0.00000000000E+00 0. -1.
        -13    1    3    3    0    0 -0.37926487507E+03  0.77652774607E+02  0.15406024304E+03  0.41666096212E+03  0.00000000000E+00 0.  1.
         22    1    1    2    0    0  0.72694024532E+03 -0.73623361877E+02  0.29933227139E+04  0.30812081054E+04  0.00000000000E+00 0. -1.
<mgrwt>
<rscale>  0 0.20956381E+04</rscale>
<asrwt>0</asrwt>
<pdfrwt beam="1">  1        2 0.54581536E+00 0.20956381E+04</pdfrwt>
<pdfrwt beam="2">  1       -2 0.47610213E-01 0.20956381E+04</pdfrwt>
<totfact> 0.29135931E+00</totfact>
</mgrwt>
</event>
<event>
 6    1  0.1817112E-005  0.1917906E+04  0.7818608E-02  0.8645995E-01
          2   -1    0    0  501    0  0.00000000000E+00  0.00000000000E+00  0.51703265659E+04  0.51703265659E+04  0.00000000000E+00 0. -1.
         -2   -1    0    0    0  501 -0.00000000000E+00 -0.00000000000E+00 -0.17785929015E+03  0.17785929015E+03  0.00000000000E+00 0.  1.
         23    2    1    2    0    0  0.77962562292E+03  0.54718401773E+03  0.22483073910E+04  0.24434242592E+04  0.90606429638E+02 0.  0.
         13    1    3    3    0    0  0.65822410580E+03  0.49827659431E+03  0.19627048408E+04  0.21292601602E+04  0.00000000000E+00 0.  1.
        -13    1    3    3    0    0  0.12140151712E+03  0.48907423415E+02  0.28560255022E+03  0.31416409902E+03  0.00000000000E+00 0. -1.
         22    1    1    2    0    0 -0.77962562292E+03 -0.54718401773E+03  0.27441598847E+04  0.29047615968E+04  0.00000000000E+00 0.  1.
<mgrwt>
<rscale>  0 0.19179057E+04</rscale>
<asrwt>0</asrwt>
<pdfrwt beam="1">  1        2 0.79543474E+00 0.19179057E+04</pdfrwt>
<pdfrwt beam="2">  1       -2 0.27362972E-01 0.19179057E+04</pdfrwt>
<totfact> 0.23895287E-01</totfact>
</mgrwt>
</event>
<event>
 6    1  0.1817112E-005  0.4527452E+04  0.7818608E-02  0.7905848E-01
         -2   -1    0    0    0  501 -0.00000000000E+00  0.00000000000E+00  0.16361592539E+04  0.16361592539E+04  0.00000000000E+00 0.  1.
          2   -1    0    0  501    0  0.00000000000E+00 -0.00000000000E+00 -0.31320027708E+04  0.31320027708E+04  0.00000000000E+00 0. -1.
         23    2    1    2    0    0 -0.14831027176E+04 -0.15520636245E+04  0.59970652652E+01  0.21482344876E+04  0.79876675591E+02 0.  0.
         13    1    3    3    0    0 -0.46092509768E+03 -0.53524883626E+03  0.10495222175E+02  0.70643712536E+03  0.00000000000E+00 0.  1.
        -13    1    3    3    0    0 -0.10221776199E+04 -0.10168147882E+04 -0.44981569093E+01  0.14417973622E+04  0.00000000000E+00 0. -1.
         22    1    1    2    0    0  0.14831027176E+04  0.15520636245E+04 -0.15018405822E+04  0.26199275371E+04  0.00000000000E+00 0. -1.
<mgrwt>
<rscale>  0 0.45274520E+04</rscale>
<asrwt>0</asrwt>
<pdfrwt beam="1">  1        2 0.48184658E+00 0.45274520E+04</pdfrwt>
<pdfrwt beam="2">  1       -2 0.25171681E+00 0.45274520E+04</pdfrwt>
<totfact> 0.68003584E-02</totfact>
</mgrwt>
</event>
<event>
 6    1  0.1817112E-005  0.1447589E+04  0.7818608E-02  0.8920073E-01
         -2   -1    0    0    0  501 -0.00000000000E+00  0.00000000000E+00  0.87888243046E+03  0.87888243046E+03  0.00000000000E+00 0. -1.
          2   -1    0    0  501    0  0.00000000000E+00 -0.00000000000E+00 -0.59607375681E+03  0.59607375681E+03  0.00000000000E+00 0.  1.
         23    2    1    2    0    0 -0.26464540291E+02 -0.18351551485E+03 -0.56768754769E+03  0.60448382206E+03  0.93558662043E+02 0.  0.
         13    1    3    3    0    0 -0.47751335110E+02 -0.87376858948E+02 -0.37630194123E+03  0.38925320353E+03  0.00000000000E+00 0.  1.
        -13    1    3    3    0    0  0.21286794819E+02 -0.96138655898E+02 -0.19138560646E+03  0.21523061853E+03  0.00000000000E+00 0. -1.
         22    1    1    2    0    0  0.26464540291E+02  0.18351551485E+03  0.85049622134E+03  0.87047236521E+03  0.00000000000E+00 0. -1.
<mgrwt>
<rscale>  0 0.14475894E+04</rscale>
<asrwt>0</asrwt>
<pdfrwt beam="1">  1        2 0.91703655E-01 0.14475894E+04</pdfrwt>
<pdfrwt beam="2">  1       -2 0.13521268E+00 0.14475894E+04</pdfrwt>
<totfact> 0.19043249E+01</totfact>
</mgrwt>
</event>
<event>
 6    1  0.1817112E-005  0.2952099E+04  0.7818608E-02  0.8257543E-01
          1   -1    0    0  501    0  0.00000000000E+00  0.00000000000E+00  0.13688211452E+04  0.13688211452E+04  0.00000000000E+00 0. -1.
         -1   -1    0    0    0  501 -0.00000000000E+00 -0.00000000000E+00 -0.15916775860E+04  0.15916775860E+04  0.00000000000E+00 0.  1.
         23    2    1    2    0    0 -0.51838942398E+03  0.69592073518E+03 -0.13071294886E+04  0.15717290213E+04  0.93334623392E+02 0.  0.
         13    1    3    3    0    0 -0.26449429638E+03  0.27810594090E+03 -0.56470957989E+03  0.68278624533E+03  0.00000000000E+00 0. -1.
        -13    1    3    3    0    0 -0.25389512760E+03  0.41781479428E+03 -0.74241990874E+03  0.88894277601E+03  0.00000000000E+00 0.  1.
         22    1    1    2    0    0  0.51838942398E+03 -0.69592073518E+03  0.10842730478E+04  0.13887697098E+04  0.00000000000E+00 0. -1.
<mgrwt>
<rscale>  0 0.29520989E+04</rscale>
<asrwt>0</asrwt>
<pdfrwt beam="1">  1        1 0.21058787E+00 0.29520989E+04</pdfrwt>
<pdfrwt beam="2">  1       -1 0.24487347E+00 0.29520989E+04</pdfrwt>
<totfact> 0.52015669E-01</totfact>
</mgrwt>
</event>
<event>
 6    1  0.1817112E-005  0.2383551E+04  0.7818608E-02  0.8445688E-01
         -2   -1    0    0    0  501 -0.00000000000E+00  0.00000000000E+00  0.51358003786E+03  0.51358003786E+03  0.00000000000E+00 0.  1.
          2   -1    0    0  501    0  0.00000000000E+00 -0.00000000000E+00 -0.27655457522E+04  0.27655457522E+04  0.00000000000E+00 0. -1.
         23    2    1    2    0    0 -0.13720496238E+03 -0.97101498516E+03 -0.20548042800E+04  0.22788418632E+04  0.95939069683E+02 0.  0.
         11    1    3    3    0    0 -0.69598285038E+02 -0.68607821469E+03 -0.15197733901E+04  0.16689093430E+04  0.00000000000E+00 0. -1.
        -11    1    3    3    0    0 -0.67606677343E+02 -0.28493677047E+03 -0.53503088996E+03  0.60993252020E+03  0.00000000000E+00 0.  1.
         22    1    1    2    0    0  0.13720496238E+03  0.97101498516E+03 -0.19716143428E+03  0.10002839268E+04  0.00000000000E+00 0.  1.
<mgrwt>
<rscale>  0 0.23835512E+04</rscale>
<asrwt>0</asrwt>
<pdfrwt beam="1">  1        2 0.42546858E+00 0.23835512E+04</pdfrwt>
<pdfrwt beam="2">  1       -2 0.79012313E-01 0.23835512E+04</pdfrwt>
<totfact> 0.31053867E+00</totfact>
</mgrwt>
</event>
<event>
 6    1  0.1817112E-005  0.9906939E+03  0.7818608E-02  0.9318811E-01
          1   -1    0    0  501    0  0.00000000000E+00  0.00000000000E+00  0.14788676982E+04  0.14788676982E+04  0.00000000000E+00 0. -1.
         -1   -1    0    0    0  501 -0.00000000000E+00 -0.00000000000E+00 -0.16591653347E+03  0.16591653347E+03  0.00000000000E+00 0.  1.
         23    2    1    2    0    0  0.57275493944E+02 -0.48544406924E+03  0.74457829936E+03  0.89512821679E+03  0.89001427253E+02 0.  0.
         13    1    3    3    0    0  0.45792922806E+02 -0.15369428029E+03  0.18831932900E+03  0.24735216443E+03  0.00000000000E+00 0. -1.
        -13    1    3    3    0    0  0.11482571139E+02 -0.33174978895E+03  0.55625897036E+03  0.64777605236E+03  0.00000000000E+00 0.  1.
         22    1    1    2    0    0 -0.57275493944E+02  0.48544406924E+03  0.56837286539E+03  0.74965601490E+03  0.00000000000E+00 0.  1.
<mgrwt>
<rscale>  0 0.99069390E+03</rscale>
<asrwt>0</asrwt>
<pdfrwt beam="1">  1        1 0.22751810E+00 0.99069390E+03</pdfrwt>
<pdfrwt beam="2">  1       -1 0.25525622E-01 0.99069390E+03</pdfrwt>
<totfact> 0.91728824E+01</totfact>
</mgrwt>
</event>
<event>
 6    1  0.1817112E-005  0.3442842E+04  0.7818608E-02  0.8127471E-01
          2   -1    0    0  501    0  0.00000000000E+00  0.00000000000E+00  0.17514628408E+04  0.17514628408E+04  0.00000000000E+00 0. -1.
         -2   -1    0    0    0  501 -0.00000000000E+00 -0.00000000000E+00 -0.16918947729E+04  0.16918947729E+04  0.00000000000E+00 0.  1.
         23    2    1    2    0    0 -0.91247732155E+03  0.13272209050E+03  0.14822290923E+04  0.17480126912E+04  0.91188108202E+02 0.  0.
         11    1    3    3    0    0 -0.66433888558E+03  0.10868482132E+03  0.11517327744E+04  0.13340340809E+04  0.00000000000E+00 0. -1.
        -11    1    3    3    0    0 -0.24813843597E+03  0.24037269179E+02  0.33049631789E+03  0.41397861038E+03  0.00000000000E+00 0.  1.
         22    1    1    2    0    0  0.91247732155E+03 -0.13272209050E+03 -0.14226610244E+04  0.16953449224E+04  0.00000000000E+00 0.  1.
<mgrwt>
<rscale>  0 0.34428423E+04</rscale>
<asrwt>0</asrwt>
<pdfrwt beam="1">  1        2 0.26945582E+00 0.34428423E+04</pdfrwt>
<pdfrwt beam="2">  1       -2 0.26029151E+00 0.34428423E+04</pdfrwt>
<totfact> 0.42117398E-01</totfact>
</mgrwt>
</event>
<event>
 6    1  0.1817112E-005  0.1442309E+04  0.7818608E-02  0.8923750E-01
         -2   -1    0    0    0  501 -0.00000000000E+00  0.00000000000E+00  0.11828263670E+04  0.11828263670E+04  0.00000000000E+00 0.  1.
          2   -1    0    0  501    0  0.00000000000E+00 -0.00000000000E+00 -0.43967908419E+03  0.43967908419E+03  0.00000000000E+00 0. -1.
         23    2    1    2    0    0 -0.62256159681E+03 -0.14805706558E+03  0.68141968748E+01  0.64695932214E+03  0.94900446463E+02 0.  0.
         11    1    3    3    0    0 -0.32556306139E+03 -0.57015210805E+02  0.46584394726E+02  0.33378458178E+03  0.00000000000E+00 0. -1.
        -11    1    3    3    0    0 -0.29699853542E+03 -0.91041854771E+02 -0.39770197851E+02  0.31317474036E+03  0.00000000000E+00 0.  1.
         22    1    1    2    0    0  0.62256159681E+03  0.14805706558E+03  0.73633308596E+03  0.97554612908E+03  0.00000000000E+00 0.  1.
<mgrwt>
<rscale>  0 0.14423093E+04</rscale>
<asrwt>0</asrwt>
<pdfrwt beam="1">  1        2 0.67642937E-01 0.14423093E+04</pdfrwt>
<pdfrwt beam="2">  1       -2 0.18197329E+00 0.14423093E+04</pdfrwt>
<totfact> 0.12164369E+01</totfact>
</mgrwt>
</event>
<event>
 6    1  0.1817112E-005  0.3227690E+04  0.7818608E-02  0.8181542E-01
         -1   -1    0    0    0  501 -0.00000000000E+00  0.00000000000E+00  0.19383565548E+04  0.19383565548E+04  0.00000000000E+00 0.  1.
          1   -1    0    0  501    0  0.00000000000E+00 -0.00000000000E+00 -0.13436615572E+04  0.13436615572E+04  0.00000000000E+00 0. -1.
         23    2    1    2    0    0 -0.27043259968E+03 -0.77203541140E+03  0.17106372376E+04  0.18983636934E+04  0.91282453608E+02 0.  0.
         13    1    3    3    0    0 -0.31363775758E+02 -0.19342746815E+03  0.36713853658E+03  0.41615931673E+03  0.00000000000E+00 0. -1.
        -13    1    3    3    0    0 -0.23906882393E+03 -0.57860794326E+03  0.13434987010E+04  0.14822043766E+04  0.00000000000E+00 0.  1.
         22    1    1    2    0    0  0.27043259968E+03  0.77203541140E+03 -0.11159422400E+04  0.13836544187E+04  0.00000000000E+00 0. -1.
<mgrwt>
<rscale>  0 0.32276897E+04</rscale>
<asrwt>0</asrwt>
<pdfrwt beam="1">  1        1 0.20671716E+00 0.32276897E+04</pdfrwt>
<pdfrwt beam="2">  1       -1 0.29820870E+00 0.32276897E+04</pdfrwt>
<totfact> 0.23836159E-01</totfact>
</mgrwt>
</event>
<event>
 6    1  0.1817112E-005  0.1817471E+04  0.7818608E-02  0.8697063E-01
          1   -1    0    0  501    0  0.00000000000E+00  0.00000000000E+00  0.12342617750E+04  0.12342617750E+04  0.00000000000E+00 0. -1.
         -1   -1    0    0    0  501 -0.00000000000E+00 -0.00000000000E+00 -0.66906419000E+03  0.66906419000E+03  0.00000000000E+00 0.  1.
         23    2    1    2    0    0  0.33115996231E+03 -0.83481126423E+03  0.15512220846E+03  0.91603746513E+03  0.92113899321E+02 0.  0.
         13    1    3    3    0    0  0.18219540042E+03 -0.48837489874E+03  0.45053680569E+02  0.52319694169E+03  0.00000000000E+00 0. -1.
        -13    1    3    3    0    0  0.14896456188E+03 -0.34643636548E+03  0.11006852789E+03  0.39284052344E+03  0.00000000000E+00 0.  1.
         22    1    1    2    0    0 -0.33115996231E+03  0.83481126423E+03  0.41007537654E+03  0.98728849986E+03  0.00000000000E+00 0.  1.
<mgrwt>
<rscale>  0 0.18174712E+04</rscale>
<asrwt>0</asrwt>
<pdfrwt beam="1">  1        1 0.18988643E+00 0.18174712E+04</pdfrwt>
<pdfrwt beam="2">  1       -1 0.10293295E+00 0.18174712E+04</pdfrwt>
<totfact> 0.84760929E+00</totfact>
</mgrwt>
</event>
<event>
 6    1  0.1817112E-005  0.2837788E+04  0.7818608E-02  0.8291632E-01
         -2   -1    0    0    0  501 -0.00000000000E+00  0.00000000000E+00  0.11417298499E+04  0.11417298499E+04  0.00000000000E+00 0.  1.
          2   -1    0    0  501    0  0.00000000000E+00 -0.00000000000E+00 -0.17633415174E+04  0.17633415174E+04  0.00000000000E+00 0. -1.
         23    2    1    2    0    0 -0.74682098179E+03  0.88779223427E+02 -0.15412332754E+04  0.17170784249E+04  0.85644490162E+02 0.  0.
         11    1    3    3    0    0 -0.21023543097E+03 -0.12638805478E+02 -0.40984063792E+03  0.46079065130E+03  0.00000000000E+00 0. -1.
        -11    1    3    3    0    0 -0.53658555083E+03  0.10141802890E+03 -0.11313926375E+04  0.12562877736E+04  0.00000000000E+00 0.  1.
         22    1    1    2    0    0  0.74682098179E+03 -0.88779223427E+02  0.91962160792E+03  0.11879929424E+04  0.00000000000E+00 0.  1.
<mgrwt>
<rscale>  0 0.28377876E+04</rscale>
<asrwt>0</asrwt>
<pdfrwt beam="1">  1        2 0.27128331E+00 0.28377876E+04</pdfrwt>
<pdfrwt beam="2">  1       -2 0.17565075E+00 0.28377876E+04</pdfrwt>
<totfact> 0.15253695E+00</totfact>
</mgrwt>
</event>
<event>
 6    1  0.1817112E-005  0.3269396E+04  0.7818608E-02  0.8170726E-01
          2   -1    0    0  501    0  0.00000000000E+00  0.00000000000E+00  0.17613076075E+04  0.17613076075E+04  0.00000000000E+00 0.  1.
         -2   -1    0    0    0  501 -0.00000000000E+00 -0.00000000000E+00 -0.15171896336E+04  0.15171896336E+04  0.00000000000E+00 0. -1.
         23    2    1    2    0    0 -0.13017398609E+04 -0.28317170803E+03 -0.82567305600E+03  0.15699406195E+04  0.90910239083E+02 0.  0.
         13    1    3    3    0    0 -0.64275709062E+03 -0.18257233539E+03 -0.39225324602E+03  0.77481090868E+03  0.00000000000E+00 0. -1.
        -13    1    3    3    0    0 -0.65898277029E+03 -0.10059937264E+03 -0.43341980998E+03  0.79512971080E+03  0.00000000000E+00 0.  1.
         22    1    1    2    0    0  0.13017398609E+04  0.28317170803E+03  0.10697910299E+04  0.17085566217E+04  0.00000000000E+00 0.  1.
<mgrwt>
<rscale>  0 0.32693961E+04</rscale>
<asrwt>0</asrwt>
<pdfrwt beam="1">  1        2 0.27097040E+00 0.32693961E+04</pdfrwt>
<pdfrwt beam="2">  1       -2 0.23341379E+00 0.32693961E+04</pdfrwt>
<totfact> 0.61796653E-01</totfact>
</mgrwt>
</event>
<event>
 6    1  0.1817112E-005  0.2391716E+04  0.7818608E-02  0.8442611E-01
          2   -1    0    0  501    0  0.00000000000E+00  0.00000000000E+00  0.12492890027E+04  0.12492890027E+04  0.00000000000E+00 0.  1.
         -2   -1    0    0    0  501 -0.00000000000E+00 -0.00000000000E+00 -0.11447123136E+04  0.11447123136E+04  0.00000000000E+00 0. -1.
         23    2    1    2    0    0 -0.71637467646E+03 -0.30971357731E+03 -0.85228551721E+03  0.11592136994E+04  0.90942954465E+02 0.  0.
         11    1    3    3    0    0 -0.17115107466E+03 -0.83758541992E+02 -0.26699569945E+03  0.32801659598E+03  0.00000000000E+00 0. -1.
        -11    1    3    3    0    0 -0.54522360180E+03 -0.22595503531E+03 -0.58528981776E+03  0.83119710341E+03  0.00000000000E+00 0.  1.
         22    1    1    2    0    0  0.71637467646E+03  0.30971357731E+03  0.95686220626E+03  0.12347876169E+04  0.00000000000E+00 0.  1.
<mgrwt>
<rscale>  0 0.23917161E+04</rscale>
<asrwt>0</asrwt>
<pdfrwt beam="1">  1        2 0.19219831E+00 0.23917161E+04</pdfrwt>
<pdfrwt beam="2">  1       -2 0.17610959E+00 0.23917161E+04</pdfrwt>
<totfact> 0.30747505E+00</totfact>
</mgrwt>
</event>
<event>
 6    1  0.1817112E-005  0.2034493E+04  0.7818608E-02  0.8590662E-01
          2   -1    0    0  501    0  0.00000000000E+00  0.00000000000E+00  0.89130045399E+03  0.89130045399E+03  0.00000000000E+00 0. -1.
         -2   -1    0    0    0  501 -0.00000000000E+00 -0.00000000000E+00 -0.11609892492E+04  0.11609892492E+04  0.00000000000E+00 0.  1.
         23    2    1    2    0    0 -0.92915106579E+03 -0.40927783018E+03 -0.15626785031E+03  0.10306760991E+04  0.83925770127E+02 0.  0.
         13    1    3    3    0    0 -0.45755652236E+03 -0.20500011736E+03 -0.11950413826E+03  0.51542628797E+03  0.00000000000E+00 0.  1.
        -13    1    3    3    0    0 -0.47159454344E+03 -0.20427771282E+03 -0.36763712042E+02  0.51524981114E+03  0.00000000000E+00 0. -1.
         22    1    1    2    0    0  0.92915106579E+03  0.40927783018E+03 -0.11342094492E+03  0.10216136041E+04  0.00000000000E+00 0. -1.
<mgrwt>
<rscale>  0 0.20344928E+04</rscale>
<asrwt>0</asrwt>
<pdfrwt beam="1">  1        2 0.13712315E+00 0.20344928E+04</pdfrwt>
<pdfrwt beam="2">  1       -2 0.17861373E+00 0.20344928E+04</pdfrwt>
<totfact> 0.51032022E+00</totfact>
</mgrwt>
</event>
<event>
 6    1  0.1817112E-005  0.1980324E+04  0.7818608E-02  0.8615876E-01
         -1   -1    0    0    0  501 -0.00000000000E+00  0.00000000000E+00  0.37702600727E+04  0.37702600727E+04  0.00000000000E+00 0.  1.
          1   -1    0    0  501    0  0.00000000000E+00 -0.00000000000E+00 -0.26004057786E+03  0.26004057786E+03  0.00000000000E+00 0. -1.
         23    2    1    2    0    0  0.78369825591E+03 -0.49893465702E+03  0.24432689599E+04  0.26155560827E+04  0.91932926719E+02 0.  0.
         13    1    3    3    0    0  0.30769567335E+03 -0.20799701425E+03  0.85585233984E+03  0.93296442212E+03  0.00000000000E+00 0. -1.
        -13    1    3    3    0    0  0.47600258256E+03 -0.29093764277E+03  0.15874166200E+04  0.16825916606E+04  0.00000000000E+00 0.  1.
         22    1    1    2    0    0 -0.78369825591E+03  0.49893465702E+03  0.10669505349E+04  0.14147445679E+04  0.00000000000E+00 0. -1.
<mgrwt>
<rscale>  0 0.19803238E+04</rscale>
<asrwt>0</asrwt>
<pdfrwt beam="1">  1        1 0.40006245E-01 0.19803238E+04</pdfrwt>
<pdfrwt beam="2">  1       -1 0.58003997E+00 0.19803238E+04</pdfrwt>
<totfact> 0.51493450E-02</totfact>
</mgrwt>
</event>
<event>
 6    1  0.1817112E-005  0.1652164E+04  0.7818608E-02  0.8789127E-01
          1   -1    0    0  501    0  0.00000000000E+00  0.00000000000E+00  0.19878415824E+04  0.19878415824E+04  0.00000000000E+00 0. -1.
         -1   -1    0    0    0  501 -0.00000000000E+00 -0.00000000000E+00 -0.34329284954E+03  0.34329284954E+03  0.00000000000E+00 0.  1.
         23    2    1    2    0    0 -0.54336042889E+03  0.28604656663E+03  0.50140177361E+02  0.62256724397E+03  0.89513920211E+02 0.  0.
         13    1    3    3    0    0 -0.62316844428E+02  0.18031491139E+02  0.30149250083E+02  0.71536711224E+02  0.00000000000E+00 0. -1.
        -13    1    3    3    0    0 -0.48104358446E+03  0.26801507549E+03  0.19990927278E+02  0.55103053274E+03  0.00000000000E+00 0.  1.
         22    1    1    2    0    0  0.54336042889E+03 -0.28604656663E+03  0.15944085555E+04  0.17085671880E+04  0.00000000000E+00 0. -1.
<mgrwt>
<rscale>  0 0.16521644E+04</rscale>
<asrwt>0</asrwt>
<pdfrwt beam="1">  1        1 0.30582178E+00 0.16521644E+04</pdfrwt>
<pdfrwt beam="2">  1       -1 0.52814285E-01 0.16521644E+04</pdfrwt>
<totfact> 0.10489961E+01</totfact>
</mgrwt>
</event>
<event>
 6    1  0.1817112E-005  0.7126080E+03  0.7818608E-02  0.9695910E-01
         -2   -1    0    0    0  501 -0.00000000000E+00  0.00000000000E+00  0.13026053545E+03  0.13026053545E+03  0.00000000000E+00 0. -1.
          2   -1    0    0  501    0  0.00000000000E+00 -0.00000000000E+00 -0.97460490570E+03  0.97460490570E+03  0.00000000000E+00 0.  1.
         23    2    1    2    0    0 -0.31966652915E+03 -0.14344697912E+03 -0.43719355142E+03  0.56771042167E+03  0.91614386376E+02 0.  0.
         13    1    3    3    0    0 -0.14909656602E+03 -0.38414537310E+02 -0.13283817697E+03  0.20335054447E+03  0.00000000000E+00 0. -1.
        -13    1    3    3    0    0 -0.17056996312E+03 -0.10503244181E+03 -0.30435537445E+03  0.36435987719E+03  0.00000000000E+00 0.  1.
         22    1    1    2    0    0  0.31966652915E+03  0.14344697912E+03 -0.40715081884E+03  0.53715501948E+03  0.00000000000E+00 0.  1.
<mgrwt>
<rscale>  0 0.71260805E+03</rscale>
<asrwt>0</asrwt>
<pdfrwt beam="1">  1        2 0.14993922E+00 0.71260805E+03</pdfrwt>
<pdfrwt beam="2">  1       -2 0.20040082E-01 0.71260805E+03</pdfrwt>
<totfact> 0.55995939E+02</totfact>
</mgrwt>
</event>
<event>
 6    1  0.1817112E-005  0.2665719E+04  0.7818608E-02  0.8346214E-01
         -2   -1    0    0    0  501 -0.00000000000E+00  0.00000000000E+00  0.18071205687E+04  0.18071205687E+04  0.00000000000E+00 0.  1.
          2   -1    0    0  501    0  0.00000000000E+00 -0.00000000000E+00 -0.98306362130E+03  0.98306362130E+03  0.00000000000E+00 0. -1.
         23    2    1    2    0    0 -0.66851351544E+03 -0.21461011939E+03 -0.77136479119E+03  0.10471011892E+04  0.91920812171E+02 0.  0.
         11    1    3    3    0    0 -0.36449938958E+03 -0.14333224146E+03 -0.48513671909E+03  0.62350747602E+03  0.00000000000E+00 0. -1.
        -11    1    3    3    0    0 -0.30401412585E+03 -0.71277877934E+02 -0.28622807211E+03  0.42359371320E+03  0.00000000000E+00 0.  1.
         22    1    1    2    0    0  0.66851351544E+03  0.21461011939E+03  0.15954217386E+04  0.17430830008E+04  0.00000000000E+00 0.  1.
<mgrwt>
<rscale>  0 0.26657190E+04</rscale>
<asrwt>0</asrwt>
<pdfrwt beam="1">  1        2 0.15124056E+00 0.26657190E+04</pdfrwt>
<pdfrwt beam="2">  1       -2 0.27801855E+00 0.26657190E+04</pdfrwt>
<totfact> 0.98401841E-01</totfact>
</mgrwt>
</event>
<event>
 6    1  0.1817112E-005  0.1097823E+04  0.7818608E-02  0.9207316E-01
          1   -1    0    0  501    0  0.00000000000E+00  0.00000000000E+00  0.18655482177E+04  0.18655482177E+04  0.00000000000E+00 0. -1.
         -1   -1    0    0    0  501 -0.00000000000E+00 -0.00000000000E+00 -0.16150964047E+03  0.16150964047E+03  0.00000000000E+00 0.  1.
         23    2    1    2    0    0 -0.29577570283E+03  0.45747594388E+03  0.82516728968E+03  0.99304516689E+03  0.92033373941E+02 0.  0.
         11    1    3    3    0    0 -0.11086971324E+03  0.14595168234E+03  0.20643630206E+03  0.27606146725E+03  0.00000000000E+00 0. -1.
        -11    1    3    3    0    0 -0.18490598959E+03  0.31152426154E+03  0.61873098762E+03  0.71698369965E+03  0.00000000000E+00 0.  1.
         22    1    1    2    0    0  0.29577570283E+03 -0.45747594388E+03  0.87887128751E+03  0.10340126912E+04  0.00000000000E+00 0.  1.
<mgrwt>
<rscale>  0 0.10978233E+04</rscale>
<asrwt>0</asrwt>
<pdfrwt beam="1">  1        1 0.28700740E+00 0.10978233E+04</pdfrwt>
<pdfrwt beam="2">  1       -1 0.24847638E-01 0.10978233E+04</pdfrwt>
<totfact> 0.51964790E+01</totfact>
</mgrwt>
</event>
<event>
 6    1  0.1817112E-005  0.3274931E+04  0.7818608E-02  0.8169304E-01
          2   -1    0    0  501    0  0.00000000000E+00  0.00000000000E+00  0.10279766574E+04  0.10279766574E+04  0.00000000000E+00 0. -1.
         -2   -1    0    0    0  501 -0.00000000000E+00 -0.00000000000E+00 -0.26083210876E+04  0.26083210876E+04  0.00000000000E+00 0.  1.
         23    2    1    2    0    0 -0.14324414794E+04 -0.35872575652E+03 -0.83747928826E+01  0.14795267092E+04  0.91413269915E+02 0.  0.
         13    1    3    3    0    0 -0.90495492937E+03 -0.26012588095E+03 -0.34935836291E+02  0.94224700094E+03  0.00000000000E+00 0. -1.
        -13    1    3    3    0    0 -0.52748655003E+03 -0.98599875575E+02  0.26561043409E+02  0.53727970830E+03  0.00000000000E+00 0.  1.
         22    1    1    2    0    0  0.14324414794E+04  0.35872575652E+03 -0.15719696372E+04  0.21567710358E+04  0.00000000000E+00 0.  1.
<mgrwt>
<rscale>  0 0.32749310E+04</rscale>
<asrwt>0</asrwt>
<pdfrwt beam="1">  1        2 0.15815026E+00 0.32749310E+04</pdfrwt>
<pdfrwt beam="2">  1       -2 0.40128016E+00 0.32749310E+04</pdfrwt>
<totfact> 0.14714679E-01</totfact>
</mgrwt>
</event>
<event>
 6    1  0.1817112E-005  0.2503729E+04  0.7818608E-02  0.8401658E-01
          2   -1    0    0  501    0  0.00000000000E+00  0.00000000000E+00  0.18619847359E+04  0.18619847359E+04  0.00000000000E+00 0. -1.
         -2   -1    0    0    0  501 -0.00000000000E+00 -0.00000000000E+00 -0.84166355055E+03  0.84166355055E+03  0.00000000000E+00 0.  1.
         23    2    1    2    0    0 -0.65816296793E+03  0.22241906863E+02 -0.63664458569E+03  0.92061470260E+03  0.92422439809E+02 0.  0.
         11    1    3    3    0    0 -0.35321801946E+03  0.57152400074E+02 -0.33023727297E+03  0.48691480011E+03  0.00000000000E+00 0. -1.
        -11    1    3    3    0    0 -0.30494494847E+03 -0.34910493211E+02 -0.30640731272E+03  0.43369990249E+03  0.00000000000E+00 0.  1.
         22    1    1    2    0    0  0.65816296793E+03 -0.22241906863E+02  0.16569657710E+04  0.17830335838E+04  0.00000000000E+00 0. -1.
<mgrwt>
<rscale>  0 0.25037290E+04</rscale>
<asrwt>0</asrwt>
<pdfrwt beam="1">  1        2 0.28645919E+00 0.25037290E+04</pdfrwt>
<pdfrwt beam="2">  1       -2 0.12948670E+00 0.25037290E+04</pdfrwt>
<totfact> 0.31181412E+00</totfact>
</mgrwt>
</event>
<event>
 6    1  0.1817112E-005  0.2498606E+04  0.7818608E-02  0.8403482E-01
         -2   -1    0    0    0  501 -0.00000000000E+00  0.00000000000E+00  0.91415215651E+03  0.91415215651E+03  0.00000000000E+00 0.  1.
          2   -1    0    0  501    0  0.00000000000E+00 -0.00000000000E+00 -0.17073285434E+04  0.17073285434E+04  0.00000000000E+00 0. -1.
         23    2    1    2    0    0  0.26472925986E+03  0.52881080575E+03 -0.15497220485E+04  0.16612287603E+04  0.91214675085E+02 0.  0.
         13    1    3    3    0    0  0.75230779985E+02  0.21805798079E+03 -0.69348834540E+03  0.73084542720E+03  0.00000000000E+00 0.  1.
        -13    1    3    3    0    0  0.18949847987E+03  0.31075282496E+03 -0.85623370313E+03  0.93038333308E+03  0.00000000000E+00 0. -1.
         22    1    1    2    0    0 -0.26472925986E+03 -0.52881080575E+03  0.75654566168E+03  0.96025193960E+03  0.00000000000E+00 0.  1.
<mgrwt>
<rscale>  0 0.24986061E+04</rscale>
<asrwt>0</asrwt>
<pdfrwt beam="1">  1        2 0.26266593E+00 0.24986061E+04</pdfrwt>
<pdfrwt beam="2">  1       -2 0.14063879E+00 0.24986061E+04</pdfrwt>
<totfact> 0.30762132E+00</totfact>
</mgrwt>
</event>
<event>
 6    1  0.1817112E-005  0.2049831E+04  0.7818608E-02  0.8583671E-01
          2   -1    0    0  501    0  0.00000000000E+00  0.00000000000E+00  0.22054073802E+04  0.22054073802E+04  0.00000000000E+00 0. -1.
         -2   -1    0    0    0  501 -0.00000000000E+00 -0.00000000000E+00 -0.47630759328E+03  0.47630759328E+03  0.00000000000E+00 0.  1.
         23    2    1    2    0    0  0.67565432960E+03 -0.61182757886E+03  0.25721935898E+03  0.95045134436E+03  0.79713236044E+02 0.  0.
         13    1    3    3    0    0  0.46178502630E+03 -0.45884982957E+03  0.20364832918E+03  0.68210059272E+03  0.00000000000E+00 0.  1.
        -13    1    3    3    0    0  0.21386930330E+03 -0.15297774929E+03  0.53571029804E+02  0.26835075164E+03  0.00000000000E+00 0. -1.
         22    1    1    2    0    0 -0.67565432960E+03  0.61182757886E+03  0.14718804279E+04  0.17312636291E+04  0.00000000000E+00 0. -1.
<mgrwt>
<rscale>  0 0.20498315E+04</rscale>
<asrwt>0</asrwt>
<pdfrwt beam="1">  1        2 0.33929344E+00 0.20498315E+04</pdfrwt>
<pdfrwt beam="2">  1       -2 0.73278093E-01 0.20498315E+04</pdfrwt>
<totfact> 0.79761887E+00</totfact>
</mgrwt>
</event>
<event>
 6    1  0.1817112E-005  0.1146997E+04  0.7818608E-02  0.9160559E-01
          2   -1    0    0  501    0  0.00000000000E+00  0.00000000000E+00  0.62101844385E+03  0.62101844385E+03  0.00000000000E+00 0. -1.
         -2   -1    0    0    0  501 -0.00000000000E+00 -0.00000000000E+00 -0.52961456902E+03  0.52961456902E+03  0.00000000000E+00 0.  1.
         23    2    1    2    0    0  0.35939634103E+03  0.43638921673E+03 -0.28545472072E+02  0.57271509115E+03  0.87100248154E+02 0.  0.
         11    1    3    3    0    0  0.27341760670E+03  0.36224757789E+03 -0.51893883261E+02  0.45680791418E+03  0.00000000000E+00 0.  1.
        -11    1    3    3    0    0  0.85978734329E+02  0.74141638842E+02  0.23348411189E+02  0.11590717696E+03  0.00000000000E+00 0. -1.
         22    1    1    2    0    0 -0.35939634103E+03 -0.43638921673E+03  0.11994934690E+03  0.57791792172E+03  0.00000000000E+00 0.  1.
<mgrwt>
<rscale>  0 0.11469968E+04</rscale>
<asrwt>0</asrwt>
<pdfrwt beam="1">  1        2 0.95541299E-01 0.11469968E+04</pdfrwt>
<pdfrwt beam="2">  1       -2 0.81479164E-01 0.11469968E+04</pdfrwt>
<totfact> 0.62488200E+01</totfact>
</mgrwt>
</event>
<event>
 6    1  0.1817112E-005  0.5440521E+03  0.7818608E-02  0.1002880E+00
         -2   -1    0    0    0  501 -0.00000000000E+00  0.00000000000E+00  0.35958117449E+03  0.35958117449E+03  0.00000000000E+00 0.  1.
          2   -1    0    0  501    0  0.00000000000E+00 -0.00000000000E+00 -0.20578990662E+03  0.20578990662E+03  0.00000000000E+00 0. -1.
         23    2    1    2    0    0  0.14747780767E+03  0.21943726380E+03  0.86938600336E+02  0.29265933648E+03  0.90491715082E+02 0.  0.
         13    1    3    3    0    0  0.27524094856E+02  0.74310255632E+02 -0.11699650790E+02  0.80102882085E+02  0.00000000000E+00 0. -1.
        -13    1    3    3    0    0  0.11995371281E+03  0.14512700817E+03  0.98638251126E+02  0.21255645439E+03  0.00000000000E+00 0.  1.
         22    1    1    2    0    0 -0.14747780767E+03 -0.21943726380E+03  0.66852667533E+02  0.27271174463E+03  0.00000000000E+00 0. -1.
<mgrwt>
<rscale>  0 0.54405212E+03</rscale>
<asrwt>0</asrwt>
<pdfrwt beam="1">  1        2 0.31659986E-01 0.54405212E+03</pdfrwt>
<pdfrwt beam="2">  1       -2 0.55320181E-01 0.54405212E+03</pdfrwt>
<totfact> 0.51856094E+02</totfact>
</mgrwt>
</event>
<event>
 6    1  0.3417891E-005  0.2882905E+04  0.7818608E-02  0.8277982E-01
         -2   -1    0    0    0  501 -0.00000000000E+00  0.00000000000E+00  0.89763498485E+03  0.89763498485E+03  0.00000000000E+00 0. -1.
          2   -1    0    0  501    0  0.00000000000E+00 -0.00000000000E+00 -0.23147329333E+04  0.23147329333E+04  0.00000000000E+00 0.  1.
         23    2    1    2    0    0 -0.48044066348E+03 -0.57872225723E+03 -0.20775049237E+04  0.22114283320E+04  0.92983210892E+02 0.  0.
         11    1    3    3    0    0 -0.20984779444E+03 -0.18332823663E+03 -0.78253331082E+03  0.83066462650E+03  0.00000000000E+00 0. -1.
        -11    1    3    3    0    0 -0.27059286904E+03 -0.39539402061E+03 -0.12949716128E+04  0.13807637055E+04  0.00000000000E+00 0.  1.
         22    1    1    2    0    0  0.48044066348E+03  0.57872225723E+03  0.66040697525E+03  0.10009395861E+04  0.00000000000E+00 0. -1.
<mgrwt>
<rscale>  0 0.28829050E+04</rscale>
<asrwt>0</asrwt>
<pdfrwt beam="1">  1        2 0.35611275E+00 0.28829050E+04</pdfrwt>
<pdfrwt beam="2">  1       -2 0.13809769E+00 0.28829050E+04</pdfrwt>
<totfact> 0.14301837E+00</totfact>
</mgrwt>
</event>
<event>
 6    1  0.1817112E-005  0.1518180E+04  0.7818608E-02  0.8872453E-01
          1   -1    0    0  501    0  0.00000000000E+00  0.00000000000E+00  0.91213344386E+03  0.91213344386E+03  0.00000000000E+00 0. -1.
         -1   -1    0    0    0  501 -0.00000000000E+00 -0.00000000000E+00 -0.63172480393E+03  0.63172480393E+03  0.00000000000E+00 0.  1.
         23    2    1    2    0    0  0.28213456382E+03 -0.45410673114E+03  0.68651869571E+03  0.87248784869E+03  0.64142740681E+02 0.  0.
         13    1    3    3    0    0  0.12526384518E+03 -0.16316082513E+03  0.22561767603E+03  0.30531266188E+03  0.00000000000E+00 0.  1.
        -13    1    3    3    0    0  0.15687071864E+03 -0.29094590601E+03  0.46090101968E+03  0.56717518681E+03  0.00000000000E+00 0. -1.
         22    1    1    2    0    0 -0.28213456382E+03  0.45410673114E+03 -0.40611005579E+03  0.67137039910E+03  0.00000000000E+00 0.  1.
<mgrwt>
<rscale>  0 0.15181796E+04</rscale>
<asrwt>0</asrwt>
<pdfrwt beam="1">  1        1 0.14032822E+00 0.15181796E+04</pdfrwt>
<pdfrwt beam="2">  1       -1 0.97188431E-01 0.15181796E+04</pdfrwt>
<totfact> 0.17478080E+01</totfact>
</mgrwt>
</event>
<event>
 6    1  0.1817112E-005  0.5914167E+04  0.7818608E-02  0.7701136E-01
         -2   -1    0    0    0  501 -0.00000000000E+00  0.00000000000E+00  0.20662972279E+04  0.20662972279E+04  0.00000000000E+00 0.  1.
          2   -1    0    0  501    0  0.00000000000E+00 -0.00000000000E+00 -0.42318899763E+04  0.42318899763E+04  0.00000000000E+00 0. -1.
         23    2    1    2    0    0  0.15951121128E+04 -0.78472465240E+03  0.14325415295E+04  0.22848661712E+04  0.90899690587E+02 0.  0.
         13    1    3    3    0    0  0.18307757935E+03 -0.12267858197E+03  0.16959389509E+03  0.27808186526E+03  0.00000000000E+00 0. -1.
        -13    1    3    3    0    0  0.14120345335E+04 -0.66204607044E+03  0.12629476344E+04  0.20067843059E+04  0.00000000000E+00 0.  1.
         22    1    1    2    0    0 -0.15951121128E+04  0.78472465240E+03 -0.35981342779E+04  0.40133210330E+04  0.00000000000E+00 0. -1.
<mgrwt>
<rscale>  0 0.59141669E+04</rscale>
<asrwt>0</asrwt>
<pdfrwt beam="1">  1        2 0.65105999E+00 0.59141669E+04</pdfrwt>
<pdfrwt beam="2">  1       -2 0.31789188E+00 0.59141669E+04</pdfrwt>
<totfact> 0.36173855E-03</totfact>
</mgrwt>
</event>
<event>
 6    1  0.1817112E-005  0.2922112E+04  0.7818608E-02  0.8266329E-01
          1   -1    0    0  501    0  0.00000000000E+00  0.00000000000E+00  0.46532816546E+03  0.46532816546E+03  0.00000000000E+00 0. -1.
         -1   -1    0    0    0  501 -0.00000000000E+00 -0.00000000000E+00 -0.45874828060E+04  0.45874828060E+04  0.00000000000E+00 0.  1.
         23    2    1    2    0    0  0.14535169178E+04 -0.46018029060E+02 -0.18460240314E+04  0.23517742003E+04  0.90598428115E+02 0.  0.
         11    1    3    3    0    0  0.90129568534E+03 -0.10525264944E+02 -0.10783225917E+04  0.14054267343E+04  0.00000000000E+00 0. -1.
        -11    1    3    3    0    0  0.55222123249E+03 -0.35492764116E+02 -0.76770143966E+03  0.94634746598E+03  0.00000000000E+00 0.  1.
         22    1    1    2    0    0 -0.14535169178E+04  0.46018029060E+02 -0.22761306092E+04  0.27010367712E+04  0.00000000000E+00 0.  1.
<mgrwt>
<rscale>  0 0.29221122E+04</rscale>
<asrwt>0</asrwt>
<pdfrwt beam="1">  1        1 0.71588950E-01 0.29221122E+04</pdfrwt>
<pdfrwt beam="2">  1       -1 0.70576657E+00 0.29221122E+04</pdfrwt>
<totfact> 0.79492360E-03</totfact>
</mgrwt>
</event>
<event>
 6    1  0.1817112E-005  0.2334307E+04  0.7818608E-02  0.8464516E-01
          2   -1    0    0  501    0  0.00000000000E+00  0.00000000000E+00  0.13102036198E+04  0.13102036198E+04  0.00000000000E+00 0. -1.
         -2   -1    0    0    0  501 -0.00000000000E+00 -0.00000000000E+00 -0.10397222010E+04  0.10397222010E+04  0.00000000000E+00 0.  1.
         23    2    1    2    0    0  0.10389451734E+04  0.21832143099E+02  0.66633677544E+03  0.12379073052E+04  0.92336785666E+02 0.  0.
         11    1    3    3    0    0  0.61958880265E+03 -0.22547973871E+02  0.42974318352E+03  0.75437252023E+03  0.00000000000E+00 0.  1.
        -11    1    3    3    0    0  0.41935637078E+03  0.44380116969E+02  0.23659359192E+03  0.48353478492E+03  0.00000000000E+00 0. -1.
         22    1    1    2    0    0 -0.10389451734E+04 -0.21832143099E+02 -0.39585535663E+03  0.11120185157E+04  0.00000000000E+00 0.  1.
<mgrwt>
<rscale>  0 0.23343074E+04</rscale>
<asrwt>0</asrwt>
<pdfrwt beam="1">  1        2 0.20156979E+00 0.23343074E+04</pdfrwt>
<pdfrwt beam="2">  1       -2 0.15995726E+00 0.23343074E+04</pdfrwt>
<totfact> 0.37165820E+00</totfact>
</mgrwt>
</event>
<event>
 6    1  0.1817112E-005  0.1581128E+04  0.7818608E-02  0.8832227E-01
         -2   -1    0    0    0  501 -0.00000000000E+00  0.00000000000E+00  0.67425026865E+03  0.67425026865E+03  0.00000000000E+00 0.  1.
          2   -1    0    0  501    0  0.00000000000E+00 -0.00000000000E+00 -0.92694249118E+03  0.92694249118E+03  0.00000000000E+00 0. -1.
         23    2    1    2    0    0  0.74828411331E+03 -0.45692143118E+02 -0.37165755978E+03  0.84213437100E+03  0.95100320205E+02 0.  0.
         13    1    3    3    0    0  0.56888917737E+03 -0.16594620131E+02 -0.32123205834E+03  0.65352912165E+03  0.00000000000E+00 0. -1.
        -13    1    3    3    0    0  0.17939493594E+03 -0.29097522987E+02 -0.50425501440E+02  0.18860524935E+03  0.00000000000E+00 0.  1.
         22    1    1    2    0    0 -0.74828411331E+03  0.45692143118E+02  0.11896533725E+03  0.75905838883E+03  0.00000000000E+00 0.  1.
<mgrwt>
<rscale>  0 0.15811277E+04</rscale>
<asrwt>0</asrwt>
<pdfrwt beam="1">  1        2 0.14260654E+00 0.15811277E+04</pdfrwt>
<pdfrwt beam="2">  1       -2 0.10373081E+00 0.15811277E+04</pdfrwt>
<totfact> 0.20443919E+01</totfact>
</mgrwt>
</event>
<event>
 6    1  0.1817112E-005  0.2174785E+04  0.7818608E-02  0.8528997E-01
          2   -1    0    0  501    0  0.00000000000E+00  0.00000000000E+00  0.91927262171E+03  0.91927262171E+03  0.00000000000E+00 0. -1.
         -2   -1    0    0    0  501 -0.00000000000E+00 -0.00000000000E+00 -0.12862587044E+04  0.12862587044E+04  0.00000000000E+00 0.  1.
         23    2    1    2    0    0 -0.14867019413E+03  0.99435107023E+03 -0.59851816163E+03  0.11738123813E+04  0.93673044125E+02 0.  0.
         11    1    3    3    0    0 -0.30065708932E+02  0.13965473208E+03 -0.12338221677E+03  0.18876059563E+03  0.00000000000E+00 0.  1.
        -11    1    3    3    0    0 -0.11860448520E+03  0.85469633815E+03 -0.47513594486E+03  0.98505178567E+03  0.00000000000E+00 0. -1.
         22    1    1    2    0    0  0.14867019413E+03 -0.99435107023E+03  0.23153207895E+03  0.10317189448E+04  0.00000000000E+00 0. -1.
<mgrwt>
<rscale>  0 0.21747850E+04</rscale>
<asrwt>0</asrwt>
<pdfrwt beam="1">  1        2 0.14142656E+00 0.21747850E+04</pdfrwt>
<pdfrwt beam="2">  1       -2 0.19788595E+00 0.21747850E+04</pdfrwt>
<totfact> 0.35784640E+00</totfact>
</mgrwt>
</event>
<event>
 6    1  0.1817112E-005  0.4884342E+04  0.7818608E-02  0.7846600E-01
         -2   -1    0    0    0  501 -0.00000000000E+00  0.00000000000E+00  0.26658711630E+04  0.26658711630E+04  0.00000000000E+00 0.  1.
          2   -1    0    0  501    0  0.00000000000E+00 -0.00000000000E+00 -0.22372424730E+04  0.22372424730E+04  0.00000000000E+00 0. -1.
         23    2    1    2    0    0 -0.14417245605E+04  0.36396146354E+03  0.21580305851E+04  0.26223531115E+04  0.92747936079E+02 0.  0.
         13    1    3    3    0    0 -0.28802175147E+03  0.83931466053E+02  0.37489434197E+03  0.48015287978E+03  0.00000000000E+00 0. -1.
        -13    1    3    3    0    0 -0.11537028090E+04  0.28002999749E+03  0.17831362432E+04  0.21422002317E+04  0.00000000000E+00 0.  1.
         22    1    1    2    0    0  0.14417245605E+04 -0.36396146354E+03 -0.17294018952E+04  0.22807605245E+04  0.00000000000E+00 0. -1.
<mgrwt>
<rscale>  0 0.48843424E+04</rscale>
<asrwt>0</asrwt>
<pdfrwt beam="1">  1        2 0.34419115E+00 0.48843424E+04</pdfrwt>
<pdfrwt beam="2">  1       -2 0.41013403E+00 0.48843424E+04</pdfrwt>
<totfact> 0.23042136E-02</totfact>
</mgrwt>
</event>
<event>
 6    1  0.1817112E-005  0.2042082E+04  0.7818608E-02  0.8587195E-01
          1   -1    0    0  501    0  0.00000000000E+00  0.00000000000E+00  0.11803466606E+04  0.11803466606E+04  0.00000000000E+00 0. -1.
         -1   -1    0    0    0  501 -0.00000000000E+00 -0.00000000000E+00 -0.88323625689E+03  0.88323625689E+03  0.00000000000E+00 0.  1.
         23    2    1    2    0    0  0.44170522351E+03  0.16809773146E+03 -0.76362117901E+03  0.90232849129E+03  0.87858120632E+02 0.  0.
         13    1    3    3    0    0  0.33089154191E+03  0.83618031078E+02 -0.54921200370E+03  0.64661813510E+03  0.00000000000E+00 0. -1.
        -13    1    3    3    0    0  0.11081368160E+03  0.84479700382E+02 -0.21440917531E+03  0.25571035619E+03  0.00000000000E+00 0.  1.
         22    1    1    2    0    0 -0.44170522351E+03 -0.16809773146E+03  0.10607315827E+04  0.11612544262E+04  0.00000000000E+00 0. -1.
<mgrwt>
<rscale>  0 0.20420822E+04</rscale>
<asrwt>0</asrwt>
<pdfrwt beam="1">  1        1 0.18159179E+00 0.20420822E+04</pdfrwt>
<pdfrwt beam="2">  1       -1 0.13588250E+00 0.20420822E+04</pdfrwt>
<totfact> 0.46256194E+00</totfact>
</mgrwt>
</event>
<event>
 6    1  0.1817112E-005  0.2046085E+04  0.7818608E-02  0.8585373E-01
         -2   -1    0    0    0  501 -0.00000000000E+00  0.00000000000E+00  0.28737023722E+03  0.28737023722E+03  0.00000000000E+00 0. -1.
          2   -1    0    0  501    0  0.00000000000E+00 -0.00000000000E+00 -0.36420467503E+04  0.36420467503E+04  0.00000000000E+00 0.  1.
         23    2    1    2    0    0  0.44326637109E+03 -0.67218631469E+03 -0.28865214345E+04  0.29980262559E+04  0.88520740683E+02 0.  0.
         11    1    3    3    0    0  0.32703367133E+03 -0.41971041310E+03 -0.18892814061E+04  0.19627766262E+04  0.00000000000E+00 0.  1.
        -11    1    3    3    0    0  0.11623269976E+03 -0.25247590159E+03 -0.99724002845E+03  0.10352496297E+04  0.00000000000E+00 0. -1.
         22    1    1    2    0    0 -0.44326637109E+03  0.67218631469E+03 -0.46815507852E+03  0.93139073161E+03  0.00000000000E+00 0. -1.
<mgrwt>
<rscale>  0 0.20460849E+04</rscale>
<asrwt>0</asrwt>
<pdfrwt beam="1">  1        2 0.56031488E+00 0.20460849E+04</pdfrwt>
<pdfrwt beam="2">  1       -2 0.44210806E-01 0.20460849E+04</pdfrwt>
<totfact> 0.29089401E+00</totfact>
</mgrwt>
</event>
<event>
 6    1  0.1817112E-005  0.7317989E+03  0.7818608E-02  0.9664346E-01
         -2   -1    0    0    0  501 -0.00000000000E+00  0.00000000000E+00  0.36904347415E+03  0.36904347415E+03  0.00000000000E+00 0.  1.
          2   -1    0    0  501    0  0.00000000000E+00 -0.00000000000E+00 -0.36278223791E+03  0.36278223791E+03  0.00000000000E+00 0. -1.
         23    2    1    2    0    0  0.25194473658E+03  0.23866806590E+03  0.98821863203E+02  0.37265156817E+03  0.93085093563E+02 0.  0.
         11    1    3    3    0    0  0.17654872623E+03  0.10522830315E+03  0.66436087869E+02  0.21600046826E+03  0.00000000000E+00 0.  1.
        -11    1    3    3    0    0  0.75396010348E+02  0.13343976275E+03  0.32385775334E+02  0.15665109991E+03  0.00000000000E+00 0. -1.
         22    1    1    2    0    0 -0.25194473658E+03 -0.23866806590E+03 -0.92560626968E+02  0.35917414388E+03  0.00000000000E+00 0.  1.
<mgrwt>
<rscale>  0 0.73179893E+03</rscale>
<asrwt>0</asrwt>
<pdfrwt beam="1">  1        2 0.55812652E-01 0.73179893E+03</pdfrwt>
<pdfrwt beam="2">  1       -2 0.56775919E-01 0.73179893E+03</pdfrwt>
<totfact> 0.26061245E+02</totfact>
</mgrwt>
</event>
<event>
 6    1  0.1817112E-005  0.1982769E+04  0.7818608E-02  0.8614719E-01
         -2   -1    0    0    0  501 -0.00000000000E+00  0.00000000000E+00  0.47877946190E+03  0.47877946190E+03  0.00000000000E+00 0.  1.
          2   -1    0    0  501    0  0.00000000000E+00 -0.00000000000E+00 -0.20528105207E+04  0.20528105207E+04  0.00000000000E+00 0. -1.
         23    2    1    2    0    0  0.78633514052E+03  0.56141001997E+03 -0.51709241165E+03  0.10995901685E+04  0.90608016722E+02 0.  0.
         11    1    3    3    0    0  0.13801476274E+03  0.14311752367E+03 -0.11033913844E+03  0.22738827099E+03  0.00000000000E+00 0. -1.
        -11    1    3    3    0    0  0.64832037779E+03  0.41829249630E+03 -0.40675327322E+03  0.87220189749E+03  0.00000000000E+00 0.  1.
         22    1    1    2    0    0 -0.78633514052E+03 -0.56141001997E+03 -0.10569386471E+04  0.14319998141E+04  0.00000000000E+00 0. -1.
<mgrwt>
<rscale>  0 0.19827693E+04</rscale>
<asrwt>0</asrwt>
<pdfrwt beam="1">  1        2 0.31581700E+00 0.19827693E+04</pdfrwt>
<pdfrwt beam="2">  1       -2 0.73658379E-01 0.19827693E+04</pdfrwt>
<totfact> 0.96531025E+00</totfact>
</mgrwt>
</event>
<event>
 6    1  0.1817112E-005  0.8290444E+03  0.7818608E-02  0.9518903E-01
          1   -1    0    0  501    0  0.00000000000E+00  0.00000000000E+00  0.26425941114E+04  0.26425941114E+04  0.00000000000E+00 0. -1.
         -1   -1    0    0    0  501 -0.00000000000E+00 -0.00000000000E+00 -0.65022716771E+02  0.65022716771E+02  0.00000000000E+00 0.  1.
         23    2    1    2    0    0 -0.94382252318E+02 -0.34356269852E+02  0.26009830344E+04  0.26044835760E+04  0.90186415612E+02 0.  0.
         11    1    3    3    0    0 -0.68720677550E+02 -0.19263407857E+02  0.78028125270E+03  0.78353841241E+03  0.00000000000E+00 0. -1.
        -11    1    3    3    0    0 -0.25661574769E+02 -0.15092861994E+02  0.18207017817E+04  0.18209451636E+04  0.00000000000E+00 0.  1.
         22    1    1    2    0    0  0.94382252318E+02  0.34356269852E+02 -0.23411639759E+02  0.10313325219E+03  0.00000000000E+00 0.  1.
<mgrwt>
<rscale>  0 0.82904439E+03</rscale>
<asrwt>0</asrwt>
<pdfrwt beam="1">  1        1 0.40655286E+00 0.82904439E+03</pdfrwt>
<pdfrwt beam="2">  1       -1 0.10003497E-01 0.82904439E+03</pdfrwt>
<totfact> 0.70480919E+01</totfact>
</mgrwt>
</event>
<event>
 6    1  0.1817112E-005  0.9049847E+03  0.7818608E-02  0.9419372E-01
          2   -1    0    0  501    0  0.00000000000E+00  0.00000000000E+00  0.73858766023E+03  0.73858766023E+03  0.00000000000E+00 0.  1.
         -2   -1    0    0    0  501 -0.00000000000E+00 -0.00000000000E+00 -0.27721739797E+03  0.27721739797E+03  0.00000000000E+00 0. -1.
         23    2    1    2    0    0 -0.64118646591E+02 -0.43917447899E+03  0.16527140047E+03  0.48226971748E+03  0.91016596012E+02 0.  0.
         11    1    3    3    0    0 -0.62116437702E+02 -0.15939306764E+03  0.85991383534E+02  0.19146571465E+03  0.00000000000E+00 0.  1.
        -11    1    3    3    0    0 -0.20022088887E+01 -0.27978141135E+03  0.79280016937E+02  0.29080400283E+03  0.00000000000E+00 0. -1.
         22    1    1    2    0    0  0.64118646591E+02  0.43917447899E+03  0.29609886178E+03  0.53353534071E+03  0.00000000000E+00 0.  1.
<mgrwt>
<rscale>  0 0.90498475E+03</rscale>
<asrwt>0</asrwt>
<pdfrwt beam="1">  1        2 0.11362887E+00 0.90498475E+03</pdfrwt>
<pdfrwt beam="2">  1       -2 0.42648831E-01 0.90498475E+03</pdfrwt>
<totfact> 0.19983937E+02</totfact>
</mgrwt>
</event>
<event>
 6    1  0.1817112E-005  0.1895706E+04  0.7818608E-02  0.8656997E-01
          2   -1    0    0  501    0  0.00000000000E+00  0.00000000000E+00  0.19654813570E+04  0.19654813570E+04  0.00000000000E+00 0. -1.
         -2   -1    0    0    0  501 -0.00000000000E+00 -0.00000000000E+00 -0.45710176096E+03  0.45710176096E+03  0.00000000000E+00 0.  1.
         23    2    1    2    0    0  0.88442648957E+03 -0.31244758700E+03  0.60256206673E+03  0.11186126020E+04  0.91539057589E+02 0.  0.
         11    1    3    3    0    0  0.78847668518E+03 -0.27383566186E+03  0.56782263893E+03  0.10095068113E+04  0.00000000000E+00 0.  1.
        -11    1    3    3    0    0  0.95949804388E+02 -0.38611925140E+02  0.34739427805E+02  0.10910579072E+03  0.00000000000E+00 0. -1.
         22    1    1    2    0    0 -0.88442648957E+03  0.31244758700E+03  0.90581752935E+03  0.13039705160E+04  0.00000000000E+00 0. -1.
<mgrwt>
<rscale>  0 0.18957057E+04</rscale>
<asrwt>0</asrwt>
<pdfrwt beam="1">  1        2 0.30238174E+00 0.18957057E+04</pdfrwt>
<pdfrwt beam="2">  1       -2 0.70323349E-01 0.18957057E+04</pdfrwt>
<totfact> 0.12039086E+01</totfact>
</mgrwt>
</event>
<event>
 6    1  0.1817112E-005  0.2455724E+04  0.7818608E-02  0.8418931E-01
          2   -1    0    0  501    0  0.00000000000E+00  0.00000000000E+00  0.20974241679E+04  0.20974241679E+04  0.00000000000E+00 0.  1.
         -2   -1    0    0    0  501 -0.00000000000E+00 -0.00000000000E+00 -0.71880818183E+03  0.71880818183E+03  0.00000000000E+00 0. -1.
         23    2    1    2    0    0  0.57404950693E+03  0.96724332892E+03  0.13053542775E+03  0.11361140284E+04  0.92860614913E+02 0.  0.
         11    1    3    3    0    0  0.21622096612E+03  0.40001826495E+03  0.94864577598E+02  0.46450555063E+03  0.00000000000E+00 0.  1.
        -11    1    3    3    0    0  0.35782854081E+03  0.56722506397E+03  0.35670850153E+02  0.67160847773E+03  0.00000000000E+00 0. -1.
         22    1    1    2    0    0 -0.57404950693E+03 -0.96724332892E+03  0.12480805583E+04  0.16801183214E+04  0.00000000000E+00 0.  1.
<mgrwt>
<rscale>  0 0.24557245E+04</rscale>
<asrwt>0</asrwt>
<pdfrwt beam="1">  1        2 0.32268064E+00 0.24557245E+04</pdfrwt>
<pdfrwt beam="2">  1       -2 0.11058587E+00 0.24557245E+04</pdfrwt>
<totfact> 0.34225466E+00</totfact>
</mgrwt>
</event>
<event>
 6    1  0.1817112E-005  0.1685837E+04  0.7818608E-02  0.8769484E-01
          2   -1    0    0  501    0  0.00000000000E+00  0.00000000000E+00  0.12113894671E+04  0.12113894671E+04  0.00000000000E+00 0. -1.
         -2   -1    0    0    0  501 -0.00000000000E+00 -0.00000000000E+00 -0.58652593999E+03  0.58652593999E+03  0.00000000000E+00 0.  1.
         23    2    1    2    0    0  0.56330665311E+03 -0.14911116274E+02 -0.35175483407E+03  0.67038707031E+03  0.90280861307E+02 0.  0.
         11    1    3    3    0    0  0.29368890459E+03  0.23237033278E+02 -0.14421761539E+03  0.32801197079E+03  0.00000000000E+00 0.  1.
        -11    1    3    3    0    0  0.26961774853E+03 -0.38148149552E+02 -0.20753721868E+03  0.34237509952E+03  0.00000000000E+00 0. -1.
         22    1    1    2    0    0 -0.56330665311E+03  0.14911116274E+02  0.97661836117E+03  0.11275283368E+04  0.00000000000E+00 0. -1.
<mgrwt>
<rscale>  0 0.16858367E+04</rscale>
<asrwt>0</asrwt>
<pdfrwt beam="1">  1        2 0.18636761E+00 0.16858367E+04</pdfrwt>
<pdfrwt beam="2">  1       -2 0.90234760E-01 0.16858367E+04</pdfrwt>
<totfact> 0.18661863E+01</totfact>
</mgrwt>
</event>
<event>
 6    1  0.1817112E-005  0.1400006E+04  0.7818608E-02  0.8953814E-01
         -2   -1    0    0    0  501 -0.00000000000E+00  0.00000000000E+00  0.78852364191E+03  0.78852364191E+03  0.00000000000E+00 0.  1.
          2   -1    0    0  501    0  0.00000000000E+00 -0.00000000000E+00 -0.62142000559E+03  0.62142000559E+03  0.00000000000E+00 0. -1.
         23    2    1    2    0    0  0.54212933710E+03  0.42498284131E+03 -0.21891024654E+02  0.69563725985E+03  0.94431704323E+02 0.  0.
         11    1    3    3    0    0  0.37732336144E+03  0.34832684651E+03 -0.14544626429E+02  0.51372760997E+03  0.00000000000E+00 0. -1.
        -11    1    3    3    0    0  0.16480597567E+03  0.76655994792E+02 -0.73463982251E+01  0.18190964988E+03  0.00000000000E+00 0.  1.
         22    1    1    2    0    0 -0.54212933710E+03 -0.42498284131E+03  0.18899466097E+03  0.71430638764E+03  0.00000000000E+00 0. -1.
<mgrwt>
<rscale>  0 0.14000062E+04</rscale>
<asrwt>0</asrwt>
<pdfrwt beam="1">  1        2 0.95603078E-01 0.14000062E+04</pdfrwt>
<pdfrwt beam="2">  1       -2 0.12131133E+00 0.14000062E+04</pdfrwt>
<totfact> 0.23899502E+01</totfact>
</mgrwt>
</event>
<event>
 6    1  0.1817112E-005  0.1968207E+04  0.7818608E-02  0.8621631E-01
         -2   -1    0    0    0  501 -0.00000000000E+00  0.00000000000E+00  0.10211200494E+04  0.10211200494E+04  0.00000000000E+00 0.  1.
          2   -1    0    0  501    0  0.00000000000E+00 -0.00000000000E+00 -0.94842920432E+03  0.94842920432E+03  0.00000000000E+00 0. -1.
         23    2    1    2    0    0 -0.58379125850E+03  0.14393557488E+03 -0.74001184281E+03  0.95860150920E+03  0.98841503093E+02 0.  0.
         13    1    3    3    0    0 -0.74238341736E+02  0.53868787927E+02 -0.11962624923E+03  0.15074354779E+03  0.00000000000E+00 0. -1.
        -13    1    3    3    0    0 -0.50955291676E+03  0.90066786957E+02 -0.62038559357E+03  0.80785796141E+03  0.00000000000E+00 0.  1.
         22    1    1    2    0    0  0.58379125850E+03 -0.14393557488E+03  0.81270268786E+03  0.10109477445E+04  0.00000000000E+00 0.  1.
<mgrwt>
<rscale>  0 0.19682074E+04</rscale>
<asrwt>0</asrwt>
<pdfrwt beam="1">  1        2 0.14591219E+00 0.19682074E+04</pdfrwt>
<pdfrwt beam="2">  1       -2 0.15709539E+00 0.19682074E+04</pdfrwt>
<totfact> 0.67097119E+00</totfact>
</mgrwt>
</event>
<event>
 6    1  0.1817112E-005  0.1516149E+04  0.7818608E-02  0.8873784E-01
         -2   -1    0    0    0  501 -0.00000000000E+00  0.00000000000E+00  0.55292483608E+03  0.55292483608E+03  0.00000000000E+00 0.  1.
          2   -1    0    0  501    0  0.00000000000E+00 -0.00000000000E+00 -0.10393402408E+04  0.10393402408E+04  0.00000000000E+00 0. -1.
         23    2    1    2    0    0 -0.26477314051E+03  0.81192492181E+02  0.49390654969E+03  0.57357563893E+03  0.91369015671E+02 0.  0.
         11    1    3    3    0    0 -0.95448459522E+02 -0.85129185876E+01  0.21268908003E+03  0.23327992407E+03  0.00000000000E+00 0. -1.
        -11    1    3    3    0    0 -0.16932468099E+03  0.89705410768E+02  0.28121746966E+03  0.34029571486E+03  0.00000000000E+00 0.  1.
         22    1    1    2    0    0  0.26477314051E+03 -0.81192492181E+02 -0.98032195444E+03  0.10186894380E+04  0.00000000000E+00 0. -1.
<mgrwt>
<rscale>  0 0.15161491E+04</rscale>
<asrwt>0</asrwt>
<pdfrwt beam="1">  1        2 0.15989850E+00 0.15161491E+04</pdfrwt>
<pdfrwt beam="2">  1       -2 0.85065360E-01 0.15161491E+04</pdfrwt>
<totfact> 0.27601395E+01</totfact>
</mgrwt>
</event>
<event>
 6    1  0.1817112E-005  0.2063843E+04  0.7818608E-02  0.8577340E-01
          2   -1    0    0  501    0  0.00000000000E+00  0.00000000000E+00  0.11697353800E+04  0.11697353800E+04  0.00000000000E+00 0. -1.
         -2   -1    0    0    0  501 -0.00000000000E+00 -0.00000000000E+00 -0.91034437641E+03  0.91034437641E+03  0.00000000000E+00 0.  1.
         23    2    1    2    0    0 -0.14412557120E+03  0.96378307816E+03  0.46639138236E+03  0.10838372364E+04  0.86788428593E+02 0.  0.
         11    1    3    3    0    0 -0.58698611288E+02  0.47106853432E+03  0.18087318048E+03  0.50800216379E+03  0.00000000000E+00 0. -1.
        -11    1    3    3    0    0 -0.85426959911E+02  0.49271454384E+03  0.28551820188E+03  0.57583507257E+03  0.00000000000E+00 0.  1.
         22    1    1    2    0    0  0.14412557120E+03 -0.96378307816E+03 -0.20700037874E+03  0.99624252009E+03  0.00000000000E+00 0. -1.
<mgrwt>
<rscale>  0 0.20638430E+04</rscale>
<asrwt>0</asrwt>
<pdfrwt beam="1">  1        2 0.17995929E+00 0.20638430E+04</pdfrwt>
<pdfrwt beam="2">  1       -2 0.14005298E+00 0.20638430E+04</pdfrwt>
<totfact> 0.65507542E+00</totfact>
</mgrwt>
</event>
<event>
 6    1  0.1817112E-005  0.1920676E+04  0.7818608E-02  0.8644633E-01
          2   -1    0    0  501    0  0.00000000000E+00  0.00000000000E+00  0.63595083926E+03  0.63595083926E+03  0.00000000000E+00 0.  1.
         -2   -1    0    0    0  501 -0.00000000000E+00 -0.00000000000E+00 -0.14501889059E+04  0.14501889059E+04  0.00000000000E+00 0. -1.
         23    2    1    2    0    0 -0.79990557431E+03  0.37848162101E+03 -0.80768580501E+03  0.12011876576E+04  0.86012579617E+02 0.  0.
         13    1    3    3    0    0 -0.34396238313E+03  0.19980198025E+03 -0.32622170058E+03  0.51444295141E+03  0.00000000000E+00 0. -1.
        -13    1    3    3    0    0 -0.45594319118E+03  0.17867964077E+03 -0.48146410443E+03  0.68674470617E+03  0.00000000000E+00 0.  1.
         22    1    1    2    0    0  0.79990557431E+03 -0.37848162101E+03 -0.65522616815E+01  0.88495208762E+03  0.00000000000E+00 0.  1.
<mgrwt>
<rscale>  0 0.19206758E+04</rscale>
<asrwt>0</asrwt>
<pdfrwt beam="1">  1        2 0.97838591E-01 0.19206758E+04</pdfrwt>
<pdfrwt beam="2">  1       -2 0.22310599E+00 0.19206758E+04</pdfrwt>
<totfact> 0.40776569E+00</totfact>
</mgrwt>
</event>
<event>
 6    1  0.1817112E-005  0.2027212E+04  0.7818608E-02  0.8594003E-01
         -2   -1    0    0    0  501 -0.00000000000E+00  0.00000000000E+00  0.57061129104E+03  0.57061129104E+03  0.00000000000E+00 0.  1.
          2   -1    0    0  501    0  0.00000000000E+00 -0.00000000000E+00 -0.18005205887E+04  0.18005205887E+04  0.00000000000E+00 0. -1.
         23    2    1    2    0    0 -0.47011662186E+03 -0.89527418631E+03 -0.64700162929E+03  0.12039528632E+04  0.91465193797E+02 0.  0.
         11    1    3    3    0    0 -0.37853168615E+03 -0.74958305886E+03 -0.57313410134E+03  0.10166826927E+04  0.00000000000E+00 0. -1.
        -11    1    3    3    0    0 -0.91584935712E+02 -0.14569112745E+03 -0.73867527948E+02  0.18727017048E+03  0.00000000000E+00 0.  1.
         22    1    1    2    0    0  0.47011662186E+03  0.89527418631E+03 -0.58290766836E+03  0.11671790165E+04  0.00000000000E+00 0. -1.
<mgrwt>
<rscale>  0 0.20272123E+04</rscale>
<asrwt>0</asrwt>
<pdfrwt beam="1">  1        2 0.27700317E+00 0.20272123E+04</pdfrwt>
<pdfrwt beam="2">  1       -2 0.87786352E-01 0.20272123E+04</pdfrwt>
<totfact> 0.89461083E+00</totfact>
</mgrwt>
</event>
<event>
 6    1  0.1817112E-005  0.2589275E+04  0.7818608E-02  0.8371853E-01
         -4   -1    0    0    0  501 -0.00000000000E+00  0.00000000000E+00  0.13898652175E+04  0.13898652175E+04  0.00000000000E+00 0.  1.
          4   -1    0    0  501    0  0.00000000000E+00 -0.00000000000E+00 -0.12059341004E+04  0.12059341004E+04  0.00000000000E+00 0. -1.
         23    2    1    2    0    0  0.11220544503E+04 -0.57794941858E+03  0.37362078363E+03  0.13194710336E+04  0.91540147733E+02 0.  0.
         11    1    3    3    0    0  0.48823404096E+03 -0.20193319298E+03  0.16631383900E+03  0.55390413089E+03  0.00000000000E+00 0.  1.
        -11    1    3    3    0    0  0.63382040934E+03 -0.37601622560E+03  0.20730694463E+03  0.76556690270E+03  0.00000000000E+00 0. -1.
         22    1    1    2    0    0 -0.11220544503E+04  0.57794941858E+03 -0.18968966650E+03  0.12763282844E+04  0.00000000000E+00 0.  1.
<mgrwt>
<rscale>  0 0.25892747E+04</rscale>
<asrwt>0</asrwt>
<pdfrwt beam="1">  1        4 0.18552832E+00 0.25892747E+04</pdfrwt>
<pdfrwt beam="2">  1       -4 0.21382542E+00 0.25892747E+04</pdfrwt>
<totfact> 0.31050009E-02</totfact>
</mgrwt>
</event>
<event>
 6    1  0.1817112E-005  0.1870612E+04  0.7818608E-02  0.8669625E-01
          2   -1    0    0  501    0  0.00000000000E+00  0.00000000000E+00  0.46942632389E+04  0.46942632389E+04  0.00000000000E+00 0. -1.
         -2   -1    0    0    0  501 -0.00000000000E+00 -0.00000000000E+00 -0.18635451587E+03  0.18635451587E+03  0.00000000000E+00 0.  1.
         23    2    1    2    0    0 -0.84418593447E+03 -0.23427064800E+03  0.14238515089E+04  0.16745389147E+04  0.95889671513E+02 0.  0.
         13    1    3    3    0    0 -0.36534028919E+03 -0.53295305324E+02  0.61475171792E+03  0.71710082357E+03  0.00000000000E+00 0.  1.
        -13    1    3    3    0    0 -0.47884564528E+03 -0.18097534268E+03  0.80909979098E+03  0.95743809117E+03  0.00000000000E+00 0. -1.
         22    1    1    2    0    0  0.84418593447E+03  0.23427064800E+03  0.30840572142E+04  0.32060788401E+04  0.00000000000E+00 0. -1.
<mgrwt>
<rscale>  0 0.18706118E+04</rscale>
<asrwt>0</asrwt>
<pdfrwt beam="1">  1        2 0.72219425E+00 0.18706118E+04</pdfrwt>
<pdfrwt beam="2">  1       -2 0.28669929E-01 0.18706118E+04</pdfrwt>
<totfact> 0.83496008E-01</totfact>
</mgrwt>
</event>
<event>
 6    1  0.1817112E-005  0.1526052E+04  0.7818608E-02  0.8867311E-01
         -2   -1    0    0    0  501 -0.00000000000E+00  0.00000000000E+00  0.67379804624E+03  0.67379804624E+03  0.00000000000E+00 0.  1.
          2   -1    0    0  501    0  0.00000000000E+00 -0.00000000000E+00 -0.86407009974E+03  0.86407009974E+03  0.00000000000E+00 0. -1.
         23    2    1    2    0    0  0.56647844548E+03 -0.45899214123E+03 -0.31284839114E+03  0.79854644776E+03  0.90723197082E+02 0.  0.
         13    1    3    3    0    0  0.35334087018E+03 -0.22858387810E+03 -0.17740838886E+03  0.45669913105E+03  0.00000000000E+00 0. -1.
        -13    1    3    3    0    0  0.21313757531E+03 -0.23040826313E+03 -0.13544000228E+03  0.34184731671E+03  0.00000000000E+00 0.  1.
         22    1    1    2    0    0 -0.56647844548E+03  0.45899214123E+03  0.12257633764E+03  0.73932169822E+03  0.00000000000E+00 0. -1.
<mgrwt>
<rscale>  0 0.15260521E+04</rscale>
<asrwt>0</asrwt>
<pdfrwt beam="1">  1        2 0.13293386E+00 0.15260521E+04</pdfrwt>
<pdfrwt beam="2">  1       -2 0.10366124E+00 0.15260521E+04</pdfrwt>
<totfact> 0.22688294E+01</totfact>
</mgrwt>
</event>
<event>
 6    1  0.1817112E-005  0.4054254E+04  0.7818608E-02  0.7993690E-01
         -2   -1    0    0    0  501 -0.00000000000E+00  0.00000000000E+00  0.22860788046E+04  0.22860788046E+04  0.00000000000E+00 0. -1.
          2   -1    0    0  501    0  0.00000000000E+00 -0.00000000000E+00 -0.17975071850E+04  0.17975071850E+04  0.00000000000E+00 0.  1.
         23    2    1    2    0    0  0.25082161766E+03  0.18434436323E+04 -0.56365011493E+03  0.19462122534E+04  0.94046656122E+02 0.  0.
         11    1    3    3    0    0  0.94754615024E+02  0.84624269887E+03 -0.30214384984E+03  0.90354637316E+03  0.00000000000E+00 0. -1.
        -11    1    3    3    0    0  0.15606700263E+03  0.99720093347E+03 -0.26150626509E+03  0.10426658802E+04  0.00000000000E+00 0.  1.
         22    1    1    2    0    0 -0.25082161766E+03 -0.18434436323E+04  0.10522217345E+04  0.21373737362E+04  0.00000000000E+00 0. -1.
<mgrwt>
<rscale>  0 0.40542536E+04</rscale>
<asrwt>0</asrwt>
<pdfrwt beam="1">  1        2 0.27653957E+00 0.40542536E+04</pdfrwt>
<pdfrwt beam="2">  1       -2 0.35170443E+00 0.40542536E+04</pdfrwt>
<totfact> 0.10316821E-01</totfact>
</mgrwt>
</event>
<event>
 6    1  0.1817112E-005  0.1973572E+04  0.7818608E-02  0.8619077E-01
          2   -1    0    0  501    0  0.00000000000E+00  0.00000000000E+00  0.46502095611E+03  0.46502095611E+03  0.00000000000E+00 0. -1.
         -2   -1    0    0    0  501 -0.00000000000E+00 -0.00000000000E+00 -0.20939841512E+04  0.20939841512E+04  0.00000000000E+00 0.  1.
         23    2    1    2    0    0 -0.38063609572E+03 -0.10815184246E+03 -0.19855051811E+04  0.20263674761E+04  0.85753516116E+02 0.  0.
         13    1    3    3    0    0 -0.33090144061E+03 -0.11667975171E+03 -0.16330141900E+04  0.16702829918E+04  0.00000000000E+00 0. -1.
        -13    1    3    3    0    0 -0.49734655115E+02  0.85279092567E+01 -0.35249099112E+03  0.35608448433E+03  0.00000000000E+00 0.  1.
         22    1    1    2    0    0  0.38063609572E+03  0.10815184246E+03  0.35654198602E+03  0.53263763122E+03  0.00000000000E+00 0. -1.
<mgrwt>
<rscale>  0 0.19735719E+04</rscale>
<asrwt>0</asrwt>
<pdfrwt beam="1">  1        2 0.71541685E-01 0.19735719E+04</pdfrwt>
<pdfrwt beam="2">  1       -2 0.32215141E+00 0.19735719E+04</pdfrwt>
<totfact> 0.14505840E+00</totfact>
</mgrwt>
</event>
<event>
 6    1  0.1817112E-005  0.3432134E+04  0.7818608E-02  0.8130064E-01
          2   -1    0    0  501    0  0.00000000000E+00  0.00000000000E+00  0.23110413325E+04  0.23110413325E+04  0.00000000000E+00 0. -1.
         -2   -1    0    0    0  501 -0.00000000000E+00 -0.00000000000E+00 -0.12742683023E+04  0.12742683023E+04  0.00000000000E+00 0.  1.
         23    2    1    2    0    0  0.96451334734E+03  0.13087528577E+04 -0.50240874710E+02  0.16296206848E+04  0.10009690845E+03 0.  0.
         13    1    3    3    0    0  0.47873072258E+03  0.72955176851E+03 -0.11366679239E+02  0.87267295653E+03  0.00000000000E+00 0. -1.
        -13    1    3    3    0    0  0.48578262476E+03  0.57920108922E+03 -0.38874195471E+02  0.75694772828E+03  0.00000000000E+00 0.  1.
         22    1    1    2    0    0 -0.96451334734E+03 -0.13087528577E+04  0.10870139049E+04  0.19556889500E+04  0.00000000000E+00 0. -1.
<mgrwt>
<rscale>  0 0.34321344E+04</rscale>
<asrwt>0</asrwt>
<pdfrwt beam="1">  1        2 0.35554482E+00 0.34321344E+04</pdfrwt>
<pdfrwt beam="2">  1       -2 0.19604128E+00 0.34321344E+04</pdfrwt>
<totfact> 0.52152628E-01</totfact>
</mgrwt>
</event>
<event>
 6    1  0.1817112E-005  0.2158127E+04  0.7818608E-02  0.8536061E-01
         -2   -1    0    0    0  501 -0.00000000000E+00  0.00000000000E+00  0.28304891329E+04  0.28304891329E+04  0.00000000000E+00 0.  1.
          2   -1    0    0  501    0  0.00000000000E+00 -0.00000000000E+00 -0.41136995506E+03  0.41136995506E+03  0.00000000000E+00 0. -1.
         23    2    1    2    0    0 -0.10397758686E+04 -0.27012296712E+03  0.10942307048E+04  0.15361540313E+04  0.91258415003E+02 0.  0.
         13    1    3    3    0    0 -0.81428560865E+03 -0.18042196332E+03  0.81351889894E+03  0.11650863214E+04  0.00000000000E+00 0.  1.
        -13    1    3    3    0    0 -0.22549025994E+03 -0.89701003803E+02  0.28071180590E+03  0.37106770997E+03  0.00000000000E+00 0. -1.
         22    1    1    2    0    0  0.10397758686E+04  0.27012296712E+03  0.13248884730E+04  0.17057050566E+04  0.00000000000E+00 0.  1.
<mgrwt>
<rscale>  0 0.21581271E+04</rscale>
<asrwt>0</asrwt>
<pdfrwt beam="1">  1        2 0.63287687E-01 0.21581271E+04</pdfrwt>
<pdfrwt beam="2">  1       -2 0.43545985E+00 0.21581271E+04</pdfrwt>
<totfact> 0.30644321E-01</totfact>
</mgrwt>
</event>
<event>
 6    1  0.1817112E-005  0.1418059E+04  0.7818608E-02  0.8940849E-01
         -2   -1    0    0    0  501 -0.00000000000E+00  0.00000000000E+00  0.19835499718E+03  0.19835499718E+03  0.00000000000E+00 0. -1.
          2   -1    0    0  501    0  0.00000000000E+00 -0.00000000000E+00 -0.25344619122E+04  0.25344619122E+04  0.00000000000E+00 0.  1.
         23    2    1    2    0    0  0.61101306816E+03 -0.31259502167E+03 -0.14924966237E+04  0.16452825694E+04  0.91410854750E+02 0.  0.
         13    1    3    3    0    0  0.56616579361E+03 -0.27994986789E+03 -0.13059309585E+04  0.14506451333E+04  0.00000000000E+00 0.  1.
        -13    1    3    3    0    0  0.44847274555E+02 -0.32645153783E+02 -0.18656566522E+03  0.19463743612E+03  0.00000000000E+00 0. -1.
         22    1    1    2    0    0 -0.61101306816E+03  0.31259502167E+03 -0.84361029140E+03  0.10875343401E+04  0.00000000000E+00 0. -1.
<mgrwt>
<rscale>  0 0.14180595E+04</rscale>
<asrwt>0</asrwt>
<pdfrwt beam="1">  1        2 0.38991721E+00 0.14180595E+04</pdfrwt>
<pdfrwt beam="2">  1       -2 0.30516154E-01 0.14180595E+04</pdfrwt>
<totfact> 0.32215744E+01</totfact>
</mgrwt>
</event>
<event>
 6    1  0.1817112E-005  0.1308012E+04  0.7818608E-02  0.9023235E-01
         -1   -1    0    0    0  501 -0.00000000000E+00  0.00000000000E+00  0.11200562954E+04  0.11200562954E+04  0.00000000000E+00 0.  1.
          1   -1    0    0  501    0  0.00000000000E+00 -0.00000000000E+00 -0.38187728401E+03  0.38187728401E+03  0.00000000000E+00 0. -1.
         23    2    1    2    0    0 -0.55375704722E+03  0.31995537183E+03  0.50921247490E+03  0.82263689745E+03  0.91737741099E+02 0.  0.
         11    1    3    3    0    0 -0.32824451264E+03  0.15515101020E+03  0.24376343222E+03  0.43730642223E+03  0.00000000000E+00 0.  1.
        -11    1    3    3    0    0 -0.22551253458E+03  0.16480436164E+03  0.26544904268E+03  0.38533047521E+03  0.00000000000E+00 0. -1.
         22    1    1    2    0    0  0.55375704722E+03 -0.31995537183E+03  0.22896653651E+03  0.67929668198E+03  0.00000000000E+00 0.  1.
<mgrwt>
<rscale>  0 0.13080123E+04</rscale>
<asrwt>0</asrwt>
<pdfrwt beam="1">  1        1 0.58750352E-01 0.13080123E+04</pdfrwt>
<pdfrwt beam="2">  1       -1 0.17231635E+00 0.13080123E+04</pdfrwt>
<totfact> 0.14826665E+01</totfact>
</mgrwt>
</event>
<event>
 6    1  0.1817112E-005  0.1707539E+04  0.7818608E-02  0.8757076E-01
         -2   -1    0    0    0  501 -0.00000000000E+00  0.00000000000E+00  0.56645569769E+03  0.56645569769E+03  0.00000000000E+00 0.  1.
          2   -1    0    0  501    0  0.00000000000E+00 -0.00000000000E+00 -0.12868132589E+04  0.12868132589E+04  0.00000000000E+00 0. -1.
         23    2    1    2    0    0  0.44715323367E+03 -0.78870877567E+02 -0.11428214824E+04  0.12330735081E+04  0.90899429082E+02 0.  0.
         13    1    3    3    0    0  0.29052079364E+03 -0.68226112690E+02 -0.63679939718E+03  0.70325714091E+03  0.00000000000E+00 0.  1.
        -13    1    3    3    0    0  0.15663244003E+03 -0.10644764877E+02 -0.50602208518E+03  0.52981636722E+03  0.00000000000E+00 0. -1.
         22    1    1    2    0    0 -0.44715323367E+03  0.78870877567E+02  0.42246392110E+03  0.62019544850E+03  0.00000000000E+00 0.  1.
<mgrwt>
<rscale>  0 0.17075394E+04</rscale>
<asrwt>0</asrwt>
<pdfrwt beam="1">  1        2 0.19797127E+00 0.17075394E+04</pdfrwt>
<pdfrwt beam="2">  1       -2 0.87147031E-01 0.17075394E+04</pdfrwt>
<totfact> 0.18215269E+01</totfact>
</mgrwt>
</event>
<event>
 6    1  0.1817112E-005  0.4413386E+04  0.7818608E-02  0.7925978E-01
         -2   -1    0    0    0  501 -0.00000000000E+00  0.00000000000E+00  0.18073949142E+04  0.18073949142E+04  0.00000000000E+00 0.  1.
          2   -1    0    0  501    0  0.00000000000E+00 -0.00000000000E+00 -0.26942062740E+04  0.26942062740E+04  0.00000000000E+00 0. -1.
         23    2    1    2    0    0  0.11969521550E+04  0.16720862369E+04 -0.12572544216E+04  0.24121527186E+04  0.96047969129E+02 0.  0.
         13    1    3    3    0    0  0.99557622056E+03  0.14050636684E+04 -0.10115074315E+04  0.19971287408E+04  0.00000000000E+00 0. -1.
        -13    1    3    3    0    0  0.20137593444E+03  0.26702256846E+03 -0.24574699010E+03  0.41502397784E+03  0.00000000000E+00 0.  1.
         22    1    1    2    0    0 -0.11969521550E+04 -0.16720862369E+04  0.37044306185E+03  0.20894484696E+04  0.00000000000E+00 0.  1.
<mgrwt>
<rscale>  0 0.44133863E+04</rscale>
<asrwt>0</asrwt>
<pdfrwt beam="1">  1        2 0.41449327E+00 0.44133863E+04</pdfrwt>
<pdfrwt beam="2">  1       -2 0.27806076E+00 0.44133863E+04</pdfrwt>
<totfact> 0.88375091E-02</totfact>
</mgrwt>
</event>
<event>
 6    1  0.1817112E-005  0.9014026E+03  0.7818608E-02  0.9423830E-01
          2   -1    0    0  501    0  0.00000000000E+00  0.00000000000E+00  0.38986181234E+03  0.38986181234E+03  0.00000000000E+00 0. -1.
         -2   -1    0    0    0  501 -0.00000000000E+00 -0.00000000000E+00 -0.52103501289E+03  0.52103501289E+03  0.00000000000E+00 0.  1.
         23    2    1    2    0    0  0.39653238164E+03 -0.11914403009E+03 -0.23396139836E+03  0.48428383527E+03  0.91431217785E+02 0.  0.
         11    1    3    3    0    0  0.11548064128E+03 -0.41116207823E+01 -0.33157551301E+02  0.12021691705E+03  0.00000000000E+00 0. -1.
        -11    1    3    3    0    0  0.28105174036E+03 -0.11503240930E+03 -0.20080384706E+03  0.36406691822E+03  0.00000000000E+00 0.  1.
         22    1    1    2    0    0 -0.39653238164E+03  0.11914403009E+03  0.10278819781E+03  0.42661298996E+03  0.00000000000E+00 0. -1.
<mgrwt>
<rscale>  0 0.90140258E+03</rscale>
<asrwt>0</asrwt>
<pdfrwt beam="1">  1        2 0.59978741E-01 0.90140258E+03</pdfrwt>
<pdfrwt beam="2">  1       -2 0.80159232E-01 0.90140258E+03</pdfrwt>
<totfact> 0.11308246E+02</totfact>
</mgrwt>
</event>
<event>
 6    1  0.1817112E-005  0.3682688E+04  0.7818608E-02  0.8071809E-01
          2   -1    0    0  501    0  0.00000000000E+00  0.00000000000E+00  0.21511831329E+04  0.21511831329E+04  0.00000000000E+00 0. -1.
         -2   -1    0    0    0  501 -0.00000000000E+00 -0.00000000000E+00 -0.15761317756E+04  0.15761317756E+04  0.00000000000E+00 0.  1.
         23    2    1    2    0    0  0.12032170132E+04  0.33148985413E+02 -0.11210351023E+04  0.16475218143E+04  0.93693072923E+02 0.  0.
         13    1    3    3    0    0  0.55928787770E+03 -0.18085424594E+02 -0.47599348459E+03  0.73464264108E+03  0.00000000000E+00 0. -1.
        -13    1    3    3    0    0  0.64392913555E+03  0.51234410007E+02 -0.64504161774E+03  0.91287917327E+03  0.00000000000E+00 0.  1.
         22    1    1    2    0    0 -0.12032170132E+04 -0.33148985413E+02  0.16960864595E+04  0.20797930941E+04  0.00000000000E+00 0. -1.
<mgrwt>
<rscale>  0 0.36826882E+04</rscale>
<asrwt>0</asrwt>
<pdfrwt beam="1">  1        2 0.33095125E+00 0.36826882E+04</pdfrwt>
<pdfrwt beam="2">  1       -2 0.24248181E+00 0.36826882E+04</pdfrwt>
<totfact> 0.31841108E-01</totfact>
</mgrwt>
</event>
<event>
 6    1  0.1817112E-005  0.3018372E+04  0.7818608E-02  0.8238504E-01
         -2   -1    0    0    0  501 -0.00000000000E+00  0.00000000000E+00  0.63706077746E+03  0.63706077746E+03  0.00000000000E+00 0.  1.
          2   -1    0    0  501    0  0.00000000000E+00 -0.00000000000E+00 -0.35752362830E+04  0.35752362830E+04  0.00000000000E+00 0. -1.
         23    2    1    2    0    0  0.12337625493E+04 -0.83388801553E+03 -0.11401699556E+04  0.18776957651E+04  0.90634475396E+02 0.  0.
         13    1    3    3    0    0  0.35471023929E+03 -0.27833142626E+03 -0.37873493742E+03  0.58883604638E+03  0.00000000000E+00 0. -1.
        -13    1    3    3    0    0  0.87905231006E+03 -0.55555658927E+03 -0.76143501820E+03  0.12888597188E+04  0.00000000000E+00 0.  1.
         22    1    1    2    0    0 -0.12337625493E+04  0.83388801553E+03 -0.17980055500E+04  0.23346012954E+04  0.00000000000E+00 0. -1.
<mgrwt>
<rscale>  0 0.30183723E+04</rscale>
<asrwt>0</asrwt>
<pdfrwt beam="1">  1        2 0.55003636E+00 0.30183723E+04</pdfrwt>
<pdfrwt beam="2">  1       -2 0.98009349E-01 0.30183723E+04</pdfrwt>
<totfact> 0.53202091E-01</totfact>
</mgrwt>
</event>
<event>
 6    1  0.1817112E-005  0.3591875E+04  0.7818608E-02  0.8092355E-01
         -2   -1    0    0    0  501 -0.00000000000E+00  0.00000000000E+00  0.11915751458E+04  0.11915751458E+04  0.00000000000E+00 0.  1.
          2   -1    0    0  501    0  0.00000000000E+00 -0.00000000000E+00 -0.27068304203E+04  0.27068304203E+04  0.00000000000E+00 0. -1.
         23    2    1    2    0    0 -0.97818760436E+03  0.13471971660E+04 -0.14858982988E+04  0.22332770349E+04  0.88551491583E+02 0.  0.
         11    1    3    3    0    0 -0.81460756394E+03  0.11631122565E+04 -0.12925182419E+04  0.19201611938E+04  0.00000000000E+00 0. -1.
        -11    1    3    3    0    0 -0.16358004042E+03  0.18408490948E+03 -0.19338005689E+03  0.31311584106E+03  0.00000000000E+00 0.  1.
         22    1    1    2    0    0  0.97818760436E+03 -0.13471971660E+04 -0.29356975682E+02  0.16651285312E+04  0.00000000000E+00 0.  1.
<mgrwt>
<rscale>  0 0.35918752E+04</rscale>
<asrwt>0</asrwt>
<pdfrwt beam="1">  1        2 0.41643544E+00 0.35918752E+04</pdfrwt>
<pdfrwt beam="2">  1       -2 0.18331926E+00 0.35918752E+04</pdfrwt>
<totfact> 0.36901149E-01</totfact>
</mgrwt>
</event>
<event>
 6    1  0.1817112E-005  0.2122926E+04  0.7818608E-02  0.8551211E-01
          1   -1    0    0  501    0  0.00000000000E+00  0.00000000000E+00  0.26178138239E+04  0.26178138239E+04  0.00000000000E+00 0. -1.
         -1   -1    0    0    0  501 -0.00000000000E+00 -0.00000000000E+00 -0.43039865707E+03  0.43039865707E+03  0.00000000000E+00 0.  1.
         23    2    1    2    0    0 -0.13263866254E+03  0.91933053671E+03  0.18283512956E+04  0.20523768951E+04  0.81368351588E+02 0.  0.
         11    1    3    3    0    0 -0.12572364135E+03  0.60139192702E+03  0.12051380909E+04  0.13527144939E+04  0.00000000000E+00 0.  1.
        -11    1    3    3    0    0 -0.69150211859E+01  0.31793860969E+03  0.62321320471E+03  0.69966240114E+03  0.00000000000E+00 0. -1.
         22    1    1    2    0    0  0.13263866254E+03 -0.91933053671E+03  0.35906387117E+03  0.99583558588E+03  0.00000000000E+00 0. -1.
<mgrwt>
<rscale>  0 0.21229259E+04</rscale>
<asrwt>0</asrwt>
<pdfrwt beam="1">  1        1 0.40274058E+00 0.21229259E+04</pdfrwt>
<pdfrwt beam="2">  1       -1 0.66215179E-01 0.21229259E+04</pdfrwt>
<totfact> 0.23794243E+00</totfact>
</mgrwt>
</event>
<event>
 6    1  0.1817112E-005  0.1455608E+04  0.7818608E-02  0.8914522E-01
         -2   -1    0    0    0  501 -0.00000000000E+00  0.00000000000E+00  0.32172891191E+03  0.32172891191E+03  0.00000000000E+00 0.  1.
          2   -1    0    0  501    0  0.00000000000E+00 -0.00000000000E+00 -0.16464123937E+04  0.16464123937E+04  0.00000000000E+00 0. -1.
         23    2    1    2    0    0 -0.52630268290E+03 -0.28614827076E+03 -0.11277910044E+03  0.61625833124E+03  0.90442569797E+02 0.  0.
         13    1    3    3    0    0 -0.18339733192E+03 -0.13798589752E+03 -0.14325744120E+02  0.22995633545E+03  0.00000000000E+00 0.  1.
        -13    1    3    3    0    0 -0.34290535098E+03 -0.14816237325E+03 -0.98453356324E+02  0.38630199579E+03  0.00000000000E+00 0. -1.
         22    1    1    2    0    0  0.52630268290E+03  0.28614827076E+03 -0.12119043814E+04  0.13518829744E+04  0.00000000000E+00 0. -1.
<mgrwt>
<rscale>  0 0.14556077E+04</rscale>
<asrwt>0</asrwt>
<pdfrwt beam="1">  1        2 0.25329422E+00 0.14556077E+04</pdfrwt>
<pdfrwt beam="2">  1       -2 0.49496755E-01 0.14556077E+04</pdfrwt>
<totfact> 0.39334516E+01</totfact>
</mgrwt>
</event>
<event>
 6    1  0.1817112E-005  0.1184207E+04  0.7818608E-02  0.9126793E-01
          2   -1    0    0  501    0  0.00000000000E+00  0.00000000000E+00  0.47709159918E+03  0.47709159918E+03  0.00000000000E+00 0. -1.
         -2   -1    0    0    0  501 -0.00000000000E+00 -0.00000000000E+00 -0.73484177882E+03  0.73484177882E+03  0.00000000000E+00 0.  1.
         23    2    1    2    0    0 -0.57251104440E+03  0.31386158905E+02 -0.26643341773E+03  0.63849690763E+03  0.89092917969E+02 0.  0.
         13    1    3    3    0    0 -0.17937802733E+03  0.46691598471E+02 -0.64401685261E+02  0.19622476684E+03  0.00000000000E+00 0. -1.
        -13    1    3    3    0    0 -0.39313301707E+03 -0.15305439566E+02 -0.20203173247E+03  0.44227214079E+03  0.00000000000E+00 0.  1.
         22    1    1    2    0    0  0.57251104440E+03 -0.31386158905E+02  0.86832380920E+01  0.57343647037E+03  0.00000000000E+00 0.  1.
<mgrwt>
<rscale>  0 0.11842075E+04</rscale>
<asrwt>0</asrwt>
<pdfrwt beam="1">  1        2 0.73398708E-01 0.11842075E+04</pdfrwt>
<pdfrwt beam="2">  1       -2 0.11305258E+00 0.11842075E+04</pdfrwt>
<totfact> 0.39477952E+01</totfact>
</mgrwt>
</event>
<event>
 6    1  0.1817112E-005  0.5655534E+04  0.7818608E-02  0.7734643E-01
          2   -1    0    0  501    0  0.00000000000E+00  0.00000000000E+00  0.25052642300E+04  0.25052642300E+04  0.00000000000E+00 0. -1.
         -2   -1    0    0    0  501 -0.00000000000E+00 -0.00000000000E+00 -0.31917857060E+04  0.31917857060E+04  0.00000000000E+00 0.  1.
         23    2    1    2    0    0 -0.16009549291E+04  0.20230782481E+04  0.82105920093E+03  0.27089566007E+04  0.91680803284E+02 0.  0.
         11    1    3    3    0    0 -0.71486325471E+03  0.97693865074E+03  0.38205902224E+03  0.12694123431E+04  0.00000000000E+00 0.  1.
        -11    1    3    3    0    0 -0.88609167443E+03  0.10461395974E+04  0.43900017870E+03  0.14395442576E+04  0.00000000000E+00 0. -1.
         22    1    1    2    0    0  0.16009549291E+04 -0.20230782481E+04 -0.15075806769E+04  0.29880933353E+04  0.00000000000E+00 0.  1.
<mgrwt>
<rscale>  0 0.56555341E+04</rscale>
<asrwt>0</asrwt>
<pdfrwt beam="1">  1        2 0.38542527E+00 0.56555341E+04</pdfrwt>
<pdfrwt beam="2">  1       -2 0.49104395E+00 0.56555341E+04</pdfrwt>
<totfact> 0.45254918E-03</totfact>
</mgrwt>
</event>
<event>
 6    1  0.1817112E-005  0.2361126E+04  0.7818608E-02  0.8454202E-01
          2   -1    0    0  501    0  0.00000000000E+00  0.00000000000E+00  0.24194491929E+04  0.24194491929E+04  0.00000000000E+00 0. -1.
         -2   -1    0    0    0  501 -0.00000000000E+00 -0.00000000000E+00 -0.57605221229E+03  0.57605221229E+03  0.00000000000E+00 0.  1.
         23    2    1    2    0    0 -0.45975545217E+03 -0.17210655650E+03  0.22828175394E+04  0.23366492442E+04  0.87624367901E+02 0.  0.
         13    1    3    3    0    0 -0.24810598715E+03 -0.12474012430E+03  0.11312843593E+04  0.11648695124E+04  0.00000000000E+00 0.  1.
        -13    1    3    3    0    0 -0.21164946501E+03 -0.47366432201E+02  0.11515331801E+04  0.11717797318E+04  0.00000000000E+00 0. -1.
         22    1    1    2    0    0  0.45975545217E+03  0.17210655650E+03 -0.43942055874E+03  0.65885216098E+03  0.00000000000E+00 0.  1.
<mgrwt>
<rscale>  0 0.23611261E+04</rscale>
<asrwt>0</asrwt>
<pdfrwt beam="1">  1        2 0.37222295E+00 0.23611261E+04</pdfrwt>
<pdfrwt beam="2">  1       -2 0.88623418E-01 0.23611261E+04</pdfrwt>
<totfact> 0.38269934E+00</totfact>
</mgrwt>
</event>
<event>
 6    1  0.1817112E-005  0.3316985E+04  0.7818608E-02  0.8158587E-01
          2   -1    0    0  501    0  0.00000000000E+00  0.00000000000E+00  0.25282231311E+04  0.25282231311E+04  0.00000000000E+00 0.  1.
         -2   -1    0    0    0  501 -0.00000000000E+00 -0.00000000000E+00 -0.10879566061E+04  0.10879566061E+04  0.00000000000E+00 0. -1.
         23    2    1    2    0    0  0.14190494943E+04  0.26531572860E+03 -0.16688021472E+03  0.14558523208E+04  0.86965917089E+02 0.  0.
         13    1    3    3    0    0  0.47752311413E+03  0.13085545591E+03 -0.51429366234E+02  0.49779157746E+03  0.00000000000E+00 0. -1.
        -13    1    3    3    0    0  0.94152638018E+03  0.13446027268E+03 -0.11545084849E+03  0.95806074334E+03  0.00000000000E+00 0.  1.
         22    1    1    2    0    0 -0.14190494943E+04 -0.26531572860E+03  0.16071467397E+04  0.21603274164E+04  0.00000000000E+00 0. -1.
<mgrwt>
<rscale>  0 0.33169848E+04</rscale>
<asrwt>0</asrwt>
<pdfrwt beam="1">  1        2 0.38895740E+00 0.33169848E+04</pdfrwt>
<pdfrwt beam="2">  1       -2 0.16737794E+00 0.33169848E+04</pdfrwt>
<totfact> 0.62207283E-01</totfact>
</mgrwt>
</event>
<event>
 6    1  0.1817112E-005  0.4285236E+04  0.7818608E-02  0.7949354E-01
          2   -1    0    0  501    0  0.00000000000E+00  0.00000000000E+00  0.31337671704E+04  0.31337671704E+04  0.00000000000E+00 0. -1.
         -2   -1    0    0    0  501 -0.00000000000E+00 -0.00000000000E+00 -0.14649497066E+04  0.14649497066E+04  0.00000000000E+00 0.  1.
         23    2    1    2    0    0 -0.28703902019E+03 -0.54750696273E+03  0.30351401469E+04  0.30990525986E+04  0.99478762477E+02 0.  0.
         11    1    3    3    0    0 -0.11417950410E+02 -0.80471181953E+02  0.49953281203E+03  0.50610177930E+03  0.00000000000E+00 0.  1.
        -11    1    3    3    0    0 -0.27562106979E+03 -0.46703578077E+03  0.25356073349E+04  0.25929508193E+04  0.00000000000E+00 0. -1.
         22    1    1    2    0    0  0.28703902019E+03  0.54750696273E+03 -0.13663226832E+04  0.14996642784E+04  0.00000000000E+00 0.  1.
<mgrwt>
<rscale>  0 0.42852357E+04</rscale>
<asrwt>0</asrwt>
<pdfrwt beam="1">  1        2 0.48211802E+00 0.42852357E+04</pdfrwt>
<pdfrwt beam="2">  1       -2 0.22537688E+00 0.42852357E+04</pdfrwt>
<totfact> 0.10079654E-01</totfact>
</mgrwt>
</event>
<event>
 6    1  0.1817112E-005  0.2658316E+04  0.7818608E-02  0.8348658E-01
         -2   -1    0    0    0  501 -0.00000000000E+00  0.00000000000E+00  0.86340113621E+03  0.86340113621E+03  0.00000000000E+00 0.  1.
          2   -1    0    0  501    0  0.00000000000E+00 -0.00000000000E+00 -0.20461647294E+04  0.20461647294E+04  0.00000000000E+00 0. -1.
         23    2    1    2    0    0  0.13153322495E+03 -0.79166284510E+03  0.56548892336E+03  0.98591883167E+03  0.90703751919E+02 0.  0.
         13    1    3    3    0    0  0.12766455129E+02 -0.34212336190E+03  0.22656259495E+03  0.41053865417E+03  0.00000000000E+00 0. -1.
        -13    1    3    3    0    0  0.11876676982E+03 -0.44953948320E+03  0.33892632840E+03  0.57538017750E+03  0.00000000000E+00 0.  1.
         22    1    1    2    0    0 -0.13153322495E+03  0.79166284510E+03 -0.17482525165E+04  0.19236470339E+04  0.00000000000E+00 0. -1.
<mgrwt>
<rscale>  0 0.26583160E+04</rscale>
<asrwt>0</asrwt>
<pdfrwt beam="1">  1        2 0.31479457E+00 0.26583160E+04</pdfrwt>
<pdfrwt beam="2">  1       -2 0.13283094E+00 0.26583160E+04</pdfrwt>
<totfact> 0.22792771E+00</totfact>
</mgrwt>
</event>
<event>
 6    1  0.1817112E-005  0.3119968E+04  0.7818608E-02  0.8210279E-01
         -2   -1    0    0    0  501 -0.00000000000E+00  0.00000000000E+00  0.18839946176E+04  0.18839946176E+04  0.00000000000E+00 0.  1.
          2   -1    0    0  501    0  0.00000000000E+00 -0.00000000000E+00 -0.12916968582E+04  0.12916968582E+04  0.00000000000E+00 0. -1.
         23    2    1    2    0    0 -0.66896432925E+03  0.63440958368E+03  0.15757320229E+04  0.18276811849E+04  0.86592793355E+02 0.  0.
         13    1    3    3    0    0 -0.39719395828E+03  0.43364915401E+03  0.99032589081E+03  0.11517638644E+04  0.00000000000E+00 0.  1.
        -13    1    3    3    0    0 -0.27177037097E+03  0.20076042967E+03  0.58540613213E+03  0.67591732053E+03  0.00000000000E+00 0. -1.
         22    1    1    2    0    0  0.66896432925E+03 -0.63440958368E+03 -0.98343426352E+03  0.13480102909E+04  0.00000000000E+00 0. -1.
<mgrwt>
<rscale>  0 0.31199679E+04</rscale>
<asrwt>0</asrwt>
<pdfrwt beam="1">  1        2 0.19872259E+00 0.31199679E+04</pdfrwt>
<pdfrwt beam="2">  1       -2 0.28984533E+00 0.31199679E+04</pdfrwt>
<totfact> 0.51956782E-01</totfact>
</mgrwt>
</event>
<event>
 6    1  0.1817112E-005  0.5539497E+04  0.7818608E-02  0.7750278E-01
         -2   -1    0    0    0  501 -0.00000000000E+00  0.00000000000E+00  0.20017249341E+04  0.20017249341E+04  0.00000000000E+00 0. -1.
          2   -1    0    0  501    0  0.00000000000E+00 -0.00000000000E+00 -0.38324476123E+04  0.38324476123E+04  0.00000000000E+00 0.  1.
         23    2    1    2    0    0 -0.85869660450E+03 -0.85784880409E+03  0.17056468436E+04  0.20952992102E+04  0.88222422699E+02 0.  0.
         13    1    3    3    0    0 -0.46910984372E+03 -0.52121991963E+03  0.94419202962E+03  0.11761091951E+04  0.00000000000E+00 0. -1.
        -13    1    3    3    0    0 -0.38958676078E+03 -0.33662888447E+03  0.76145481403E+03  0.91919001509E+03  0.00000000000E+00 0.  1.
         22    1    1    2    0    0  0.85869660450E+03  0.85784880409E+03 -0.35363695218E+04  0.37388733362E+04  0.00000000000E+00 0.  1.
<mgrwt>
<rscale>  0 0.55394967E+04</rscale>
<asrwt>0</asrwt>
<pdfrwt beam="1">  1        2 0.58960733E+00 0.55394967E+04</pdfrwt>
<pdfrwt beam="2">  1       -2 0.30795768E+00 0.55394967E+04</pdfrwt>
<totfact> 0.91556263E-03</totfact>
</mgrwt>
</event>
<event>
 6    1  0.1817112E-005  0.1939877E+04  0.7818608E-02  0.8635258E-01
          2   -1    0    0  501    0  0.00000000000E+00  0.00000000000E+00  0.11331527017E+04  0.11331527017E+04  0.00000000000E+00 0. -1.
         -2   -1    0    0    0  501 -0.00000000000E+00 -0.00000000000E+00 -0.83023318987E+03  0.83023318987E+03  0.00000000000E+00 0.  1.
         23    2    1    2    0    0 -0.35994377815E+03 -0.89540310935E+03  0.80221142717E+02  0.97298152196E+03  0.94611620217E+02 0.  0.
         13    1    3    3    0    0 -0.83644309699E+02 -0.16382172096E+03  0.48932963028E+02  0.19033749413E+03  0.00000000000E+00 0.  1.
        -13    1    3    3    0    0 -0.27629946845E+03 -0.73158138839E+03  0.31288179689E+02  0.78264402783E+03  0.00000000000E+00 0. -1.
         22    1    1    2    0    0  0.35994377815E+03  0.89540310935E+03  0.22269836908E+03  0.99040436957E+03  0.00000000000E+00 0. -1.
<mgrwt>
<rscale>  0 0.19398773E+04</rscale>
<asrwt>0</asrwt>
<pdfrwt beam="1">  1        2 0.17433119E+00 0.19398773E+04</pdfrwt>
<pdfrwt beam="2">  1       -2 0.12772818E+00 0.19398773E+04</pdfrwt>
<totfact> 0.88138851E+00</totfact>
</mgrwt>
</event>
<event>
 6    1  0.1817112E-005  0.2767294E+04  0.7818608E-02  0.8313495E-01
          1   -1    0    0  501    0  0.00000000000E+00  0.00000000000E+00  0.22801241378E+04  0.22801241378E+04  0.00000000000E+00 0. -1.
         -1   -1    0    0    0  501 -0.00000000000E+00 -0.00000000000E+00 -0.83963786144E+03  0.83963786144E+03  0.00000000000E+00 0.  1.
         23    2    1    2    0    0  0.11580818812E+04 -0.53002441601E+03  0.11482046629E+03  0.12814286875E+04  0.82439167924E+02 0.  0.
         11    1    3    3    0    0  0.49815028289E+03 -0.24139617939E+03  0.10761033082E+02  0.55366200845E+03  0.00000000000E+00 0. -1.
        -11    1    3    3    0    0  0.65993159833E+03 -0.28862823662E+03  0.10405943321E+03  0.72776667902E+03  0.00000000000E+00 0.  1.
         22    1    1    2    0    0 -0.11580818812E+04  0.53002441601E+03  0.13256658101E+04  0.18383333118E+04  0.00000000000E+00 0. -1.
<mgrwt>
<rscale>  0 0.27672937E+04</rscale>
<asrwt>0</asrwt>
<pdfrwt beam="1">  1        1 0.35078833E+00 0.27672937E+04</pdfrwt>
<pdfrwt beam="2">  1       -1 0.12917506E+00 0.27672937E+04</pdfrwt>
<totfact> 0.85897581E-01</totfact>
</mgrwt>
</event>
<event>
 6    1  0.1817112E-005  0.1611586E+04  0.7818608E-02  0.8813462E-01
          2   -1    0    0  501    0  0.00000000000E+00  0.00000000000E+00  0.23128554628E+04  0.23128554628E+04  0.00000000000E+00 0.  1.
         -2   -1    0    0    0  501 -0.00000000000E+00 -0.00000000000E+00 -0.28073626800E+03  0.28073626800E+03  0.00000000000E+00 0. -1.
         23    2    1    2    0    0  0.12825629457E+03 -0.53445234709E+03  0.76749343395E+02  0.56244421173E+03  0.91455132154E+02 0.  0.
         11    1    3    3    0    0  0.15032163028E+02 -0.11228229303E+03 -0.19324655053E+02  0.11492050098E+03  0.00000000000E+00 0. -1.
        -11    1    3    3    0    0  0.11322413154E+03 -0.42217005406E+03  0.96073998448E+02  0.44752371075E+03  0.00000000000E+00 0.  1.
         22    1    1    2    0    0 -0.12825629457E+03  0.53445234709E+03  0.19553698514E+04  0.20311475191E+04  0.00000000000E+00 0.  1.
<mgrwt>
<rscale>  0 0.16115861E+04</rscale>
<asrwt>0</asrwt>
<pdfrwt beam="1">  1        2 0.35582391E+00 0.16115861E+04</pdfrwt>
<pdfrwt beam="2">  1       -2 0.43190197E-01 0.16115861E+04</pdfrwt>
<totfact> 0.21735190E+01</totfact>
</mgrwt>
</event>
<event>
 6    1  0.1817112E-005  0.2280602E+04  0.7818608E-02  0.8485609E-01
         -2   -1    0    0    0  501 -0.00000000000E+00  0.00000000000E+00  0.37326388773E+03  0.37326388773E+03  0.00000000000E+00 0.  1.
          2   -1    0    0  501    0  0.00000000000E+00 -0.00000000000E+00 -0.34835573345E+04  0.34835573345E+04  0.00000000000E+00 0. -1.
         23    2    1    2    0    0 -0.78474195216E+03 -0.65616203395E+03 -0.71119353980E+03  0.12487474292E+04  0.84884301327E+02 0.  0.
         13    1    3    3    0    0 -0.49463263442E+03 -0.46551429496E+03 -0.47667007461E+03  0.82980682202E+03  0.00000000000E+00 0.  1.
        -13    1    3    3    0    0 -0.29010931774E+03 -0.19064773900E+03 -0.23452346519E+03  0.41894060718E+03  0.00000000000E+00 0. -1.
         22    1    1    2    0    0  0.78474195216E+03  0.65616203395E+03 -0.23990999070E+04  0.26080737930E+04  0.00000000000E+00 0. -1.
<mgrwt>
<rscale>  0 0.22806018E+04</rscale>
<asrwt>0</asrwt>
<pdfrwt beam="1">  1        2 0.53593191E+00 0.22806018E+04</pdfrwt>
<pdfrwt beam="2">  1       -2 0.57425212E-01 0.22806018E+04</pdfrwt>
<totfact> 0.21593447E+00</totfact>
</mgrwt>
</event>
<event>
 6    1  0.1817112E-005  0.2174623E+04  0.7818608E-02  0.8529065E-01
          2   -1    0    0  501    0  0.00000000000E+00  0.00000000000E+00  0.15831927018E+04  0.15831927018E+04  0.00000000000E+00 0.  1.
         -2   -1    0    0    0  501 -0.00000000000E+00 -0.00000000000E+00 -0.74674841057E+03  0.74674841057E+03  0.00000000000E+00 0. -1.
         23    2    1    2    0    0  0.75989635917E+03  0.66653322818E+03 -0.55426076897E+01  0.10143990344E+04  0.85238838444E+02 0.  0.
         13    1    3    3    0    0  0.46137097537E+03  0.45901522544E+03 -0.47803083154E+01  0.65083101143E+03  0.00000000000E+00 0. -1.
        -13    1    3    3    0    0  0.29852538380E+03  0.20751800274E+03 -0.76229937433E+00  0.36356802298E+03  0.00000000000E+00 0.  1.
         22    1    1    2    0    0 -0.75989635917E+03 -0.66653322818E+03  0.84198689896E+03  0.13155420780E+04  0.00000000000E+00 0.  1.
<mgrwt>
<rscale>  0 0.21746233E+04</rscale>
<asrwt>0</asrwt>
<pdfrwt beam="1">  1        2 0.24356811E+00 0.21746233E+04</pdfrwt>
<pdfrwt beam="2">  1       -2 0.11488437E+00 0.21746233E+04</pdfrwt>
<totfact> 0.61710105E+00</totfact>
</mgrwt>
</event>
<event>
 6    1  0.1817112E-005  0.2639076E+04  0.7818608E-02  0.8355048E-01
          2   -1    0    0  501    0  0.00000000000E+00  0.00000000000E+00  0.10312246675E+04  0.10312246675E+04  0.00000000000E+00 0. -1.
         -2   -1    0    0    0  501 -0.00000000000E+00 -0.00000000000E+00 -0.16884595380E+04  0.16884595380E+04  0.00000000000E+00 0.  1.
         23    2    1    2    0    0 -0.29467695409E+03 -0.82519191803E+03 -0.13436485623E+04  0.16066074043E+04  0.89552687339E+02 0.  0.
         11    1    3    3    0    0 -0.17705750000E+03 -0.55661125735E+03 -0.96027715203E+03  0.11239651502E+04  0.00000000000E+00 0. -1.
        -11    1    3    3    0    0 -0.11761945409E+03 -0.26858066067E+03 -0.38337141028E+03  0.48264225415E+03  0.00000000000E+00 0.  1.
         22    1    1    2    0    0  0.29467695409E+03  0.82519191803E+03  0.68641369182E+03  0.11130768011E+04  0.00000000000E+00 0. -1.
<mgrwt>
<rscale>  0 0.26390764E+04</rscale>
<asrwt>0</asrwt>
<pdfrwt beam="1">  1        2 0.15864995E+00 0.26390764E+04</pdfrwt>
<pdfrwt beam="2">  1       -2 0.25976301E+00 0.26390764E+04</pdfrwt>
<totfact> 0.11873319E+00</totfact>
</mgrwt>
</event>
<event>
 6    1  0.1817112E-005  0.2696900E+04  0.7818608E-02  0.8336012E-01
         -1   -1    0    0    0  501 -0.00000000000E+00  0.00000000000E+00  0.53253535027E+03  0.53253535027E+03  0.00000000000E+00 0.  1.
          1   -1    0    0  501    0  0.00000000000E+00 -0.00000000000E+00 -0.34144527493E+04  0.34144527493E+04  0.00000000000E+00 0. -1.
         23    2    1    2    0    0 -0.43599595927E+03 -0.12719968792E+04 -0.13277248720E+04  0.18918523502E+04  0.90462378817E+02 0.  0.
         13    1    3    3    0    0 -0.11493536464E+03 -0.33885753858E+03 -0.29858276685E+03  0.46603244324E+03  0.00000000000E+00 0. -1.
        -13    1    3    3    0    0 -0.32106059463E+03 -0.93313934065E+03 -0.10291421051E+04  0.14258199070E+04  0.00000000000E+00 0.  1.
         22    1    1    2    0    0  0.43599595927E+03  0.12719968792E+04 -0.15541925270E+04  0.20551357494E+04  0.00000000000E+00 0. -1.
<mgrwt>
<rscale>  0 0.26968995E+04</rscale>
<asrwt>0</asrwt>
<pdfrwt beam="1">  1        1 0.52530042E+00 0.26968995E+04</pdfrwt>
<pdfrwt beam="2">  1       -1 0.81928516E-01 0.26968995E+04</pdfrwt>
<totfact> 0.37744223E-01</totfact>
</mgrwt>
</event>
<event>
 6    1  0.1817112E-005  0.4982130E+04  0.7818608E-02  0.7831270E-01
          2   -1    0    0  501    0  0.00000000000E+00  0.00000000000E+00  0.11643453195E+04  0.11643453195E+04  0.00000000000E+00 0. -1.
         -2   -1    0    0    0  501 -0.00000000000E+00 -0.00000000000E+00 -0.53295229221E+04  0.53295229221E+04  0.00000000000E+00 0.  1.
         23    2    1    2    0    0  0.69935836494E+03  0.13006249677E+04  0.53027766480E+03  0.15716708057E+04  0.90704413339E+02 0.  0.
         13    1    3    3    0    0  0.30474752623E+03  0.51621927819E+03  0.17537209088E+03  0.62458687801E+03  0.00000000000E+00 0.  1.
        -13    1    3    3    0    0  0.39461083871E+03  0.78440568947E+03  0.35490557392E+03  0.94708392769E+03  0.00000000000E+00 0. -1.
         22    1    1    2    0    0 -0.69935836494E+03 -0.13006249677E+04 -0.46954552674E+04  0.49221974358E+04  0.00000000000E+00 0.  1.
<mgrwt>
<rscale>  0 0.49821301E+04</rscale>
<asrwt>0</asrwt>
<pdfrwt beam="1">  1        2 0.17913005E+00 0.49821301E+04</pdfrwt>
<pdfrwt beam="2">  1       -2 0.81992660E+00 0.49821301E+04</pdfrwt>
<totfact> 0.83039862E-04</totfact>
</mgrwt>
</event>
<event>
 6    1  0.1817112E-005  0.9318566E+03  0.7818608E-02  0.9386613E-01
         -2   -1    0    0    0  501 -0.00000000000E+00  0.00000000000E+00  0.11585956037E+03  0.11585956037E+03  0.00000000000E+00 0.  1.
          2   -1    0    0  501    0  0.00000000000E+00 -0.00000000000E+00 -0.18737268594E+04  0.18737268594E+04  0.00000000000E+00 0. -1.
         23    2    1    2    0    0  0.16275678977E+03  0.30282504338E+03 -0.23288855921E+03  0.42633566047E+03  0.96603493044E+02 0.  0.
         11    1    3    3    0    0  0.85924739971E+02  0.90668860673E+02 -0.45210007477E+02  0.13284520319E+03  0.00000000000E+00 0. -1.
        -11    1    3    3    0    0  0.76832049803E+02  0.21215618270E+03 -0.18767855173E+03  0.29349045728E+03  0.00000000000E+00 0.  1.
         22    1    1    2    0    0 -0.16275678977E+03 -0.30282504338E+03 -0.15249787398E+04  0.15632507593E+04  0.00000000000E+00 0. -1.
<mgrwt>
<rscale>  0 0.93185658E+03</rscale>
<asrwt>0</asrwt>
<pdfrwt beam="1">  1        2 0.28826566E+00 0.93185658E+03</pdfrwt>
<pdfrwt beam="2">  1       -2 0.17824548E-01 0.93185658E+03</pdfrwt>
<totfact> 0.20626164E+02</totfact>
</mgrwt>
</event>
<event>
 6    1  0.1817112E-005  0.4640315E+04  0.7818608E-02  0.7886522E-01
         -2   -1    0    0    0  501 -0.00000000000E+00  0.00000000000E+00  0.24387849841E+04  0.24387849841E+04  0.00000000000E+00 0.  1.
          2   -1    0    0  501    0  0.00000000000E+00 -0.00000000000E+00 -0.22073003405E+04  0.22073003405E+04  0.00000000000E+00 0. -1.
         23    2    1    2    0    0 -0.12177662383E+04  0.18309361688E+04 -0.62245931395E+03  0.22871656252E+04  0.91592218313E+02 0.  0.
         13    1    3    3    0    0 -0.36815489903E+03  0.55684815703E+03 -0.14544455233E+03  0.68320715561E+03  0.00000000000E+00 0.  1.
        -13    1    3    3    0    0 -0.84961133932E+03  0.12740880117E+04 -0.47701476162E+03  0.16039584696E+04  0.00000000000E+00 0. -1.
         22    1    1    2    0    0  0.12177662383E+04 -0.18309361688E+04  0.85394395755E+03  0.23589196993E+04  0.00000000000E+00 0.  1.
<mgrwt>
<rscale>  0 0.46403150E+04</rscale>
<asrwt>0</asrwt>
<pdfrwt beam="1">  1        2 0.33958467E+00 0.46403150E+04</pdfrwt>
<pdfrwt beam="2">  1       -2 0.37519769E+00 0.46403150E+04</pdfrwt>
<totfact> 0.41205917E-02</totfact>
</mgrwt>
</event>
<event>
 6    1  0.1817112E-005  0.1986839E+04  0.7818608E-02  0.8612799E-01
         -2   -1    0    0    0  501 -0.00000000000E+00  0.00000000000E+00  0.68006505828E+03  0.68006505828E+03  0.00000000000E+00 0.  1.
          2   -1    0    0  501    0  0.00000000000E+00 -0.00000000000E+00 -0.14511589254E+04  0.14511589254E+04  0.00000000000E+00 0. -1.
         23    2    1    2    0    0 -0.47332192741E+03  0.39741057425E+03  0.44503283326E+03  0.76706381607E+03  0.91454162057E+02 0.  0.
         11    1    3    3    0    0 -0.18707911022E+03  0.10126873834E+03  0.16005847611E+03  0.26621920783E+03  0.00000000000E+00 0. -1.
        -11    1    3    3    0    0 -0.28624281720E+03  0.29614183591E+03  0.28497435714E+03  0.50084460824E+03  0.00000000000E+00 0.  1.
         22    1    1    2    0    0  0.47332192741E+03 -0.39741057425E+03 -0.12161267004E+04  0.13641601676E+04  0.00000000000E+00 0. -1.
<mgrwt>
<rscale>  0 0.19868392E+04</rscale>
<asrwt>0</asrwt>
<pdfrwt beam="1">  1        2 0.22325522E+00 0.19868392E+04</pdfrwt>
<pdfrwt beam="2">  1       -2 0.10462539E+00 0.19868392E+04</pdfrwt>
<totfact> 0.93307073E+00</totfact>
</mgrwt>
</event>
<event>
 6    1  0.1817112E-005  0.3820930E+04  0.7818608E-02  0.8041678E-01
          3   -1    0    0  501    0  0.00000000000E+00  0.00000000000E+00  0.15412187547E+04  0.15412187547E+04  0.00000000000E+00 0. -1.
         -3   -1    0    0    0  501 -0.00000000000E+00 -0.00000000000E+00 -0.23681760971E+04  0.23681760971E+04  0.00000000000E+00 0.  1.
         23    2    1    2    0    0  0.10043592957E+04 -0.97158792201E+03  0.91750377912E+03  0.16742516148E+04  0.92653116756E+02 0.  0.
         11    1    3    3    0    0  0.42549763952E+03 -0.41095093364E+03  0.33397847133E+03  0.67931622269E+03  0.00000000000E+00 0.  1.
        -11    1    3    3    0    0  0.57886165617E+03 -0.56063698836E+03  0.58352530780E+03  0.99493539215E+03  0.00000000000E+00 0. -1.
         22    1    1    2    0    0 -0.10043592957E+04  0.97158792201E+03 -0.17444611216E+04  0.22351432370E+04  0.00000000000E+00 0.  1.
<mgrwt>
<rscale>  0 0.38209305E+04</rscale>
<asrwt>0</asrwt>
<pdfrwt beam="1">  1        3 0.23711058E+00 0.38209305E+04</pdfrwt>
<pdfrwt beam="2">  1       -3 0.36433478E+00 0.38209305E+04</pdfrwt>
<totfact> 0.30158525E-03</totfact>
</mgrwt>
</event>
<event>
 6    1  0.1817112E-005  0.2490823E+04  0.7818608E-02  0.8406262E-01
          2   -1    0    0  501    0  0.00000000000E+00  0.00000000000E+00  0.14109370095E+04  0.14109370095E+04  0.00000000000E+00 0. -1.
         -2   -1    0    0    0  501 -0.00000000000E+00 -0.00000000000E+00 -0.10993051521E+04  0.10993051521E+04  0.00000000000E+00 0.  1.
         23    2    1    2    0    0  0.11715072997E+03 -0.28363781483E+03 -0.10583775197E+04  0.11062833314E+04  0.97596781387E+02 0.  0.
         13    1    3    3    0    0  0.37097278191E+02 -0.17503733218E+03 -0.47693509956E+03  0.50939313393E+03  0.00000000000E+00 0.  1.
        -13    1    3    3    0    0  0.80053451776E+02 -0.10860048266E+03 -0.58144242010E+03  0.59689019750E+03  0.00000000000E+00 0. -1.
         22    1    1    2    0    0 -0.11715072997E+03  0.28363781483E+03  0.13700093771E+04  0.14039588302E+04  0.00000000000E+00 0. -1.
<mgrwt>
<rscale>  0 0.24908234E+04</rscale>
<asrwt>0</asrwt>
<pdfrwt beam="1">  1        2 0.21706723E+00 0.24908234E+04</pdfrwt>
<pdfrwt beam="2">  1       -2 0.16912387E+00 0.24908234E+04</pdfrwt>
<totfact> 0.27530618E+00</totfact>
</mgrwt>
</event>
<event>
 6    1  0.1817112E-005  0.2457637E+04  0.7818608E-02  0.8418235E-01
          2   -1    0    0  501    0  0.00000000000E+00  0.00000000000E+00  0.37085046823E+04  0.37085046823E+04  0.00000000000E+00 0.  1.
         -2   -1    0    0    0  501 -0.00000000000E+00 -0.00000000000E+00 -0.40717096985E+03  0.40717096985E+03  0.00000000000E+00 0. -1.
         23    2    1    2    0    0  0.14488451327E+03 -0.32887166078E+03  0.36178677986E+04  0.36367790880E+04  0.89703041271E+02 0.  0.
         13    1    3    3    0    0  0.14225109200E+03 -0.23503095228E+03  0.25319093904E+04  0.25467705202E+04  0.00000000000E+00 0. -1.
        -13    1    3    3    0    0  0.26334212645E+01 -0.93840708500E+02  0.10859584082E+04  0.10900085678E+04  0.00000000000E+00 0.  1.
         22    1    1    2    0    0 -0.14488451327E+03  0.32887166078E+03 -0.31653408614E+03  0.47889656413E+03  0.00000000000E+00 0. -1.
<mgrwt>
<rscale>  0 0.24576374E+04</rscale>
<asrwt>0</asrwt>
<pdfrwt beam="1">  1        2 0.57053916E+00 0.24576374E+04</pdfrwt>
<pdfrwt beam="2">  1       -2 0.62641690E-01 0.24576374E+04</pdfrwt>
<totfact> 0.12197281E+00</totfact>
</mgrwt>
</event>
<event>
 6    1  0.1817112E-005  0.2449171E+04  0.7818608E-02  0.8421321E-01
         -2   -1    0    0    0  501 -0.00000000000E+00  0.00000000000E+00  0.55587843053E+03  0.55587843053E+03  0.00000000000E+00 0.  1.
          2   -1    0    0  501    0  0.00000000000E+00 -0.00000000000E+00 -0.26977292187E+04  0.26977292187E+04  0.00000000000E+00 0. -1.
         23    2    1    2    0    0  0.79056741474E+03 -0.38146865039E+03  0.58428745452E+02  0.88469541055E+03  0.93578216877E+02 0.  0.
         11    1    3    3    0    0  0.43934968661E+03 -0.23215705196E+03 -0.97690003628E+01  0.49701154641E+03  0.00000000000E+00 0.  1.
        -11    1    3    3    0    0  0.35121772813E+03 -0.14931159843E+03  0.68197745815E+02  0.38768386414E+03  0.00000000000E+00 0. -1.
         22    1    1    2    0    0 -0.79056741474E+03  0.38146865039E+03 -0.22002795337E+04  0.23689122387E+04  0.00000000000E+00 0. -1.
<mgrwt>
<rscale>  0 0.24491709E+04</rscale>
<asrwt>0</asrwt>
<pdfrwt beam="1">  1        2 0.41503526E+00 0.24491709E+04</pdfrwt>
<pdfrwt beam="2">  1       -2 0.85519760E-01 0.24491709E+04</pdfrwt>
<totfact> 0.28347535E+00</totfact>
</mgrwt>
</event>
<event>
 6    1  0.1817112E-005  0.7332856E+03  0.7818608E-02  0.9661944E-01
          2   -1    0    0  501    0  0.00000000000E+00  0.00000000000E+00  0.99480450918E+03  0.99480450918E+03  0.00000000000E+00 0. -1.
         -2   -1    0    0    0  501 -0.00000000000E+00 -0.00000000000E+00 -0.13512899340E+03  0.13512899340E+03  0.00000000000E+00 0.  1.
         23    2    1    2    0    0 -0.17284789519E+03  0.30286336685E+03  0.29202155232E+03  0.46372509969E+03  0.90342499485E+02 0.  0.
         13    1    3    3    0    0 -0.10854022888E+03  0.13859330564E+03  0.19379759287E+03  0.26181404213E+03  0.00000000000E+00 0.  1.
        -13    1    3    3    0    0 -0.64307666308E+02  0.16427006121E+03  0.98223959451E+02  0.20191105756E+03  0.00000000000E+00 0. -1.
         22    1    1    2    0    0  0.17284789519E+03 -0.30286336685E+03  0.56765396346E+03  0.66620840289E+03  0.00000000000E+00 0. -1.
<mgrwt>
<rscale>  0 0.73328557E+03</rscale>
<asrwt>0</asrwt>
<pdfrwt beam="1">  1        2 0.15304684E+00 0.73328557E+03</pdfrwt>
<pdfrwt beam="2">  1       -2 0.20789077E-01 0.73328557E+03</pdfrwt>
<totfact> 0.50920701E+02</totfact>
</mgrwt>
</event>
<event>
 6    1  0.1817112E-005  0.1959909E+04  0.7818608E-02  0.8625597E-01
          2   -1    0    0  501    0  0.00000000000E+00  0.00000000000E+00  0.15700045578E+04  0.15700045578E+04  0.00000000000E+00 0. -1.
         -2   -1    0    0    0  501 -0.00000000000E+00 -0.00000000000E+00 -0.61166107316E+03  0.61166107316E+03  0.00000000000E+00 0.  1.
         23    2    1    2    0    0 -0.29715582561E+02 -0.94611040855E+03  0.75434618203E+03  0.12133563722E+04  0.84779730266E+02 0.  0.
         13    1    3    3    0    0 -0.56394861666E+02 -0.47385114016E+03  0.36775318918E+03  0.60245970123E+03  0.00000000000E+00 0. -1.
        -13    1    3    3    0    0  0.26679279105E+02 -0.47225926839E+03  0.38659299285E+03  0.61089667099E+03  0.00000000000E+00 0.  1.
         22    1    1    2    0    0  0.29715582561E+02  0.94611040855E+03  0.20399730257E+03  0.96830925869E+03  0.00000000000E+00 0. -1.
<mgrwt>
<rscale>  0 0.19599088E+04</rscale>
<asrwt>0</asrwt>
<pdfrwt beam="1">  1        2 0.24153916E+00 0.19599088E+04</pdfrwt>
<pdfrwt beam="2">  1       -2 0.94101704E-01 0.19599088E+04</pdfrwt>
<totfact> 0.10296722E+01</totfact>
</mgrwt>
</event>
<event>
 6    1  0.1817112E-005  0.1285305E+04  0.7818608E-02  0.9041300E-01
         -2   -1    0    0    0  501 -0.00000000000E+00  0.00000000000E+00  0.49565664068E+03  0.49565664068E+03  0.00000000000E+00 0.  1.
          2   -1    0    0  501    0  0.00000000000E+00 -0.00000000000E+00 -0.83324235659E+03  0.83324235659E+03  0.00000000000E+00 0. -1.
         23    2    1    2    0    0  0.53917384507E+03 -0.36144656436E+02 -0.52344320654E+03  0.75744656862E+03  0.87850113533E+02 0.  0.
         11    1    3    3    0    0  0.45186228721E+03 -0.49041511350E+02 -0.47212608543E+03  0.65535306284E+03  0.00000000000E+00 0. -1.
        -11    1    3    3    0    0  0.87311557859E+02  0.12896854914E+02 -0.51317121110E+02  0.10209350577E+03  0.00000000000E+00 0.  1.
         22    1    1    2    0    0 -0.53917384507E+03  0.36144656436E+02  0.18585749063E+03  0.57145242866E+03  0.00000000000E+00 0.  1.
<mgrwt>
<rscale>  0 0.12853048E+04</rscale>
<asrwt>0</asrwt>
<pdfrwt beam="1">  1        2 0.12819113E+00 0.12853048E+04</pdfrwt>
<pdfrwt beam="2">  1       -2 0.76254869E-01 0.12853048E+04</pdfrwt>
<totfact> 0.49262190E+01</totfact>
</mgrwt>
</event>
<event>
 6    1  0.1817112E-005  0.1801121E+04  0.7818608E-02  0.8705704E-01
          2   -1    0    0  501    0  0.00000000000E+00  0.00000000000E+00  0.13541391613E+04  0.13541391613E+04  0.00000000000E+00 0. -1.
         -2   -1    0    0    0  501 -0.00000000000E+00 -0.00000000000E+00 -0.59891131539E+03  0.59891131539E+03  0.00000000000E+00 0.  1.
         23    2    1    2    0    0  0.10535785104E+03 -0.72819718358E+03  0.93731789052E+03  0.11950740923E+04  0.90916683217E+02 0.  0.
         13    1    3    3    0    0  0.90737180465E+02 -0.43634909200E+03  0.50866238647E+03  0.67629223669E+03  0.00000000000E+00 0. -1.
        -13    1    3    3    0    0  0.14620670574E+02 -0.29184809158E+03  0.42865550405E+03  0.51878185562E+03  0.00000000000E+00 0.  1.
         22    1    1    2    0    0 -0.10535785104E+03  0.72819718358E+03 -0.18209004460E+03  0.75797638439E+03  0.00000000000E+00 0.  1.
<mgrwt>
<rscale>  0 0.18011211E+04</rscale>
<asrwt>0</asrwt>
<pdfrwt beam="1">  1        2 0.20832910E+00 0.18011211E+04</pdfrwt>
<pdfrwt beam="2">  1       -2 0.92140203E-01 0.18011211E+04</pdfrwt>
<totfact> 0.14529267E+01</totfact>
</mgrwt>
</event>
<event>
 6    1  0.1817112E-005  0.2704390E+04  0.7818608E-02  0.8333582E-01
         -2   -1    0    0    0  501 -0.00000000000E+00  0.00000000000E+00  0.28692583090E+04  0.28692583090E+04  0.00000000000E+00 0.  1.
          2   -1    0    0  501    0  0.00000000000E+00 -0.00000000000E+00 -0.63724882903E+03  0.63724882903E+03  0.00000000000E+00 0. -1.
         23    2    1    2    0    0  0.37283331564E+03  0.10610108724E+04  0.14736887882E+03  0.11378629713E+04  0.90916458465E+02 0.  0.
         13    1    3    3    0    0  0.16956316108E+03  0.60981554534E+03  0.98803933507E+02  0.64061601775E+03  0.00000000000E+00 0. -1.
        -13    1    3    3    0    0  0.20327015457E+03  0.45119532705E+03  0.48564945308E+02  0.49724695354E+03  0.00000000000E+00 0.  1.
         22    1    1    2    0    0 -0.37283331564E+03 -0.10610108724E+04  0.20846406011E+04  0.23686441667E+04  0.00000000000E+00 0.  1.
<mgrwt>
<rscale>  0 0.27043901E+04</rscale>
<asrwt>0</asrwt>
<pdfrwt beam="1">  1        2 0.98038283E-01 0.27043901E+04</pdfrwt>
<pdfrwt beam="2">  1       -2 0.44142435E+00 0.27043901E+04</pdfrwt>
<totfact> 0.15966326E-01</totfact>
</mgrwt>
</event>
<event>
 6    1  0.1817112E-005  0.3256629E+04  0.7818608E-02  0.8174020E-01
          1   -1    0    0  501    0  0.00000000000E+00  0.00000000000E+00  0.20807142336E+04  0.20807142336E+04  0.00000000000E+00 0. -1.
         -1   -1    0    0    0  501 -0.00000000000E+00 -0.00000000000E+00 -0.12742777494E+04  0.12742777494E+04  0.00000000000E+00 0.  1.
         23    2    1    2    0    0  0.54777231328E+03  0.97783073119E+03 -0.81159609027E+03  0.13866838622E+04  0.89423006119E+02 0.  0.
         11    1    3    3    0    0  0.25462085211E+03  0.38790480719E+03 -0.37217526597E+03  0.59482463497E+03  0.00000000000E+00 0.  1.
        -11    1    3    3    0    0  0.29315146117E+03  0.58992592401E+03 -0.43942082430E+03  0.79185922728E+03  0.00000000000E+00 0. -1.
         22    1    1    2    0    0 -0.54777231328E+03 -0.97783073119E+03  0.16180325745E+04  0.19683081207E+04  0.00000000000E+00 0. -1.
<mgrwt>
<rscale>  0 0.32566288E+04</rscale>
<asrwt>0</asrwt>
<pdfrwt beam="1">  1        1 0.32010988E+00 0.32566288E+04</pdfrwt>
<pdfrwt beam="2">  1       -1 0.19604273E+00 0.32566288E+04</pdfrwt>
<totfact> 0.35061573E-01</totfact>
</mgrwt>
</event>
<event>
 6    1  0.1817112E-005  0.1509643E+04  0.7818608E-02  0.8878065E-01
          2   -1    0    0  501    0  0.00000000000E+00  0.00000000000E+00  0.60671247147E+03  0.60671247147E+03  0.00000000000E+00 0. -1.
         -2   -1    0    0    0  501 -0.00000000000E+00 -0.00000000000E+00 -0.93908709020E+03  0.93908709020E+03  0.00000000000E+00 0.  1.
         23    2    1    2    0    0  0.15609200512E+03  0.73099394900E+03 -0.81036992008E+02  0.75720114033E+03  0.89831538498E+02 0.  0.
         11    1    3    3    0    0  0.31789924849E+02  0.31479370364E+03 -0.63328789010E+01  0.31645818133E+03  0.00000000000E+00 0. -1.
        -11    1    3    3    0    0  0.12430208027E+03  0.41620024536E+03 -0.74704113107E+02  0.44074295901E+03  0.00000000000E+00 0.  1.
         22    1    1    2    0    0 -0.15609200512E+03 -0.73099394900E+03 -0.25133762672E+03  0.78859842134E+03  0.00000000000E+00 0.  1.
<mgrwt>
<rscale>  0 0.15096435E+04</rscale>
<asrwt>0</asrwt>
<pdfrwt beam="1">  1        2 0.93340381E-01 0.15096435E+04</pdfrwt>
<pdfrwt beam="2">  1       -2 0.14447494E+00 0.15096435E+04</pdfrwt>
<totfact> 0.15618506E+01</totfact>
</mgrwt>
</event>
<event>
 6    1  0.1817112E-005  0.1150256E+04  0.7818608E-02  0.9157547E-01
          1   -1    0    0  501    0  0.00000000000E+00  0.00000000000E+00  0.87946552341E+03  0.87946552341E+03  0.00000000000E+00 0. -1.
         -1   -1    0    0    0  501 -0.00000000000E+00 -0.00000000000E+00 -0.37610596399E+03  0.37610596399E+03  0.00000000000E+00 0.  1.
         23    2    1    2    0    0  0.22832254429E+03  0.16366207585E+03  0.79654853914E+03  0.84952193731E+03  0.91002678348E+02 0.  0.
         13    1    3    3    0    0  0.13518652243E+03  0.10376596628E+03  0.60210743079E+03  0.62576044124E+03  0.00000000000E+00 0. -1.
        -13    1    3    3    0    0  0.93136021856E+02  0.59896109573E+02  0.19444110835E+03  0.22376149607E+03  0.00000000000E+00 0.  1.
         22    1    1    2    0    0 -0.22832254429E+03 -0.16366207585E+03 -0.29318897972E+03  0.40604955009E+03  0.00000000000E+00 0.  1.
<mgrwt>
<rscale>  0 0.11502560E+04</rscale>
<asrwt>0</asrwt>
<pdfrwt beam="1">  1        1 0.13530239E+00 0.11502560E+04</pdfrwt>
<pdfrwt beam="2">  1       -1 0.57862456E-01 0.11502560E+04</pdfrwt>
<totfact> 0.56856380E+01</totfact>
</mgrwt>
</event>
<event>
 6    1  0.1817112E-005  0.1646183E+04  0.7818608E-02  0.8792668E-01
          1   -1    0    0  501    0  0.00000000000E+00  0.00000000000E+00  0.44551114005E+03  0.44551114005E+03  0.00000000000E+00 0. -1.
         -1   -1    0    0    0  501 -0.00000000000E+00 -0.00000000000E+00 -0.15206789999E+04  0.15206789999E+04  0.00000000000E+00 0.  1.
         23    2    1    2    0    0  0.62756516006E+03  0.38617825935E+03 -0.10848571766E+03  0.75068775734E+03  0.93761825701E+02 0.  0.
         13    1    3    3    0    0  0.29217630077E+03  0.16711184671E+03 -0.36818958738E+01  0.33661092733E+03  0.00000000000E+00 0. -1.
        -13    1    3    3    0    0  0.33538885929E+03  0.21906641264E+03 -0.10480382179E+03  0.41407683000E+03  0.00000000000E+00 0.  1.
         22    1    1    2    0    0 -0.62756516006E+03 -0.38617825935E+03 -0.96668214223E+03  0.12155023826E+04  0.00000000000E+00 0.  1.
<mgrwt>
<rscale>  0 0.16461828E+04</rscale>
<asrwt>0</asrwt>
<pdfrwt beam="1">  1        1 0.68540175E-01 0.16461828E+04</pdfrwt>
<pdfrwt beam="2">  1       -1 0.23395062E+00 0.16461828E+04</pdfrwt>
<totfact> 0.44095963E+00</totfact>
</mgrwt>
</event>
<event>
 6    1  0.1817112E-005  0.4284144E+04  0.7818608E-02  0.7949557E-01
          2   -1    0    0  501    0  0.00000000000E+00  0.00000000000E+00  0.89979228481E+03  0.89979228481E+03  0.00000000000E+00 0. -1.
         -2   -1    0    0    0  501 -0.00000000000E+00 -0.00000000000E+00 -0.50994795868E+04  0.50994795868E+04  0.00000000000E+00 0.  1.
         23    2    1    2    0    0  0.37632161898E+03 -0.11600370797E+04  0.36365240716E+03  0.12757802300E+04  0.89822796815E+02 0.  0.
         11    1    3    3    0    0  0.29205864296E+02 -0.62537346346E+02  0.41209003148E+02  0.80387089372E+02  0.00000000000E+00 0. -1.
        -11    1    3    3    0    0  0.34711575469E+03 -0.10974997334E+04  0.32244340401E+03  0.11953931406E+04  0.00000000000E+00 0.  1.
         22    1    1    2    0    0 -0.37632161898E+03  0.11600370797E+04 -0.45633397092E+04  0.47234916416E+04  0.00000000000E+00 0.  1.
<mgrwt>
<rscale>  0 0.42841440E+04</rscale>
<asrwt>0</asrwt>
<pdfrwt beam="1">  1        2 0.13842958E+00 0.42841440E+04</pdfrwt>
<pdfrwt beam="2">  1       -2 0.78453533E+00 0.42841440E+04</pdfrwt>
<totfact> 0.21800537E-03</totfact>
</mgrwt>
</event>
<event>
 6    1  0.1817112E-005  0.2209396E+04  0.7818608E-02  0.8514527E-01
          2   -1    0    0  501    0  0.00000000000E+00  0.00000000000E+00  0.35946594007E+04  0.35946594007E+04  0.00000000000E+00 0. -1.
         -2   -1    0    0    0  501 -0.00000000000E+00 -0.00000000000E+00 -0.33949184644E+03  0.33949184644E+03  0.00000000000E+00 0.  1.
         23    2    1    2    0    0 -0.40687095191E+03  0.91222017704E+03  0.79418243129E+03  0.12781886348E+04  0.73149360486E+02 0.  0.
         13    1    3    3    0    0 -0.21632451344E+03  0.44780166209E+03  0.35276068468E+03  0.60972348187E+03  0.00000000000E+00 0.  1.
        -13    1    3    3    0    0 -0.19054643846E+03  0.46441851495E+03  0.44142174662E+03  0.66846515289E+03  0.00000000000E+00 0. -1.
         22    1    1    2    0    0  0.40687095191E+03 -0.91222017704E+03  0.24609851230E+04  0.26559626124E+04  0.00000000000E+00 0. -1.
<mgrwt>
<rscale>  0 0.22093959E+04</rscale>
<asrwt>0</asrwt>
<pdfrwt beam="1">  1        2 0.55302450E+00 0.22093959E+04</pdfrwt>
<pdfrwt beam="2">  1       -2 0.52229517E-01 0.22093959E+04</pdfrwt>
<totfact> 0.22100911E+00</totfact>
</mgrwt>
</event>
<event>
 6    1  0.1817112E-005  0.1874625E+04  0.7818608E-02  0.8667591E-01
          2   -1    0    0  501    0  0.00000000000E+00  0.00000000000E+00  0.18735316221E+04  0.18735316221E+04  0.00000000000E+00 0. -1.
         -2   -1    0    0    0  501 -0.00000000000E+00 -0.00000000000E+00 -0.46892974481E+03  0.46892974481E+03  0.00000000000E+00 0.  1.
         23    2    1    2    0    0 -0.34020261097E+03  0.65123632736E+03 -0.18608336381E+02  0.74078290891E+03  0.92555266552E+02 0.  0.
         11    1    3    3    0    0 -0.18956105907E+03  0.29079302624E+03  0.23194608316E+02  0.34789649191E+03  0.00000000000E+00 0.  1.
        -11    1    3    3    0    0 -0.15064155190E+03  0.36044330112E+03 -0.41802944696E+02  0.39288641700E+03  0.00000000000E+00 0. -1.
         22    1    1    2    0    0  0.34020261097E+03 -0.65123632736E+03  0.14232102137E+04  0.16016784580E+04  0.00000000000E+00 0. -1.
<mgrwt>
<rscale>  0 0.18746250E+04</rscale>
<asrwt>0</asrwt>
<pdfrwt beam="1">  1        2 0.28823563E+00 0.18746250E+04</pdfrwt>
<pdfrwt beam="2">  1       -2 0.72143039E-01 0.18746250E+04</pdfrwt>
<totfact> 0.12824449E+01</totfact>
</mgrwt>
</event>
<event>
 6    1  0.1817112E-005  0.1743580E+04  0.7818608E-02  0.8736892E-01
         -2   -1    0    0    0  501 -0.00000000000E+00  0.00000000000E+00  0.20232758143E+04  0.20232758143E+04  0.00000000000E+00 0.  1.
          2   -1    0    0  501    0  0.00000000000E+00 -0.00000000000E+00 -0.37563735857E+03  0.37563735857E+03  0.00000000000E+00 0. -1.
         23    2    1    2    0    0  0.62642128342E+03  0.46469344261E+03  0.13546925527E+04  0.15657499703E+04  0.89651755674E+02 0.  0.
         13    1    3    3    0    0  0.47271078582E+03  0.39580725387E+03  0.10525969802E+04  0.12198685470E+04  0.00000000000E+00 0. -1.
        -13    1    3    3    0    0  0.15371049760E+03  0.68886188746E+02  0.30209557254E+03  0.34588142335E+03  0.00000000000E+00 0.  1.
         22    1    1    2    0    0 -0.62642128342E+03 -0.46469344261E+03  0.29294590300E+03  0.83316320251E+03  0.00000000000E+00 0. -1.
<mgrwt>
<rscale>  0 0.17435802E+04</rscale>
<asrwt>0</asrwt>
<pdfrwt beam="1">  1        2 0.57790364E-01 0.17435802E+04</pdfrwt>
<pdfrwt beam="2">  1       -2 0.31127320E+00 0.17435802E+04</pdfrwt>
<totfact> 0.21992710E+00</totfact>
</mgrwt>
</event>
<event>
 6    1  0.1817112E-005  0.2225663E+04  0.7818608E-02  0.8507822E-01
          1   -1    0    0  501    0  0.00000000000E+00  0.00000000000E+00  0.10816711205E+04  0.10816711205E+04  0.00000000000E+00 0. -1.
         -1   -1    0    0    0  501 -0.00000000000E+00 -0.00000000000E+00 -0.11448896048E+04  0.11448896048E+04  0.00000000000E+00 0.  1.
         23    2    1    2    0    0 -0.51238904120E+03 -0.40936990869E+03 -0.92880621748E+03  0.11405734439E+04  0.90002997553E+02 0.  0.
         11    1    3    3    0    0 -0.11489184828E+03 -0.98467988895E+02 -0.15384666539E+03  0.21578896656E+03  0.00000000000E+00 0.  1.
        -11    1    3    3    0    0 -0.39749719293E+03 -0.31090191980E+03 -0.77495955208E+03  0.92478447732E+03  0.00000000000E+00 0. -1.
         22    1    1    2    0    0  0.51238904120E+03  0.40936990869E+03  0.86558773317E+03  0.10859872815E+04  0.00000000000E+00 0. -1.
<mgrwt>
<rscale>  0 0.22256631E+04</rscale>
<asrwt>0</asrwt>
<pdfrwt beam="1">  1        1 0.16641094E+00 0.22256631E+04</pdfrwt>
<pdfrwt beam="2">  1       -1 0.17613686E+00 0.22256631E+04</pdfrwt>
<totfact> 0.26427453E+00</totfact>
</mgrwt>
</event>
<event>
 6    1  0.1817112E-005  0.3943886E+04  0.7818608E-02  0.8015963E-01
         -1   -1    0    0    0  501 -0.00000000000E+00  0.00000000000E+00  0.10985202637E+04  0.10985202637E+04  0.00000000000E+00 0.  1.
          1   -1    0    0  501    0  0.00000000000E+00 -0.00000000000E+00 -0.35398153669E+04  0.35398153669E+04  0.00000000000E+00 0. -1.
         23    2    1    2    0    0 -0.31836587499E+03 -0.15852239170E+04  0.10416270923E+03  0.16227681596E+04  0.90746528154E+02 0.  0.
         11    1    3    3    0    0 -0.19764592562E+03 -0.10672715910E+04  0.30409103512E+02  0.10858440378E+04  0.00000000000E+00 0. -1.
        -11    1    3    3    0    0 -0.12071994937E+03 -0.51795232601E+03  0.73753605723E+02  0.53692412179E+03  0.00000000000E+00 0.  1.
         22    1    1    2    0    0  0.31836587499E+03  0.15852239170E+04 -0.25454578124E+04  0.30155674710E+04  0.00000000000E+00 0. -1.
<mgrwt>
<rscale>  0 0.39438859E+04</rscale>
<asrwt>0</asrwt>
<pdfrwt beam="1">  1        1 0.54458698E+00 0.39438859E+04</pdfrwt>
<pdfrwt beam="2">  1       -1 0.16900312E+00 0.39438859E+04</pdfrwt>
<totfact> 0.45649190E-02</totfact>
</mgrwt>
</event>
<event>
 6    1  0.1817112E-005  0.1456910E+04  0.7818608E-02  0.8913624E-01
          2   -1    0    0  501    0  0.00000000000E+00  0.00000000000E+00  0.24655443069E+04  0.24655443069E+04  0.00000000000E+00 0. -1.
         -2   -1    0    0    0  501 -0.00000000000E+00 -0.00000000000E+00 -0.21522491256E+03  0.21522491256E+03  0.00000000000E+00 0.  1.
         23    2    1    2    0    0 -0.22023247234E+02  0.17317345880E+03  0.24255159961E+04  0.24334477292E+04  0.89810539042E+02 0.  0.
         11    1    3    3    0    0 -0.56967734799E+02  0.11744246709E+03  0.16039284006E+04  0.16092309872E+04  0.00000000000E+00 0. -1.
        -11    1    3    3    0    0  0.34944487565E+02  0.55730991706E+02  0.82158759549E+03  0.82421674195E+03  0.00000000000E+00 0.  1.
         22    1    1    2    0    0  0.22023247234E+02 -0.17317345880E+03 -0.17519660182E+03  0.24732149025E+03  0.00000000000E+00 0.  1.
<mgrwt>
<rscale>  0 0.14569098E+04</rscale>
<asrwt>0</asrwt>
<pdfrwt beam="1">  1        2 0.37931449E+00 0.14569098E+04</pdfrwt>
<pdfrwt beam="2">  1       -2 0.33111527E-01 0.14569098E+04</pdfrwt>
<totfact> 0.30170659E+01</totfact>
</mgrwt>
</event>
<event>
 6    1  0.1817112E-005  0.1514581E+04  0.7818608E-02  0.8874814E-01
         -2   -1    0    0    0  501 -0.00000000000E+00  0.00000000000E+00  0.55278143937E+03  0.55278143937E+03  0.00000000000E+00 0.  1.
          2   -1    0    0  501    0  0.00000000000E+00 -0.00000000000E+00 -0.10374603722E+04  0.10374603722E+04  0.00000000000E+00 0. -1.
         23    2    1    2    0    0  0.31035442540E+03 -0.18105297885E+03  0.45351335062E+03  0.58560017832E+03  0.90294845552E+02 0.  0.
         13    1    3    3    0    0  0.12013420443E+03 -0.21192950312E+02  0.14690574679E+03  0.19095200092E+03  0.00000000000E+00 0.  1.
        -13    1    3    3    0    0  0.19022022098E+03 -0.15986002854E+03  0.30660760384E+03  0.39464817740E+03  0.00000000000E+00 0. -1.
         22    1    1    2    0    0 -0.31035442540E+03  0.18105297885E+03 -0.93819228348E+03  0.10046416333E+04  0.00000000000E+00 0. -1.
<mgrwt>
<rscale>  0 0.15145809E+04</rscale>
<asrwt>0</asrwt>
<pdfrwt beam="1">  1        2 0.15960929E+00 0.15145809E+04</pdfrwt>
<pdfrwt beam="2">  1       -2 0.85043298E-01 0.15145809E+04</pdfrwt>
<totfact> 0.27696778E+01</totfact>
</mgrwt>
</event>
<event>
 6    1  0.1817112E-005  0.1624311E+04  0.7818608E-02  0.8805751E-01
         -1   -1    0    0    0  501 -0.00000000000E+00  0.00000000000E+00  0.76612369821E+03  0.76612369821E+03  0.00000000000E+00 0.  1.
          1   -1    0    0  501    0  0.00000000000E+00 -0.00000000000E+00 -0.86095276022E+03  0.86095276022E+03  0.00000000000E+00 0. -1.
         23    2    1    2    0    0  0.53185737915E+03 -0.14866130573E+03  0.54554396747E+03  0.78147012422E+03  0.90027101603E+02 0.  0.
         11    1    3    3    0    0  0.31230702777E+03 -0.12108041379E+03  0.36935615409E+03  0.49861820540E+03  0.00000000000E+00 0. -1.
        -11    1    3    3    0    0  0.21955035138E+03 -0.27580891943E+02  0.17618781338E+03  0.28285191881E+03  0.00000000000E+00 0.  1.
         22    1    1    2    0    0 -0.53185737915E+03  0.14866130573E+03 -0.64037302947E+03  0.84560633421E+03  0.00000000000E+00 0. -1.
<mgrwt>
<rscale>  0 0.16243107E+04</rscale>
<asrwt>0</asrwt>
<pdfrwt beam="1">  1        1 0.13245427E+00 0.16243107E+04</pdfrwt>
<pdfrwt beam="2">  1       -1 0.11786518E+00 0.16243107E+04</pdfrwt>
<totfact> 0.12147807E+01</totfact>
</mgrwt>
</event>
<event>
 6    1  0.1817112E-005  0.2653360E+04  0.7818608E-02  0.8350299E-01
          2   -1    0    0  501    0  0.00000000000E+00  0.00000000000E+00  0.87410691388E+03  0.87410691388E+03  0.00000000000E+00 0. -1.
         -2   -1    0    0    0  501 -0.00000000000E+00 -0.00000000000E+00 -0.20135746043E+04  0.20135746043E+04  0.00000000000E+00 0.  1.
         23    2    1    2    0    0  0.81671611397E+03  0.10437522023E+04 -0.57626200891E+03  0.14476660633E+04  0.84942669489E+02 0.  0.
         11    1    3    3    0    0  0.37880435014E+03  0.55170042451E+03 -0.28138543388E+03  0.72597786226E+03  0.00000000000E+00 0. -1.
        -11    1    3    3    0    0  0.43791176383E+03  0.49205177782E+03 -0.29487657503E+03  0.72168820100E+03  0.00000000000E+00 0.  1.
         22    1    1    2    0    0 -0.81671611397E+03 -0.10437522023E+04 -0.56320568146E+03  0.14400154549E+04  0.00000000000E+00 0.  1.
<mgrwt>
<rscale>  0 0.26533597E+04</rscale>
<asrwt>0</asrwt>
<pdfrwt beam="1">  1        2 0.13447799E+00 0.26533597E+04</pdfrwt>
<pdfrwt beam="2">  1       -2 0.30978070E+00 0.26533597E+04</pdfrwt>
<totfact> 0.74457067E-01</totfact>
</mgrwt>
</event>
<event>
 6    1  0.1817112E-005  0.7371677E+03  0.7818608E-02  0.9655700E-01
         -2   -1    0    0    0  501 -0.00000000000E+00  0.00000000000E+00  0.12184915539E+03  0.12184915539E+03  0.00000000000E+00 0.  1.
          2   -1    0    0  501    0  0.00000000000E+00 -0.00000000000E+00 -0.11149363641E+04  0.11149363641E+04  0.00000000000E+00 0. -1.
         23    2    1    2    0    0 -0.28673852978E+03  0.22129408433E+03 -0.46899185723E+03  0.59970939085E+03  0.92238468729E+02 0.  0.
         13    1    3    3    0    0 -0.77226516510E+02  0.11567603799E+03 -0.16992786730E+03  0.21959134933E+03  0.00000000000E+00 0.  1.
        -13    1    3    3    0    0 -0.20951201327E+03  0.10561804634E+03 -0.29906398993E+03  0.38011804152E+03  0.00000000000E+00 0. -1.
         22    1    1    2    0    0  0.28673852978E+03 -0.22129408433E+03 -0.52409535144E+03  0.63707612859E+03  0.00000000000E+00 0.  1.
<mgrwt>
<rscale>  0 0.73716770E+03</rscale>
<asrwt>0</asrwt>
<pdfrwt beam="1">  1        2 0.17152868E+00 0.73716770E+03</pdfrwt>
<pdfrwt beam="2">  1       -2 0.18746023E-01 0.73716770E+03</pdfrwt>
<totfact> 0.51342895E+02</totfact>
</mgrwt>
</event>
<event>
 6    1  0.1817112E-005  0.7668293E+03  0.7818608E-02  0.9609312E-01
          2   -1    0    0  501    0  0.00000000000E+00  0.00000000000E+00  0.26371677036E+04  0.26371677036E+04  0.00000000000E+00 0.  1.
         -2   -1    0    0    0  501 -0.00000000000E+00 -0.00000000000E+00 -0.55744198900E+02  0.55744198900E+02  0.00000000000E+00 0. -1.
         23    2    1    2    0    0 -0.12930383059E+03  0.34339140171E+03  0.16279529785E+04  0.16712744034E+04  0.91049962373E+02 0.  0.
         13    1    3    3    0    0  0.12339217677E+01  0.48594496090E+02  0.34615738044E+03  0.34955382939E+03  0.00000000000E+00 0.  1.
        -13    1    3    3    0    0 -0.13053775236E+03  0.29479690562E+03  0.12817955981E+04  0.13217205740E+04  0.00000000000E+00 0. -1.
         22    1    1    2    0    0  0.12930383059E+03 -0.34339140171E+03  0.95347052618E+03  0.10216374992E+04  0.00000000000E+00 0. -1.
<mgrwt>
<rscale>  0 0.76682932E+03</rscale>
<asrwt>0</asrwt>
<pdfrwt beam="1">  1        2 0.40571801E+00 0.76682932E+03</pdfrwt>
<pdfrwt beam="2">  1       -2 0.85760327E-02 0.76682932E+03</pdfrwt>
<totfact> 0.26502337E+02</totfact>
</mgrwt>
</event>
<event>
 6    1  0.1817112E-005  0.2086446E+04  0.7818608E-02  0.8567238E-01
         -2   -1    0    0    0  501 -0.00000000000E+00  0.00000000000E+00  0.88586477644E+03  0.88586477644E+03  0.00000000000E+00 0.  1.
          2   -1    0    0  501    0  0.00000000000E+00 -0.00000000000E+00 -0.12285331146E+04  0.12285331146E+04  0.00000000000E+00 0. -1.
         23    2    1    2    0    0 -0.26884124093E+03 -0.75134489478E+02 -0.11882158497E+04  0.12239646265E+04  0.91168510530E+02 0.  0.
         13    1    3    3    0    0 -0.15061554441E+03 -0.19177109177E+02 -0.46939038843E+03  0.49333572796E+03  0.00000000000E+00 0. -1.
        -13    1    3    3    0    0 -0.11822569652E+03 -0.55957380301E+02 -0.71882546124E+03  0.73062889859E+03  0.00000000000E+00 0.  1.
         22    1    1    2    0    0  0.26884124093E+03  0.75134489478E+02  0.84554751149E+03  0.89043326450E+03  0.00000000000E+00 0.  1.
<mgrwt>
<rscale>  0 0.20864460E+04</rscale>
<asrwt>0</asrwt>
<pdfrwt beam="1">  1        2 0.18900509E+00 0.20864460E+04</pdfrwt>
<pdfrwt beam="2">  1       -2 0.13628689E+00 0.20864460E+04</pdfrwt>
<totfact> 0.64707363E+00</totfact>
</mgrwt>
</event>
<event>
 6    1  0.1817112E-005  0.6810746E+03  0.7818608E-02  0.9750156E-01
          2   -1    0    0  501    0  0.00000000000E+00  0.00000000000E+00  0.91173926945E+03  0.91173926945E+03  0.00000000000E+00 0. -1.
         -2   -1    0    0    0  501 -0.00000000000E+00 -0.00000000000E+00 -0.12719169171E+03  0.12719169171E+03  0.00000000000E+00 0.  1.
         23    2    1    2    0    0 -0.12946514301E+03  0.30780473213E+03  0.36994247401E+03  0.50657547052E+03  0.90864167168E+02 0.  0.
         13    1    3    3    0    0  0.31076891481E+01  0.44276268466E+02  0.87771238501E+02  0.98355660687E+02  0.00000000000E+00 0.  1.
        -13    1    3    3    0    0 -0.13257283216E+03  0.26352846367E+03  0.28217123551E+03  0.40821980983E+03  0.00000000000E+00 0. -1.
         22    1    1    2    0    0  0.12946514301E+03 -0.30780473213E+03  0.41460510373E+03  0.53235549064E+03  0.00000000000E+00 0.  1.
<mgrwt>
<rscale>  0 0.68107462E+03</rscale>
<asrwt>0</asrwt>
<pdfrwt beam="1">  1        2 0.14026758E+00 0.68107462E+03</pdfrwt>
<pdfrwt beam="2">  1       -2 0.19567953E-01 0.68107462E+03</pdfrwt>
<totfact> 0.64254139E+02</totfact>
</mgrwt>
</event>
<event>
 6    1  0.3352429E-005  0.3446073E+04  0.7818608E-02  0.8126690E-01
          2   -1    0    0  501    0  0.00000000000E+00  0.00000000000E+00  0.17558831966E+04  0.17558831966E+04  0.00000000000E+00 0. -1.
         -2   -1    0    0    0  501 -0.00000000000E+00 -0.00000000000E+00 -0.16908039729E+04  0.16908039729E+04  0.00000000000E+00 0.  1.
         23    2    1    2    0    0  0.44810070435E+03  0.16605679467E+04  0.10919260904E+03  0.17261563975E+04  0.97019254835E+02 0.  0.
         13    1    3    3    0    0  0.19432439453E+03  0.86590336111E+03  0.26080572699E+02  0.88782362965E+03  0.00000000000E+00 0. -1.
        -13    1    3    3    0    0  0.25377630981E+03  0.79466458560E+03  0.83112036344E+02  0.83833276783E+03  0.00000000000E+00 0.  1.
         22    1    1    2    0    0 -0.44810070435E+03 -0.16605679467E+04 -0.44113385312E+02  0.17205307721E+04  0.00000000000E+00 0. -1.
<mgrwt>
<rscale>  0 0.34460727E+04</rscale>
<asrwt>0</asrwt>
<pdfrwt beam="1">  1        2 0.27013588E+00 0.34460727E+04</pdfrwt>
<pdfrwt beam="2">  1       -2 0.26012369E+00 0.34460727E+04</pdfrwt>
<totfact> 0.41968004E-01</totfact>
</mgrwt>
</event>
<event>
 6    1  0.1817112E-005  0.2393548E+04  0.7818608E-02  0.8441923E-01
          2   -1    0    0  501    0  0.00000000000E+00  0.00000000000E+00  0.22131684362E+04  0.22131684362E+04  0.00000000000E+00 0. -1.
         -2   -1    0    0    0  501 -0.00000000000E+00 -0.00000000000E+00 -0.64715712045E+03  0.64715712045E+03  0.00000000000E+00 0.  1.
         23    2    1    2    0    0  0.78399701025E+03  0.83810462763E+03  0.11822091843E+04  0.16502120268E+04  0.92252366637E+02 0.  0.
         11    1    3    3    0    0  0.40248414208E+03  0.36442262344E+03  0.54342897576E+03  0.76818772757E+03  0.00000000000E+00 0.  1.
        -11    1    3    3    0    0  0.38151286817E+03  0.47368200419E+03  0.63878020855E+03  0.88202429928E+03  0.00000000000E+00 0. -1.
         22    1    1    2    0    0 -0.78399701025E+03 -0.83810462763E+03  0.38380213145E+03  0.12101135298E+04  0.00000000000E+00 0.  1.
<mgrwt>
<rscale>  0 0.23935478E+04</rscale>
<asrwt>0</asrwt>
<pdfrwt beam="1">  1        2 0.34048745E+00 0.23935478E+04</pdfrwt>
<pdfrwt beam="2">  1       -2 0.99562635E-01 0.23935478E+04</pdfrwt>
<totfact> 0.38114817E+00</totfact>
</mgrwt>
</event>
<event>
 6    1  0.1817112E-005  0.4058198E+04  0.7818608E-02  0.7992908E-01
         -2   -1    0    0    0  501 -0.00000000000E+00  0.00000000000E+00  0.16324297893E+04  0.16324297893E+04  0.00000000000E+00 0.  1.
          2   -1    0    0  501    0  0.00000000000E+00 -0.00000000000E+00 -0.25221563116E+04  0.25221563116E+04  0.00000000000E+00 0. -1.
         23    2    1    2    0    0  0.15812000562E+04 -0.33040303615E+03  0.81041057808E+03  0.18094153301E+04  0.88649578992E+02 0.  0.
         13    1    3    3    0    0  0.31145213536E+03 -0.60885367609E+02  0.12077723030E+03  0.33955353034E+03  0.00000000000E+00 0. -1.
        -13    1    3    3    0    0  0.12697479208E+04 -0.26951766855E+03  0.68963334778E+03  0.14698617998E+04  0.00000000000E+00 0.  1.
         22    1    1    2    0    0 -0.15812000562E+04  0.33040303615E+03 -0.17001371004E+04  0.23451707708E+04  0.00000000000E+00 0. -1.
<mgrwt>
<rscale>  0 0.40581982E+04</rscale>
<asrwt>0</asrwt>
<pdfrwt beam="1">  1        2 0.38802405E+00 0.40581982E+04</pdfrwt>
<pdfrwt beam="2">  1       -2 0.25114305E+00 0.40581982E+04</pdfrwt>
<totfact> 0.16777935E-01</totfact>
</mgrwt>
</event>
<event>
 6    1  0.1817112E-005  0.1088421E+04  0.7818608E-02  0.9216552E-01
          2   -1    0    0  501    0  0.00000000000E+00  0.00000000000E+00  0.84856609393E+03  0.84856609393E+03  0.00000000000E+00 0. -1.
         -2   -1    0    0    0  501 -0.00000000000E+00 -0.00000000000E+00 -0.34901809817E+03  0.34901809817E+03  0.00000000000E+00 0.  1.
         23    2    1    2    0    0 -0.14371210117E+03  0.36485227187E+03 -0.15813924209E+03  0.43186697854E+03  0.87924507131E+02 0.  0.
         11    1    3    3    0    0 -0.12394745085E+03  0.20915481818E+03 -0.11590082289E+03  0.26933568142E+03  0.00000000000E+00 0. -1.
        -11    1    3    3    0    0 -0.19764650320E+02  0.15569745368E+03 -0.42238419210E+02  0.16253129712E+03  0.00000000000E+00 0.  1.
         22    1    1    2    0    0  0.14371210117E+03 -0.36485227187E+03  0.65768723786E+03  0.76571721356E+03  0.00000000000E+00 0. -1.
<mgrwt>
<rscale>  0 0.10884207E+04</rscale>
<asrwt>0</asrwt>
<pdfrwt beam="1">  1        2 0.13054863E+00 0.10884207E+04</pdfrwt>
<pdfrwt beam="2">  1       -2 0.53695092E-01 0.10884207E+04</pdfrwt>
<totfact> 0.10329836E+02</totfact>
</mgrwt>
</event>
<event>
 6    1  0.1817112E-005  0.2183294E+04  0.7818608E-02  0.8525414E-01
         -2   -1    0    0    0  501 -0.00000000000E+00  0.00000000000E+00  0.57307020417E+03  0.57307020417E+03  0.00000000000E+00 0.  1.
          2   -1    0    0  501    0  0.00000000000E+00 -0.00000000000E+00 -0.20794883862E+04  0.20794883862E+04  0.00000000000E+00 0. -1.
         23    2    1    2    0    0 -0.83431422324E+03  0.47690523338E+03 -0.13251312065E+03  0.97591493638E+03  0.10644910134E+03 0.  0.
         13    1    3    3    0    0 -0.20678766775E+03  0.67156025930E+02 -0.30545077834E+02  0.21955426011E+03  0.00000000000E+00 0. -1.
        -13    1    3    3    0    0 -0.62752655549E+03  0.40974920745E+03 -0.10196804282E+03  0.75636067628E+03  0.00000000000E+00 0.  1.
         22    1    1    2    0    0  0.83431422324E+03 -0.47690523338E+03 -0.13739050614E+04  0.16766436540E+04  0.00000000000E+00 0. -1.
<mgrwt>
<rscale>  0 0.21832937E+04</rscale>
<asrwt>0</asrwt>
<pdfrwt beam="1">  1        2 0.31992130E+00 0.21832937E+04</pdfrwt>
<pdfrwt beam="2">  1       -2 0.88164645E-01 0.21832937E+04</pdfrwt>
<totfact> 0.61187627E+00</totfact>
</mgrwt>
</event>
<event>
 6    1  0.1817112E-005  0.4030842E+04  0.7818608E-02  0.7998353E-01
          2   -1    0    0  501    0  0.00000000000E+00  0.00000000000E+00  0.31730156218E+04  0.31730156218E+04  0.00000000000E+00 0. -1.
         -2   -1    0    0    0  501 -0.00000000000E+00 -0.00000000000E+00 -0.12801458337E+04  0.12801458337E+04  0.00000000000E+00 0.  1.
         23    2    1    2    0    0  0.16677170747E+04 -0.20168869843E+03  0.21750912062E+04  0.27497509056E+04  0.90275773983E+02 0.  0.
         11    1    3    3    0    0  0.35123163529E+03 -0.77220376540E+02  0.44343055165E+03  0.57092670486E+03  0.00000000000E+00 0.  1.
        -11    1    3    3    0    0  0.13164854394E+04 -0.12446832189E+03  0.17316606545E+04  0.21788242008E+04  0.00000000000E+00 0. -1.
         22    1    1    2    0    0 -0.16677170747E+04  0.20168869843E+03 -0.28222141807E+03  0.17034105498E+04  0.00000000000E+00 0.  1.
<mgrwt>
<rscale>  0 0.40308425E+04</rscale>
<asrwt>0</asrwt>
<pdfrwt beam="1">  1        2 0.48815625E+00 0.40308425E+04</pdfrwt>
<pdfrwt beam="2">  1       -2 0.19694551E+00 0.40308425E+04</pdfrwt>
<totfact> 0.14789505E-01</totfact>
</mgrwt>
</event>
<event>
 6    1  0.1817112E-005  0.5396014E+03  0.7818608E-02  0.1003930E+00
          2   -1    0    0  501    0  0.00000000000E+00  0.00000000000E+00  0.12671894832E+04  0.12671894832E+04  0.00000000000E+00 0.  1.
         -2   -1    0    0    0  501 -0.00000000000E+00 -0.00000000000E+00 -0.57443984110E+02  0.57443984110E+02  0.00000000000E+00 0. -1.
         23    2    1    2    0    0 -0.23206548195E+03  0.13300943017E+02  0.91989257726E+03  0.95308802016E+03  0.90239223675E+02 0.  0.
         11    1    3    3    0    0 -0.19793235894E+03  0.40204610263E+02  0.81266016653E+03  0.83738293252E+03  0.00000000000E+00 0. -1.
        -11    1    3    3    0    0 -0.34133123003E+02 -0.26903667246E+02  0.10723241073E+03  0.11570508765E+03  0.00000000000E+00 0.  1.
         22    1    1    2    0    0  0.23206548195E+03 -0.13300943017E+02  0.28985292181E+03  0.37154544712E+03  0.00000000000E+00 0. -1.
<mgrwt>
<rscale>  0 0.53960138E+03</rscale>
<asrwt>0</asrwt>
<pdfrwt beam="1">  1        2 0.19495221E+00 0.53960138E+03</pdfrwt>
<pdfrwt beam="2">  1       -2 0.88375370E-02 0.53960138E+03</pdfrwt>
<totfact> 0.14684508E+03</totfact>
</mgrwt>
</event>
<event>
 6    1  0.1817112E-005  0.1532713E+04  0.7818608E-02  0.8862986E-01
         -2   -1    0    0    0  501 -0.00000000000E+00  0.00000000000E+00  0.42885964341E+03  0.42885964341E+03  0.00000000000E+00 0.  1.
          2   -1    0    0  501    0  0.00000000000E+00 -0.00000000000E+00 -0.13694511933E+04  0.13694511933E+04  0.00000000000E+00 0. -1.
         23    2    1    2    0    0 -0.38338019541E+03  0.37030515514E+03  0.16962011232E+03  0.56677674580E+03  0.91425461020E+02 0.  0.
         13    1    3    3    0    0 -0.22163607698E+03  0.27240579389E+03  0.97956955533E+02  0.36458611095E+03  0.00000000000E+00 0.  1.
        -13    1    3    3    0    0 -0.16174411843E+03  0.97899361256E+02  0.71663156785E+02  0.20219063485E+03  0.00000000000E+00 0. -1.
         22    1    1    2    0    0  0.38338019541E+03 -0.37030515514E+03 -0.11102116622E+04  0.12315340909E+04  0.00000000000E+00 0. -1.
<mgrwt>
<rscale>  0 0.15327131E+04</rscale>
<asrwt>0</asrwt>
<pdfrwt beam="1">  1        2 0.21068480E+00 0.15327131E+04</pdfrwt>
<pdfrwt beam="2">  1       -2 0.65978407E-01 0.15327131E+04</pdfrwt>
<totfact> 0.30698172E+01</totfact>
</mgrwt>
</event>
<event>
 6    1  0.1817112E-005  0.2006967E+04  0.7818608E-02  0.8603370E-01
         -2   -1    0    0    0  501 -0.00000000000E+00  0.00000000000E+00  0.31282940104E+03  0.31282940104E+03  0.00000000000E+00 0.  1.
          2   -1    0    0  501    0  0.00000000000E+00 -0.00000000000E+00 -0.32189391562E+04  0.32189391562E+04  0.00000000000E+00 0. -1.
         23    2    1    2    0    0  0.48073807484E+03 -0.54359069384E+03 -0.24138937238E+03  0.77000559541E+03  0.89665204122E+02 0.  0.
         13    1    3    3    0    0  0.21264781558E+03 -0.26258677681E+03 -0.67921887925E+02  0.34465097082E+03  0.00000000000E+00 0.  1.
        -13    1    3    3    0    0  0.26809025926E+03 -0.28100391703E+03 -0.17346748446E+03  0.42535462459E+03  0.00000000000E+00 0. -1.
         22    1    1    2    0    0 -0.48073807484E+03  0.54359069384E+03 -0.26647203828E+04  0.27617629618E+04  0.00000000000E+00 0. -1.
<mgrwt>
<rscale>  0 0.20069667E+04</rscale>
<asrwt>0</asrwt>
<pdfrwt beam="1">  1        2 0.49522141E+00 0.20069667E+04</pdfrwt>
<pdfrwt beam="2">  1       -2 0.48127600E-01 0.20069667E+04</pdfrwt>
<totfact> 0.48033204E+00</totfact>
</mgrwt>
</event>
<event>
 6    1  0.1817112E-005  0.2499009E+04  0.7818608E-02  0.8403338E-01
         -2   -1    0    0    0  501 -0.00000000000E+00  0.00000000000E+00  0.74267455619E+03  0.74267455619E+03  0.00000000000E+00 0.  1.
          2   -1    0    0  501    0  0.00000000000E+00 -0.00000000000E+00 -0.21022156578E+04  0.21022156578E+04  0.00000000000E+00 0. -1.
         23    2    1    2    0    0 -0.12446593035E+04 -0.25787190233E+02 -0.58352968310E+03  0.13779084545E+04  0.91011302297E+02 0.  0.
         11    1    3    3    0    0 -0.60802687265E+03  0.92520545768E+01 -0.24083375682E+03  0.65405135639E+03  0.00000000000E+00 0.  1.
        -11    1    3    3    0    0 -0.63663243082E+03 -0.35039244810E+02 -0.34269592628E+03  0.72385709815E+03  0.00000000000E+00 0. -1.
         22    1    1    2    0    0  0.12446593035E+04  0.25787190233E+02 -0.77601141848E+03  0.14669817594E+04  0.00000000000E+00 0.  1.
<mgrwt>
<rscale>  0 0.24990095E+04</rscale>
<asrwt>0</asrwt>
<pdfrwt beam="1">  1        2 0.32341779E+00 0.24990095E+04</pdfrwt>
<pdfrwt beam="2">  1       -2 0.11425763E+00 0.24990095E+04</pdfrwt>
<totfact> 0.31304695E+00</totfact>
</mgrwt>
</event>
<event>
 6    1  0.1817112E-005  0.4088883E+04  0.7818608E-02  0.7986852E-01
          2   -1    0    0  501    0  0.00000000000E+00  0.00000000000E+00  0.28938479273E+04  0.28938479273E+04  0.00000000000E+00 0. -1.
         -2   -1    0    0    0  501 -0.00000000000E+00 -0.00000000000E+00 -0.14443543508E+04  0.14443543508E+04  0.00000000000E+00 0.  1.
         23    2    1    2    0    0 -0.55908500278E+03  0.30732997630E+03 -0.13344523555E+04  0.14820890614E+04  0.93793082077E+02 0.  0.
         13    1    3    3    0    0 -0.47426903255E+03  0.29554994303E+03 -0.11741322598E+04  0.13003335909E+04  0.00000000000E+00 0. -1.
        -13    1    3    3    0    0 -0.84815970231E+02  0.11780033261E+02 -0.16032009567E+03  0.18175547052E+03  0.00000000000E+00 0.  1.
         22    1    1    2    0    0  0.55908500278E+03 -0.30732997630E+03  0.27839459319E+04  0.28561132167E+04  0.00000000000E+00 0. -1.
<mgrwt>
<rscale>  0 0.40888834E+04</rscale>
<asrwt>0</asrwt>
<pdfrwt beam="1">  1        2 0.44520737E+00 0.40888834E+04</pdfrwt>
<pdfrwt beam="2">  1       -2 0.22220836E+00 0.40888834E+04</pdfrwt>
<totfact> 0.15185970E-01</totfact>
</mgrwt>
</event>
<event>
 6    1  0.1817112E-005  0.2671273E+04  0.7818608E-02  0.8344386E-01
          2   -1    0    0  501    0  0.00000000000E+00  0.00000000000E+00  0.22475803149E+04  0.22475803149E+04  0.00000000000E+00 0. -1.
         -2   -1    0    0    0  501 -0.00000000000E+00 -0.00000000000E+00 -0.79370908995E+03  0.79370908995E+03  0.00000000000E+00 0.  1.
         23    2    1    2    0    0  0.78136585393E+03 -0.20750679162E+03  0.19360377662E+04  0.20999731775E+04  0.89741005830E+02 0.  0.
         11    1    3    3    0    0  0.36784348435E+03 -0.52621308705E+02  0.85879691250E+03  0.93574033152E+03  0.00000000000E+00 0.  1.
        -11    1    3    3    0    0  0.41352236959E+03 -0.15488548291E+03  0.10772408537E+04  0.11642328460E+04  0.00000000000E+00 0. -1.
         22    1    1    2    0    0 -0.78136585393E+03  0.20750679162E+03 -0.48216654124E+03  0.94131622729E+03  0.00000000000E+00 0. -1.
<mgrwt>
<rscale>  0 0.26712730E+04</rscale>
<asrwt>0</asrwt>
<pdfrwt beam="1">  1        2 0.34578159E+00 0.26712730E+04</pdfrwt>
<pdfrwt beam="2">  1       -2 0.12210909E+00 0.26712730E+04</pdfrwt>
<totfact> 0.21701416E+00</totfact>
</mgrwt>
</event>
<event>
 6    1  0.1817112E-005  0.2668213E+04  0.7818608E-02  0.8345393E-01
          2   -1    0    0  501    0  0.00000000000E+00  0.00000000000E+00  0.16240301155E+04  0.16240301155E+04  0.00000000000E+00 0. -1.
         -2   -1    0    0    0  501 -0.00000000000E+00 -0.00000000000E+00 -0.10959406521E+04  0.10959406521E+04  0.00000000000E+00 0.  1.
         23    2    1    2    0    0 -0.29711657451E+03 -0.88965757598E+03 -0.70049382511E+03  0.11742716512E+04  0.91942647934E+02 0.  0.
         13    1    3    3    0    0 -0.75769242817E+02 -0.36259754043E+03 -0.25935371527E+03  0.45219719604E+03  0.00000000000E+00 0.  1.
        -13    1    3    3    0    0 -0.22134733170E+03 -0.52706003555E+03 -0.44114010983E+03  0.72207445519E+03  0.00000000000E+00 0. -1.
         22    1    1    2    0    0  0.29711657451E+03  0.88965757598E+03  0.12285832885E+04  0.15456991163E+04  0.00000000000E+00 0. -1.
<mgrwt>
<rscale>  0 0.26682134E+04</rscale>
<asrwt>0</asrwt>
<pdfrwt beam="1">  1        2 0.24985079E+00 0.26682134E+04</pdfrwt>
<pdfrwt beam="2">  1       -2 0.16860625E+00 0.26682134E+04</pdfrwt>
<totfact> 0.20742389E+00</totfact>
</mgrwt>
</event>
<event>
 6    1  0.1817112E-005  0.2873391E+04  0.7818608E-02  0.8280839E-01
         -2   -1    0    0    0  501 -0.00000000000E+00  0.00000000000E+00  0.10502436562E+04  0.10502436562E+04  0.00000000000E+00 0.  1.
          2   -1    0    0  501    0  0.00000000000E+00 -0.00000000000E+00 -0.19653470452E+04  0.19653470452E+04  0.00000000000E+00 0. -1.
         23    2    1    2    0    0 -0.73417828020E+02  0.11700083465E+04  0.41113605469E+03  0.12455000907E+04  0.89038823815E+02 0.  0.
         11    1    3    3    0    0 -0.33885285858E+02  0.91399049716E+03  0.28973965674E+03  0.95941435792E+03  0.00000000000E+00 0.  1.
        -11    1    3    3    0    0 -0.39532542161E+02  0.25601784932E+03  0.12139639796E+03  0.28608573277E+03  0.00000000000E+00 0. -1.
         22    1    1    2    0    0  0.73417828020E+02 -0.11700083465E+04 -0.13262394436E+04  0.17700906107E+04  0.00000000000E+00 0. -1.
<mgrwt>
<rscale>  0 0.28733905E+04</rscale>
<asrwt>0</asrwt>
<pdfrwt beam="1">  1        2 0.30236108E+00 0.28733905E+04</pdfrwt>
<pdfrwt beam="2">  1       -2 0.16157595E+00 0.28733905E+04</pdfrwt>
<totfact> 0.14816756E+00</totfact>
</mgrwt>
</event>
<event>
 6    1  0.1817112E-005  0.1511839E+04  0.7818608E-02  0.8876618E-01
          2   -1    0    0  501    0  0.00000000000E+00  0.00000000000E+00  0.10194494137E+04  0.10194494137E+04  0.00000000000E+00 0. -1.
         -2   -1    0    0    0  501 -0.00000000000E+00 -0.00000000000E+00 -0.56051286179E+03  0.56051286179E+03  0.00000000000E+00 0.  1.
         23    2    1    2    0    0  0.36503962850E+03  0.37280901824E+03 -0.33632697605E+03  0.62881319497E+03  0.10024821643E+03 0.  0.
         13    1    3    3    0    0  0.32733947979E+03  0.33479475850E+03 -0.33414200981E+03  0.57522999580E+03  0.00000000000E+00 0.  1.
        -13    1    3    3    0    0  0.37700148712E+02  0.38014259734E+02 -0.21849662427E+01  0.53583199172E+02  0.00000000000E+00 0. -1.
         22    1    1    2    0    0 -0.36503962850E+03 -0.37280901824E+03  0.79526352797E+03  0.95114908052E+03  0.00000000000E+00 0. -1.
<mgrwt>
<rscale>  0 0.15118393E+04</rscale>
<asrwt>0</asrwt>
<pdfrwt beam="1">  1        2 0.15683837E+00 0.15118393E+04</pdfrwt>
<pdfrwt beam="2">  1       -2 0.86232748E-01 0.15118393E+04</pdfrwt>
<totfact> 0.27554716E+01</totfact>
</mgrwt>
</event>
<event>
 6    1  0.1817112E-005  0.3423543E+04  0.7818608E-02  0.8132152E-01
          2   -1    0    0  501    0  0.00000000000E+00  0.00000000000E+00  0.15071098525E+04  0.15071098525E+04  0.00000000000E+00 0. -1.
         -2   -1    0    0    0  501 -0.00000000000E+00 -0.00000000000E+00 -0.19442260066E+04  0.19442260066E+04  0.00000000000E+00 0.  1.
         23    2    1    2    0    0  0.92738988744E+02  0.16614954762E+04 -0.61789569747E+03  0.17774634085E+04  0.91724251352E+02 0.  0.
         13    1    3    3    0    0  0.68012432894E+02  0.49461352961E+03 -0.17266546977E+03  0.52828174221E+03  0.00000000000E+00 0.  1.
        -13    1    3    3    0    0  0.24726555850E+02  0.11668819466E+04 -0.44523022770E+03  0.12491816663E+04  0.00000000000E+00 0. -1.
         22    1    1    2    0    0 -0.92738988744E+02 -0.16614954762E+04  0.18077954337E+03  0.16738724506E+04  0.00000000000E+00 0.  1.
<mgrwt>
<rscale>  0 0.34235433E+04</rscale>
<asrwt>0</asrwt>
<pdfrwt beam="1">  1        2 0.23186305E+00 0.34235433E+04</pdfrwt>
<pdfrwt beam="2">  1       -2 0.29911169E+00 0.34235433E+04</pdfrwt>
<totfact> 0.33465632E-01</totfact>
</mgrwt>
</event>
<event>
 6    1  0.1817112E-005  0.2188849E+04  0.7818608E-02  0.8523084E-01
          1   -1    0    0  501    0  0.00000000000E+00  0.00000000000E+00  0.26072121036E+04  0.26072121036E+04  0.00000000000E+00 0. -1.
         -1   -1    0    0    0  501 -0.00000000000E+00 -0.00000000000E+00 -0.45940437627E+03  0.45940437627E+03  0.00000000000E+00 0.  1.
         23    2    1    2    0    0 -0.71159081855E+03  0.38543549502E+03  0.21040333915E+04  0.22561609251E+04  0.91561964882E+02 0.  0.
         13    1    3    3    0    0 -0.56378656993E+03  0.26809155544E+03  0.16701524864E+04  0.17830136584E+04  0.00000000000E+00 0. -1.
        -13    1    3    3    0    0 -0.14780424862E+03  0.11734393957E+03  0.43388090513E+03  0.47314726661E+03  0.00000000000E+00 0.  1.
         22    1    1    2    0    0  0.71159081855E+03 -0.38543549502E+03  0.43774335851E+02  0.81045555482E+03  0.00000000000E+00 0.  1.
<mgrwt>
<rscale>  0 0.21888487E+04</rscale>
<asrwt>0</asrwt>
<pdfrwt beam="1">  1        1 0.40110954E+00 0.21888487E+04</pdfrwt>
<pdfrwt beam="2">  1       -1 0.70677598E-01 0.21888487E+04</pdfrwt>
<totfact> 0.21056757E+00</totfact>
</mgrwt>
</event>
<event>
 6    1  0.1817112E-005  0.3669701E+04  0.7818608E-02  0.8074710E-01
          2   -1    0    0  501    0  0.00000000000E+00  0.00000000000E+00  0.19503728071E+04  0.19503728071E+04  0.00000000000E+00 0. -1.
         -2   -1    0    0    0  501 -0.00000000000E+00 -0.00000000000E+00 -0.17261710067E+04  0.17261710067E+04  0.00000000000E+00 0.  1.
         23    2    1    2    0    0 -0.14557860877E+04 -0.10559715601E+04 -0.24643666587E+03  0.18175414912E+04  0.91307026245E+02 0.  0.
         11    1    3    3    0    0 -0.10498590295E+04 -0.77143563266E+03 -0.13798809682E+03  0.13100983292E+04  0.00000000000E+00 0. -1.
        -11    1    3    3    0    0 -0.40592705822E+03 -0.28453592746E+03 -0.10844856904E+03  0.50744316208E+03  0.00000000000E+00 0.  1.
         22    1    1    2    0    0  0.14557860877E+04  0.10559715601E+04  0.47063846625E+03  0.18590023225E+04  0.00000000000E+00 0.  1.
<mgrwt>
<rscale>  0 0.36697013E+04</rscale>
<asrwt>0</asrwt>
<pdfrwt beam="1">  1        2 0.30005735E+00 0.36697013E+04</pdfrwt>
<pdfrwt beam="2">  1       -2 0.26556477E+00 0.36697013E+04</pdfrwt>
<totfact> 0.29767113E-01</totfact>
</mgrwt>
</event>
<event>
 6    1  0.1817112E-005  0.2443658E+04  0.7818608E-02  0.8423337E-01
         -2   -1    0    0    0  501 -0.00000000000E+00  0.00000000000E+00  0.10224080962E+04  0.10224080962E+04  0.00000000000E+00 0.  1.
          2   -1    0    0  501    0  0.00000000000E+00 -0.00000000000E+00 -0.14601469518E+04  0.14601469518E+04  0.00000000000E+00 0. -1.
         23    2    1    2    0    0  0.47294586889E+03  0.84700584851E+02  0.92049149883E+03  0.10418463059E+04  0.85364757056E+02 0.  0.
         13    1    3    3    0    0  0.41006390208E+03  0.72403015502E+02  0.72441747215E+03  0.83556883283E+03  0.00000000000E+00 0. -1.
        -13    1    3    3    0    0  0.62881966813E+02  0.12297569349E+02  0.19607402668E+03  0.20627747308E+03  0.00000000000E+00 0.  1.
         22    1    1    2    0    0 -0.47294586889E+03 -0.84700584851E+02 -0.13582303544E+04  0.14407087421E+04  0.00000000000E+00 0. -1.
<mgrwt>
<rscale>  0 0.24436580E+04</rscale>
<asrwt>0</asrwt>
<pdfrwt beam="1">  1        2 0.22463799E+00 0.24436580E+04</pdfrwt>
<pdfrwt beam="2">  1       -2 0.15729355E+00 0.24436580E+04</pdfrwt>
<totfact> 0.31616055E+00</totfact>
</mgrwt>
</event>
<event>
 6    1  0.1817112E-005  0.3443398E+04  0.7818608E-02  0.8127336E-01
          2   -1    0    0  501    0  0.00000000000E+00  0.00000000000E+00  0.21057743243E+04  0.21057743243E+04  0.00000000000E+00 0. -1.
         -2   -1    0    0    0  501 -0.00000000000E+00 -0.00000000000E+00 -0.14076757608E+04  0.14076757608E+04  0.00000000000E+00 0.  1.
         23    2    1    2    0    0  0.12200722008E+04  0.96303343288E+03 -0.40334260443E+03  0.16084088219E+04  0.91017106295E+02 0.  0.
         13    1    3    3    0    0  0.32471018848E+03  0.20676012035E+03 -0.94281344238E+02  0.39632742239E+03  0.00000000000E+00 0. -1.
        -13    1    3    3    0    0  0.89536201234E+03  0.75627331253E+03 -0.30906126020E+03  0.12120813995E+04  0.00000000000E+00 0.  1.
         22    1    1    2    0    0 -0.12200722008E+04 -0.96303343288E+03  0.11014411680E+04  0.19050412632E+04  0.00000000000E+00 0. -1.
<mgrwt>
<rscale>  0 0.34433980E+04</rscale>
<asrwt>0</asrwt>
<pdfrwt beam="1">  1        2 0.32396528E+00 0.34433980E+04</pdfrwt>
<pdfrwt beam="2">  1       -2 0.21656550E+00 0.34433980E+04</pdfrwt>
<totfact> 0.50042086E-01</totfact>
</mgrwt>
</event>
<event>
 6    1  0.1817112E-005  0.2832283E+04  0.7818608E-02  0.8293315E-01
          1   -1    0    0  501    0  0.00000000000E+00  0.00000000000E+00  0.19212343485E+04  0.19212343485E+04  0.00000000000E+00 0. -1.
         -1   -1    0    0    0  501 -0.00000000000E+00 -0.00000000000E+00 -0.10438374053E+04  0.10438374053E+04  0.00000000000E+00 0.  1.
         23    2    1    2    0    0  0.91203196070E+03  0.89954596664E+03  0.10674470657E+04  0.16700411393E+04  0.92784295729E+02 0.  0.
         11    1    3    3    0    0  0.57141207223E+03  0.49952539608E+03  0.63149922900E+03  0.98733411459E+03  0.00000000000E+00 0.  1.
        -11    1    3    3    0    0  0.34061988847E+03  0.40002057055E+03  0.43594783670E+03  0.68270702472E+03  0.00000000000E+00 0. -1.
         22    1    1    2    0    0 -0.91203196070E+03 -0.89954596664E+03 -0.19005012241E+03  0.12950306145E+04  0.00000000000E+00 0.  1.
<mgrwt>
<rscale>  0 0.28322827E+04</rscale>
<asrwt>0</asrwt>
<pdfrwt beam="1">  1        1 0.29557451E+00 0.28322827E+04</pdfrwt>
<pdfrwt beam="2">  1       -1 0.16059037E+00 0.28322827E+04</pdfrwt>
<totfact> 0.84160725E-01</totfact>
</mgrwt>
</event>
<event>
 6    1  0.2369777E-005  0.2288665E+04  0.7818608E-02  0.8482404E-01
          2   -1    0    0  501    0  0.00000000000E+00  0.00000000000E+00  0.17598355453E+04  0.17598355453E+04  0.00000000000E+00 0.  1.
         -2   -1    0    0    0  501 -0.00000000000E+00 -0.00000000000E+00 -0.74410209749E+03  0.74410209749E+03  0.00000000000E+00 0. -1.
         23    2    1    2    0    0  0.65326043767E+03  0.20871824574E+03  0.15083367796E+04  0.16595618094E+04  0.93557751833E+02 0.  0.
         11    1    3    3    0    0  0.21424210693E+03  0.27691667957E+02  0.51876083109E+03  0.56194244254E+03  0.00000000000E+00 0.  1.
        -11    1    3    3    0    0  0.43901833074E+03  0.18102657778E+03  0.98957594854E+03  0.10976193669E+04  0.00000000000E+00 0. -1.
         22    1    1    2    0    0 -0.65326043767E+03 -0.20871824574E+03 -0.49260333180E+03  0.84437583340E+03  0.00000000000E+00 0. -1.
<mgrwt>
<rscale>  0 0.22886654E+04</rscale>
<asrwt>0</asrwt>
<pdfrwt beam="1">  1        2 0.27074393E+00 0.22886654E+04</pdfrwt>
<pdfrwt beam="2">  1       -2 0.11447725E+00 0.22886654E+04</pdfrwt>
<totfact> 0.49151905E+00</totfact>
</mgrwt>
</event>
<event>
 6    1  0.1817112E-005  0.7360007E+03  0.7818608E-02  0.9657573E-01
          2   -1    0    0  501    0  0.00000000000E+00  0.00000000000E+00  0.18371225238E+04  0.18371225238E+04  0.00000000000E+00 0. -1.
         -2   -1    0    0    0  501 -0.00000000000E+00 -0.00000000000E+00 -0.73715419079E+02  0.73715419079E+02  0.00000000000E+00 0.  1.
         23    2    1    2    0    0 -0.14068439068E+03  0.17965231072E+03  0.16262431236E+04  0.16446030687E+04  0.89361657931E+02 0.  0.
         11    1    3    3    0    0 -0.66139286393E+02  0.83697632585E+02  0.46800160471E+03  0.48000541759E+03  0.00000000000E+00 0.  1.
        -11    1    3    3    0    0 -0.74545104290E+02  0.95954678131E+02  0.11582415189E+04  0.11645976511E+04  0.00000000000E+00 0. -1.
         22    1    1    2    0    0  0.14068439068E+03 -0.17965231072E+03  0.13716398113E+03  0.26623487421E+03  0.00000000000E+00 0.  1.
<mgrwt>
<rscale>  0 0.73600070E+03</rscale>
<asrwt>0</asrwt>
<pdfrwt beam="1">  1        2 0.28263420E+00 0.73600070E+03</pdfrwt>
<pdfrwt beam="2">  1       -2 0.11340835E-01 0.73600070E+03</pdfrwt>
<totfact> 0.46913267E+02</totfact>
</mgrwt>
</event>
<event>
 6    1  0.1817112E-005  0.1062212E+04  0.7818608E-02  0.9242826E-01
         -1   -1    0    0    0  501 -0.00000000000E+00  0.00000000000E+00  0.13096529982E+03  0.13096529982E+03  0.00000000000E+00 0.  1.
          1   -1    0    0  501    0  0.00000000000E+00 -0.00000000000E+00 -0.21538039204E+04  0.21538039204E+04  0.00000000000E+00 0. -1.
         23    2    1    2    0    0 -0.34679324699E+03  0.31978835539E+03 -0.51123733544E+03  0.70127037473E+03  0.88805275332E+02 0.  0.
         13    1    3    3    0    0 -0.17276078767E+03  0.19668992836E+03 -0.23071654151E+03  0.34894604195E+03  0.00000000000E+00 0. -1.
        -13    1    3    3    0    0 -0.17403245933E+03  0.12309842703E+03 -0.28052079393E+03  0.35232433277E+03  0.00000000000E+00 0.  1.
         22    1    1    2    0    0  0.34679324699E+03 -0.31978835539E+03 -0.15116012851E+04  0.15834988455E+04  0.00000000000E+00 0. -1.
<mgrwt>
<rscale>  0 0.10622120E+04</rscale>
<asrwt>0</asrwt>
<pdfrwt beam="1">  1        1 0.33135444E+00 0.10622120E+04</pdfrwt>
<pdfrwt beam="2">  1       -1 0.20148508E-01 0.10622120E+04</pdfrwt>
<totfact> 0.47517264E+01</totfact>
</mgrwt>
</event>
<event>
 6    1  0.1817112E-005  0.2648265E+04  0.7818608E-02  0.8351989E-01
         -2   -1    0    0    0  501 -0.00000000000E+00  0.00000000000E+00  0.10568201653E+04  0.10568201653E+04  0.00000000000E+00 0.  1.
          2   -1    0    0  501    0  0.00000000000E+00 -0.00000000000E+00 -0.16590586927E+04  0.16590586927E+04  0.00000000000E+00 0. -1.
         23    2    1    2    0    0 -0.27517554101E+03  0.11029107795E+03 -0.16236597104E+04  0.16523061369E+04  0.77194654461E+02 0.  0.
         13    1    3    3    0    0 -0.80528177303E+02  0.65628028686E+02 -0.66510721590E+03  0.67317117743E+03  0.00000000000E+00 0.  1.
        -13    1    3    3    0    0 -0.19464736371E+03  0.44663049260E+02 -0.95855249448E+03  0.97913495946E+03  0.00000000000E+00 0. -1.
         22    1    1    2    0    0  0.27517554101E+03 -0.11029107795E+03  0.10214211830E+04  0.10635727212E+04  0.00000000000E+00 0.  1.
<mgrwt>
<rscale>  0 0.26482649E+04</rscale>
<asrwt>0</asrwt>
<pdfrwt beam="1">  1        2 0.25523980E+00 0.26482649E+04</pdfrwt>
<pdfrwt beam="2">  1       -2 0.16258772E+00 0.26482649E+04</pdfrwt>
<totfact> 0.21957468E+00</totfact>
</mgrwt>
</event>
<event>
 6    1  0.1817112E-005  0.1629250E+04  0.7818608E-02  0.8802777E-01
          1   -1    0    0  501    0  0.00000000000E+00  0.00000000000E+00  0.18433928507E+04  0.18433928507E+04  0.00000000000E+00 0. -1.
         -1   -1    0    0    0  501 -0.00000000000E+00 -0.00000000000E+00 -0.35999589075E+03  0.35999589075E+03  0.00000000000E+00 0.  1.
         23    2    1    2    0    0 -0.73256278226E+03  0.11193047281E+03  0.29494236914E+03  0.80281708135E+03  0.91365224746E+02 0.  0.
         13    1    3    3    0    0 -0.30310434107E+03  0.66735208739E+02  0.16695306486E+03  0.35241900563E+03  0.00000000000E+00 0.  1.
        -13    1    3    3    0    0 -0.42945844119E+03  0.45195264073E+02  0.12798930429E+03  0.45039807572E+03  0.00000000000E+00 0. -1.
         22    1    1    2    0    0  0.73256278226E+03 -0.11193047281E+03  0.11884545909E+04  0.14005716602E+04  0.00000000000E+00 0. -1.
<mgrwt>
<rscale>  0 0.16292500E+04</rscale>
<asrwt>0</asrwt>
<pdfrwt beam="1">  1        1 0.28359889E+00 0.16292500E+04</pdfrwt>
<pdfrwt beam="2">  1       -1 0.55383984E-01 0.16292500E+04</pdfrwt>
<totfact> 0.12011995E+01</totfact>
</mgrwt>
</event>
<event>
 6    1  0.1817112E-005  0.1488018E+04  0.7818608E-02  0.8892460E-01
         -2   -1    0    0    0  501 -0.00000000000E+00  0.00000000000E+00  0.31718750354E+03  0.31718750354E+03  0.00000000000E+00 0.  1.
          2   -1    0    0  501    0  0.00000000000E+00 -0.00000000000E+00 -0.17451795912E+04  0.17451795912E+04  0.00000000000E+00 0. -1.
         23    2    1    2    0    0 -0.42301638426E+03  0.50381454110E+03 -0.11897882566E+04  0.13627150253E+04  0.92866524021E+02 0.  0.
         11    1    3    3    0    0 -0.18135550334E+02  0.53023891373E+02 -0.13688941837E+03  0.14791600354E+03  0.00000000000E+00 0. -1.
        -11    1    3    3    0    0 -0.40488083392E+03  0.45079064973E+03 -0.10528988383E+04  0.12147990217E+04  0.00000000000E+00 0.  1.
         22    1    1    2    0    0  0.42301638426E+03 -0.50381454110E+03 -0.23820383100E+03  0.69965206944E+03  0.00000000000E+00 0.  1.
<mgrwt>
<rscale>  0 0.14880177E+04</rscale>
<asrwt>0</asrwt>
<pdfrwt beam="1">  1        2 0.26848917E+00 0.14880177E+04</pdfrwt>
<pdfrwt beam="2">  1       -2 0.48798078E-01 0.14880177E+04</pdfrwt>
<totfact> 0.35590772E+01</totfact>
</mgrwt>
</event>
<event>
 6    1  0.1817112E-005  0.1782171E+04  0.7818608E-02  0.8715839E-01
         -2   -1    0    0    0  501 -0.00000000000E+00  0.00000000000E+00  0.94738348557E+03  0.94738348557E+03  0.00000000000E+00 0.  1.
          2   -1    0    0  501    0  0.00000000000E+00 -0.00000000000E+00 -0.83813290311E+03  0.83813290311E+03  0.00000000000E+00 0. -1.
         23    2    1    2    0    0  0.21740496000E+03 -0.68231601125E+03  0.58178610831E+03  0.92754792828E+03  0.95131632963E+02 0.  0.
         11    1    3    3    0    0  0.98338182795E+02 -0.37047203310E+03  0.25472118787E+03  0.46022039183E+03  0.00000000000E+00 0. -1.
        -11    1    3    3    0    0  0.11906677720E+03 -0.31184397815E+03  0.32706492044E+03  0.46732753645E+03  0.00000000000E+00 0.  1.
         22    1    1    2    0    0 -0.21740496000E+03  0.68231601125E+03 -0.47253552585E+03  0.85796846039E+03  0.00000000000E+00 0.  1.
<mgrwt>
<rscale>  0 0.17821709E+04</rscale>
<asrwt>0</asrwt>
<pdfrwt beam="1">  1        2 0.12894352E+00 0.17821709E+04</pdfrwt>
<pdfrwt beam="2">  1       -2 0.14575131E+00 0.17821709E+04</pdfrwt>
<totfact> 0.98844354E+00</totfact>
</mgrwt>
</event>
<event>
 6    1  0.1817112E-005  0.2821091E+04  0.7818608E-02  0.8296750E-01
         -2   -1    0    0    0  501 -0.00000000000E+00  0.00000000000E+00  0.11206423906E+04  0.11206423906E+04  0.00000000000E+00 0.  1.
          2   -1    0    0  501    0  0.00000000000E+00 -0.00000000000E+00 -0.17754449074E+04  0.17754449074E+04  0.00000000000E+00 0. -1.
         23    2    1    2    0    0 -0.72497570343E+02 -0.58441522788E+03  0.98730290085E+03  0.11515795568E+04  0.67612138357E+02 0.  0.
         11    1    3    3    0    0 -0.40499719740E+02 -0.44920907164E+03  0.79978681164E+03  0.91819821467E+03  0.00000000000E+00 0. -1.
        -11    1    3    3    0    0 -0.31997850603E+02 -0.13520615623E+03  0.18751608921E+03  0.23338134210E+03  0.00000000000E+00 0.  1.
         22    1    1    2    0    0  0.72497570343E+02  0.58441522788E+03 -0.16421054177E+04  0.17445077412E+04  0.00000000000E+00 0. -1.
<mgrwt>
<rscale>  0 0.28210912E+04</rscale>
<asrwt>0</asrwt>
<pdfrwt beam="1">  1        2 0.27314537E+00 0.28210912E+04</pdfrwt>
<pdfrwt beam="2">  1       -2 0.17240652E+00 0.28210912E+04</pdfrwt>
<totfact> 0.15852036E+00</totfact>
</mgrwt>
</event>
<event>
 6    1  0.1817112E-005  0.1263481E+04  0.7818608E-02  0.9059037E-01
         -2   -1    0    0    0  501 -0.00000000000E+00  0.00000000000E+00  0.38616252089E+03  0.38616252089E+03  0.00000000000E+00 0.  1.
          2   -1    0    0  501    0  0.00000000000E+00 -0.00000000000E+00 -0.10334924493E+04  0.10334924493E+04  0.00000000000E+00 0. -1.
         23    2    1    2    0    0 -0.27754486912E+03  0.18870958496E+03 -0.92238140590E+03  0.98572435700E+03  0.90678488038E+02 0.  0.
         11    1    3    3    0    0 -0.15465405120E+03  0.14944537862E+03 -0.64255090049E+03  0.67758649371E+03  0.00000000000E+00 0.  1.
        -11    1    3    3    0    0 -0.12289081793E+03  0.39264206337E+02 -0.27983050541E+03  0.30813786329E+03  0.00000000000E+00 0. -1.
         22    1    1    2    0    0  0.27754486912E+03 -0.18870958496E+03  0.27505147746E+03  0.43393061322E+03  0.00000000000E+00 0.  1.
<mgrwt>
<rscale>  0 0.12634810E+04</rscale>
<asrwt>0</asrwt>
<pdfrwt beam="1">  1        2 0.15899884E+00 0.12634810E+04</pdfrwt>
<pdfrwt beam="2">  1       -2 0.59409620E-01 0.12634810E+04</pdfrwt>
<totfact> 0.62315239E+01</totfact>
</mgrwt>
</event>
<event>
 6    1  0.1817112E-005  0.2315685E+04  0.7818608E-02  0.8471762E-01
         -2   -1    0    0    0  501 -0.00000000000E+00  0.00000000000E+00  0.15215024213E+04  0.15215024213E+04  0.00000000000E+00 0.  1.
          2   -1    0    0  501    0  0.00000000000E+00 -0.00000000000E+00 -0.88110206602E+03  0.88110206602E+03  0.00000000000E+00 0. -1.
         23    2    1    2    0    0 -0.11254013129E+04  0.22187174969E+03  0.47002523521E+03  0.12429567521E+04  0.90898721039E+02 0.  0.
         11    1    3    3    0    0 -0.72603120789E+03  0.17288531587E+03  0.33979033726E+03  0.82004153588E+03  0.00000000000E+00 0.  1.
        -11    1    3    3    0    0 -0.39937010496E+03  0.48986433825E+02  0.13023489795E+03  0.42291521618E+03  0.00000000000E+00 0. -1.
         22    1    1    2    0    0  0.11254013129E+04 -0.22187174969E+03  0.17037512004E+03  0.11596477352E+04  0.00000000000E+00 0.  1.
<mgrwt>
<rscale>  0 0.23156847E+04</rscale>
<asrwt>0</asrwt>
<pdfrwt beam="1">  1        2 0.13555416E+00 0.23156847E+04</pdfrwt>
<pdfrwt beam="2">  1       -2 0.23407729E+00 0.23156847E+04</pdfrwt>
<totfact> 0.22044754E+00</totfact>
</mgrwt>
</event>
<event>
 6    1  0.1817112E-005  0.2936806E+04  0.7818608E-02  0.8262010E-01
         -2   -1    0    0    0  501 -0.00000000000E+00  0.00000000000E+00  0.56506067631E+03  0.56506067631E+03  0.00000000000E+00 0.  1.
          2   -1    0    0  501    0  0.00000000000E+00 -0.00000000000E+00 -0.38158875497E+04  0.38158875497E+04  0.00000000000E+00 0. -1.
         23    2    1    2    0    0  0.72283241942E+03 -0.11246152339E+04 -0.25277390205E+04  0.28610461983E+04  0.94205424167E+02 0.  0.
         11    1    3    3    0    0  0.56028886792E+03 -0.81239245636E+03 -0.19180734542E+04  0.21570607071E+04  0.00000000000E+00 0.  1.
        -11    1    3    3    0    0  0.16254355150E+03 -0.31222277757E+03 -0.60966556636E+03  0.70398549117E+03  0.00000000000E+00 0. -1.
         22    1    1    2    0    0 -0.72283241942E+03  0.11246152339E+04 -0.72308785289E+03  0.15199020277E+04  0.00000000000E+00 0.  1.
<mgrwt>
<rscale>  0 0.29368064E+04</rscale>
<asrwt>0</asrwt>
<pdfrwt beam="1">  1        2 0.58705964E+00 0.29368064E+04</pdfrwt>
<pdfrwt beam="2">  1       -2 0.86932410E-01 0.29368064E+04</pdfrwt>
<totfact> 0.47018392E-01</totfact>
</mgrwt>
</event>
<event>
 6    1  0.1817112E-005  0.1625065E+04  0.7818608E-02  0.8805296E-01
          2   -1    0    0  501    0  0.00000000000E+00  0.00000000000E+00  0.21879304255E+04  0.21879304255E+04  0.00000000000E+00 0. -1.
         -2   -1    0    0    0  501 -0.00000000000E+00 -0.00000000000E+00 -0.30175064268E+03  0.30175064268E+03  0.00000000000E+00 0.  1.
         23    2    1    2    0    0 -0.59014380062E+03 -0.25804126166E+03  0.16984131386E+04  0.18187777138E+04  0.92142199097E+02 0.  0.
         13    1    3    3    0    0 -0.19504172884E+02  0.30614859657E+01  0.27054006735E+02  0.33491860752E+02  0.00000000000E+00 0.  1.
        -13    1    3    3    0    0 -0.57063962774E+03 -0.26110274763E+03  0.16713591319E+04  0.17852858531E+04  0.00000000000E+00 0. -1.
         22    1    1    2    0    0  0.59014380062E+03  0.25804126166E+03  0.18776664417E+03  0.67090335429E+03  0.00000000000E+00 0.  1.
<mgrwt>
<rscale>  0 0.16250654E+04</rscale>
<asrwt>0</asrwt>
<pdfrwt beam="1">  1        2 0.33660467E+00 0.16250654E+04</pdfrwt>
<pdfrwt beam="2">  1       -2 0.46423177E-01 0.16250654E+04</pdfrwt>
<totfact> 0.22099563E+01</totfact>
</mgrwt>
</event>
<event>
 6    1  0.2604182E-005  0.4232347E+04  0.7818608E-02  0.7959248E-01
         -2   -1    0    0    0  501 -0.00000000000E+00  0.00000000000E+00  0.16173219861E+04  0.16173219861E+04  0.00000000000E+00 0.  1.
          2   -1    0    0  501    0  0.00000000000E+00 -0.00000000000E+00 -0.27688922655E+04  0.27688922655E+04  0.00000000000E+00 0. -1.
         23    2    1    2    0    0  0.50199855042E+03  0.20389819765E+04 -0.83944810463E+03  0.22632751811E+04  0.91057014125E+02 0.  0.
         11    1    3    3    0    0  0.38749447411E+03  0.16247891590E+04 -0.62992186292E+03  0.17851871981E+04  0.00000000000E+00 0. -1.
        -11    1    3    3    0    0  0.11450407631E+03  0.41419281745E+03 -0.20952624171E+03  0.47808798299E+03  0.00000000000E+00 0.  1.
         22    1    1    2    0    0 -0.50199855042E+03 -0.20389819765E+04 -0.31212217484E+03  0.21229390705E+04  0.00000000000E+00 0.  1.
<mgrwt>
<rscale>  0 0.42323470E+04</rscale>
<asrwt>0</asrwt>
<pdfrwt beam="1">  1        2 0.42598343E+00 0.42323470E+04</pdfrwt>
<pdfrwt beam="2">  1       -2 0.24881877E+00 0.42323470E+04</pdfrwt>
<totfact> 0.12214385E-01</totfact>
</mgrwt>
</event>
<event>
 6    1  0.1817112E-005  0.2320101E+04  0.7818608E-02  0.8470038E-01
         -2   -1    0    0    0  501 -0.00000000000E+00  0.00000000000E+00  0.14643643084E+04  0.14643643084E+04  0.00000000000E+00 0.  1.
          2   -1    0    0  501    0  0.00000000000E+00 -0.00000000000E+00 -0.91897691656E+03  0.91897691656E+03  0.00000000000E+00 0. -1.
         23    2    1    2    0    0 -0.83610147009E+03 -0.63974065147E+03  0.76949657828E+03  0.13069775797E+04  0.87929746703E+02 0.  0.
         11    1    3    3    0    0 -0.53107793648E+03 -0.35696884538E+03  0.48795615717E+03  0.80471842436E+03  0.00000000000E+00 0.  1.
        -11    1    3    3    0    0 -0.30502353361E+03 -0.28277180609E+03  0.28154042111E+03  0.50225915531E+03  0.00000000000E+00 0. -1.
         22    1    1    2    0    0  0.83610147009E+03  0.63974065147E+03 -0.22410918645E+03  0.10763636453E+04  0.00000000000E+00 0. -1.
<mgrwt>
<rscale>  0 0.23201009E+04</rscale>
<asrwt>0</asrwt>
<pdfrwt beam="1">  1        2 0.14138106E+00 0.23201009E+04</pdfrwt>
<pdfrwt beam="2">  1       -2 0.22528682E+00 0.23201009E+04</pdfrwt>
<totfact> 0.23578754E+00</totfact>
</mgrwt>
</event>
<event>
 6    1  0.1817112E-005  0.8486047E+03  0.7818608E-02  0.9492212E-01
         -2   -1    0    0    0  501 -0.00000000000E+00  0.00000000000E+00  0.11890218250E+04  0.11890218250E+04  0.00000000000E+00 0.  1.
          2   -1    0    0  501    0  0.00000000000E+00 -0.00000000000E+00 -0.15141226553E+03  0.15141226553E+03  0.00000000000E+00 0. -1.
         23    2    1    2    0    0 -0.94656872660E+02 -0.30263763963E+03  0.95820934803E+03  0.10135490067E+04  0.92557927122E+02 0.  0.
         11    1    3    3    0    0  0.37416789700E+01 -0.53817736785E+02  0.88854327024E+02  0.10394922022E+03  0.00000000000E+00 0.  1.
        -11    1    3    3    0    0 -0.98398551630E+02 -0.24881990285E+03  0.86935502100E+03  0.90959978648E+03  0.00000000000E+00 0. -1.
         22    1    1    2    0    0  0.94656872660E+02  0.30263763963E+03  0.79400211466E+02  0.32688508385E+03  0.00000000000E+00 0. -1.
<mgrwt>
<rscale>  0 0.84860471E+03</rscale>
<asrwt>0</asrwt>
<pdfrwt beam="1">  1        2 0.23294195E-01 0.84860471E+03</pdfrwt>
<pdfrwt beam="2">  1       -2 0.18292643E+00 0.84860471E+03</pdfrwt>
<totfact> 0.41513435E+01</totfact>
</mgrwt>
</event>
<event>
 6    1  0.1817112E-005  0.2283004E+04  0.7818608E-02  0.8484653E-01
         -2   -1    0    0    0  501 -0.00000000000E+00  0.00000000000E+00  0.12800967431E+04  0.12800967431E+04  0.00000000000E+00 0.  1.
          2   -1    0    0  501    0  0.00000000000E+00 -0.00000000000E+00 -0.10179125630E+04  0.10179125630E+04  0.00000000000E+00 0. -1.
         23    2    1    2    0    0 -0.71450891556E+03 -0.64297529537E+02  0.10226766265E+04  0.12525400699E+04  0.91279688131E+02 0.  0.
         13    1    3    3    0    0 -0.24617433929E+03  0.17566290327E+02  0.38023722805E+03  0.45331085303E+03  0.00000000000E+00 0. -1.
        -13    1    3    3    0    0 -0.46833457627E+03 -0.81863819865E+02  0.64243939849E+03  0.79922921685E+03  0.00000000000E+00 0.  1.
         22    1    1    2    0    0  0.71450891556E+03  0.64297529537E+02 -0.76049244643E+03  0.10454692362E+04  0.00000000000E+00 0. -1.
<mgrwt>
<rscale>  0 0.22830038E+04</rscale>
<asrwt>0</asrwt>
<pdfrwt beam="1">  1        2 0.15660193E+00 0.22830038E+04</pdfrwt>
<pdfrwt beam="2">  1       -2 0.19693796E+00 0.22830038E+04</pdfrwt>
<totfact> 0.31024275E+00</totfact>
</mgrwt>
</event>
<event>
 6    1  0.1817112E-005  0.1795227E+04  0.7818608E-02  0.8708842E-01
         -2   -1    0    0    0  501 -0.00000000000E+00  0.00000000000E+00  0.11429992881E+04  0.11429992881E+04  0.00000000000E+00 0.  1.
          2   -1    0    0  501    0  0.00000000000E+00 -0.00000000000E+00 -0.70490882971E+03  0.70490882971E+03  0.00000000000E+00 0. -1.
         23    2    1    2    0    0 -0.27333750669E+03 -0.39762357101E+03 -0.55650058650E+03  0.74245380243E+03  0.93417606339E+02 0.  0.
         13    1    3    3    0    0 -0.83222700061E+02 -0.62092686515E+02 -0.92006490256E+02  0.13873252601E+03  0.00000000000E+00 0. -1.
        -13    1    3    3    0    0 -0.19011480663E+03 -0.33553088450E+03 -0.46449409625E+03  0.60372127642E+03  0.00000000000E+00 0.  1.
         22    1    1    2    0    0  0.27333750669E+03  0.39762357101E+03  0.99459104488E+03  0.11054543154E+04  0.00000000000E+00 0.  1.
<mgrwt>
<rscale>  0 0.17952273E+04</rscale>
<asrwt>0</asrwt>
<pdfrwt beam="1">  1        2 0.10844751E+00 0.17952273E+04</pdfrwt>
<pdfrwt beam="2">  1       -2 0.17584604E+00 0.17952273E+04</pdfrwt>
<totfact> 0.74282364E+00</totfact>
</mgrwt>
</event>
<event>
 6    1  0.1817112E-005  0.4654886E+04  0.7818608E-02  0.7884068E-01
         -2   -1    0    0    0  501 -0.00000000000E+00  0.00000000000E+00  0.22271425322E+04  0.22271425322E+04  0.00000000000E+00 0.  1.
          2   -1    0    0  501    0  0.00000000000E+00 -0.00000000000E+00 -0.24322608837E+04  0.24322608837E+04  0.00000000000E+00 0. -1.
         23    2    1    2    0    0 -0.17630521106E+04 -0.33753156166E+03  0.13790557188E+04  0.22652672909E+04  0.85795826334E+02 0.  0.
         13    1    3    3    0    0 -0.69802251037E+03 -0.14413962142E+03  0.49654000062E+03  0.86865621949E+03  0.00000000000E+00 0. -1.
        -13    1    3    3    0    0 -0.10650296002E+04 -0.19339194024E+03  0.88251571820E+03  0.13966110714E+04  0.00000000000E+00 0.  1.
         22    1    1    2    0    0  0.17630521106E+04  0.33753156166E+03 -0.15841740704E+04  0.23941361250E+04  0.00000000000E+00 0.  1.
<mgrwt>
<rscale>  0 0.46548863E+04</rscale>
<asrwt>0</asrwt>
<pdfrwt beam="1">  1        2 0.37419398E+00 0.46548863E+04</pdfrwt>
<pdfrwt beam="2">  1       -2 0.34263731E+00 0.46548863E+04</pdfrwt>
<totfact> 0.49342283E-02</totfact>
</mgrwt>
</event>
<event>
 6    1  0.1817112E-005  0.9104547E+04  0.7818608E-02  0.7392374E-01
         -2   -1    0    0    0  501 -0.00000000000E+00  0.00000000000E+00  0.50916593883E+04  0.50916593883E+04  0.00000000000E+00 0.  1.
          2   -1    0    0  501    0  0.00000000000E+00 -0.00000000000E+00 -0.40700276262E+04  0.40700276262E+04  0.00000000000E+00 0. -1.
         23    2    1    2    0    0 -0.36561939017E+04 -0.27111333356E+04  0.54018538017E+03  0.45845931298E+04  0.93252941626E+02 0.  0.
         13    1    3    3    0    0 -0.12414016940E+04 -0.94159566990E+03  0.14376866470E+03  0.15647204224E+04  0.00000000000E+00 0. -1.
        -13    1    3    3    0    0 -0.24147922077E+04 -0.17695376657E+04  0.39641671547E+03  0.30198727074E+04  0.00000000000E+00 0.  1.
         22    1    1    2    0    0  0.36561939017E+04  0.27111333356E+04  0.48144638190E+03  0.45770938846E+04  0.00000000000E+00 0. -1.
<mgrwt>
<rscale>  0 0.91045471E+04</rscale>
<asrwt>0</asrwt>
<pdfrwt beam="1">  1        2 0.62615810E+00 0.91045471E+04</pdfrwt>
<pdfrwt beam="2">  1       -2 0.78333221E+00 0.91045471E+04</pdfrwt>
<totfact> 0.15856572E-05</totfact>
</mgrwt>
</event>
<event>
 6    1  0.1817112E-005  0.1484414E+04  0.7818608E-02  0.8894884E-01
          2   -1    0    0  501    0  0.00000000000E+00  0.00000000000E+00  0.88081447947E+03  0.88081447947E+03  0.00000000000E+00 0.  1.
         -2   -1    0    0    0  501 -0.00000000000E+00 -0.00000000000E+00 -0.62541081333E+03  0.62541081333E+03  0.00000000000E+00 0. -1.
         23    2    1    2    0    0  0.76111788811E+02  0.67466334740E+03  0.42534460860E+03  0.80633704412E+03  0.91092019064E+02 0.  0.
         13    1    3    3    0    0  0.52159199923E+02  0.44066478652E+03  0.22584867911E+03  0.49790929101E+03  0.00000000000E+00 0.  1.
        -13    1    3    3    0    0  0.23952588888E+02  0.23399856088E+03  0.19949592949E+03  0.30842775312E+03  0.00000000000E+00 0. -1.
         22    1    1    2    0    0 -0.76111788811E+02 -0.67466334740E+03 -0.16994094247E+03  0.69988824868E+03  0.00000000000E+00 0. -1.
<mgrwt>
<rscale>  0 0.14844136E+04</rscale>
<asrwt>0</asrwt>
<pdfrwt beam="1">  1        2 0.13550992E+00 0.14844136E+04</pdfrwt>
<pdfrwt beam="2">  1       -2 0.96217048E-01 0.14844136E+04</pdfrwt>
<totfact> 0.26448783E+01</totfact>
</mgrwt>
</event>
<event>
 6    1  0.1817112E-005  0.3844441E+04  0.7818608E-02  0.8036685E-01
         -1   -1    0    0    0  501 -0.00000000000E+00  0.00000000000E+00  0.42140971353E+04  0.42140971353E+04  0.00000000000E+00 0.  1.
          1   -1    0    0  501    0  0.00000000000E+00 -0.00000000000E+00 -0.87680254243E+03  0.87680254243E+03  0.00000000000E+00 0. -1.
         23    2    1    2    0    0 -0.10551065889E+04  0.14981034706E+04  0.90488396837E+03  0.20455449580E+04  0.88742642737E+02 0.  0.
         13    1    3    3    0    0 -0.16969742226E+03  0.23252952987E+03  0.10722844652E+03  0.30718909018E+03  0.00000000000E+00 0.  1.
        -13    1    3    3    0    0 -0.88540916660E+03  0.12655739407E+04  0.79765552186E+03  0.17383558679E+04  0.00000000000E+00 0. -1.
         22    1    1    2    0    0  0.10551065889E+04 -0.14981034706E+04  0.24324106245E+04  0.30453547197E+04  0.00000000000E+00 0.  1.
<mgrwt>
<rscale>  0 0.38444407E+04</rscale>
<asrwt>0</asrwt>
<pdfrwt beam="1">  1        1 0.13489270E+00 0.38444407E+04</pdfrwt>
<pdfrwt beam="2">  1       -1 0.64832263E+00 0.38444407E+04</pdfrwt>
<totfact> 0.44612514E-03</totfact>
</mgrwt>
</event>
<event>
 6    1  0.1817112E-005  0.1967342E+04  0.7818608E-02  0.8622043E-01
         -2   -1    0    0    0  501 -0.00000000000E+00  0.00000000000E+00  0.40480871416E+03  0.40480871416E+03  0.00000000000E+00 0.  1.
          2   -1    0    0  501    0  0.00000000000E+00 -0.00000000000E+00 -0.23902866968E+04  0.23902866968E+04  0.00000000000E+00 0. -1.
         23    2    1    2    0    0  0.26111561812E+03 -0.83569104111E+03 -0.36449692659E+03  0.95277609384E+03  0.91451589808E+02 0.  0.
         13    1    3    3    0    0  0.12531237778E+02 -0.12799651033E+03 -0.74186733796E+02  0.14847157993E+03  0.00000000000E+00 0.  1.
        -13    1    3    3    0    0  0.24858438034E+03 -0.70769453078E+03 -0.29031019279E+03  0.80430451390E+03  0.00000000000E+00 0. -1.
         22    1    1    2    0    0 -0.26111561812E+03  0.83569104111E+03 -0.16209810561E+04  0.18423193172E+04  0.00000000000E+00 0. -1.
<mgrwt>
<rscale>  0 0.19673423E+04</rscale>
<asrwt>0</asrwt>
<pdfrwt beam="1">  1        2 0.36773642E+00 0.19673423E+04</pdfrwt>
<pdfrwt beam="2">  1       -2 0.62278262E-01 0.19673423E+04</pdfrwt>
<totfact> 0.89784743E+00</totfact>
</mgrwt>
</event>
<event>
 6    1  0.1817112E-005  0.1504698E+04  0.7818608E-02  0.8881335E-01
          2   -1    0    0  501    0  0.00000000000E+00  0.00000000000E+00  0.81936344960E+03  0.81936344960E+03  0.00000000000E+00 0. -1.
         -2   -1    0    0    0  501 -0.00000000000E+00 -0.00000000000E+00 -0.69081539769E+03  0.69081539769E+03  0.00000000000E+00 0.  1.
         23    2    1    2    0    0  0.17767653261E+03  0.58651339834E+03 -0.36870839598E+03  0.72098248918E+03  0.91120534218E+02 0.  0.
         13    1    3    3    0    0  0.12939773449E+03  0.39675332332E+03 -0.29801697390E+03  0.51280706898E+03  0.00000000000E+00 0. -1.
        -13    1    3    3    0    0  0.48278798128E+02  0.18976007502E+03 -0.70691422076E+02  0.20817542020E+03  0.00000000000E+00 0.  1.
         22    1    1    2    0    0 -0.17767653261E+03 -0.58651339834E+03  0.49725644789E+03  0.78919635811E+03  0.00000000000E+00 0. -1.
<mgrwt>
<rscale>  0 0.15046978E+04</rscale>
<asrwt>0</asrwt>
<pdfrwt beam="1">  1        2 0.12605592E+00 0.15046978E+04</pdfrwt>
<pdfrwt beam="2">  1       -2 0.10627929E+00 0.15046978E+04</pdfrwt>
<totfact> 0.23008317E+01</totfact>
</mgrwt>
</event>
<event>
 6    1  0.1817112E-005  0.3623856E+04  0.7818608E-02  0.8085049E-01
         -2   -1    0    0    0  501 -0.00000000000E+00  0.00000000000E+00  0.14225370870E+04  0.14225370870E+04  0.00000000000E+00 0.  1.
          2   -1    0    0  501    0  0.00000000000E+00 -0.00000000000E+00 -0.23079065993E+04  0.23079065993E+04  0.00000000000E+00 0. -1.
         23    2    1    2    0    0 -0.13819494187E+04 -0.60446286223E+03 -0.14743309241E+04  0.21111737606E+04  0.90793314194E+02 0.  0.
         13    1    3    3    0    0 -0.58845874101E+03 -0.21060774467E+03 -0.59214740155E+03  0.86097494572E+03  0.00000000000E+00 0. -1.
        -13    1    3    3    0    0 -0.79349067771E+03 -0.39385511756E+03 -0.88218352252E+03  0.12501988149E+04  0.00000000000E+00 0.  1.
         22    1    1    2    0    0  0.13819494187E+04  0.60446286223E+03  0.58896141181E+03  0.16192699257E+04  0.00000000000E+00 0.  1.
<mgrwt>
<rscale>  0 0.36238558E+04</rscale>
<asrwt>0</asrwt>
<pdfrwt beam="1">  1        2 0.35506255E+00 0.36238558E+04</pdfrwt>
<pdfrwt beam="2">  1       -2 0.21885186E+00 0.36238558E+04</pdfrwt>
<totfact> 0.36684814E-01</totfact>
</mgrwt>
</event>
<event>
 6    1  0.1817112E-005  0.3836942E+04  0.7818608E-02  0.8038273E-01
          2   -1    0    0  501    0  0.00000000000E+00  0.00000000000E+00  0.21923970126E+04  0.21923970126E+04  0.00000000000E+00 0. -1.
         -2   -1    0    0    0  501 -0.00000000000E+00 -0.00000000000E+00 -0.16787704805E+04  0.16787704805E+04  0.00000000000E+00 0.  1.
         23    2    1    2    0    0 -0.15702117565E+03  0.46685656349E+03  0.21265219150E+04  0.21847386577E+04  0.91525118590E+02 0.  0.
         13    1    3    3    0    0 -0.42395864588E+02  0.25193510173E+03  0.99262161292E+03  0.10249714002E+04  0.00000000000E+00 0.  1.
        -13    1    3    3    0    0 -0.11462531106E+03  0.21492146176E+03  0.11339003020E+04  0.11597672575E+04  0.00000000000E+00 0. -1.
         22    1    1    2    0    0  0.15702117565E+03 -0.46685656349E+03 -0.16128953829E+04  0.16864288353E+04  0.00000000000E+00 0.  1.
<mgrwt>
<rscale>  0 0.38369422E+04</rscale>
<asrwt>0</asrwt>
<pdfrwt beam="1">  1        2 0.33729185E+00 0.38369422E+04</pdfrwt>
<pdfrwt beam="2">  1       -2 0.25827238E+00 0.38369422E+04</pdfrwt>
<totfact> 0.23834098E-01</totfact>
</mgrwt>
</event>
<event>
 6    1  0.1817112E-005  0.2311506E+04  0.7818608E-02  0.8473398E-01
         -2   -1    0    0    0  501 -0.00000000000E+00  0.00000000000E+00  0.47199517253E+03  0.47199517253E+03  0.00000000000E+00 0.  1.
          2   -1    0    0  501    0  0.00000000000E+00 -0.00000000000E+00 -0.28300388668E+04  0.28300388668E+04  0.00000000000E+00 0. -1.
         23    2    1    2    0    0  0.91827536037E+03 -0.69878529229E+03 -0.11932950753E+04  0.16624701133E+04  0.91231675665E+02 0.  0.
         13    1    3    3    0    0  0.37282908045E+03 -0.28506977932E+03 -0.55038382030E+03  0.72331780840E+03  0.00000000000E+00 0. -1.
        -13    1    3    3    0    0  0.54544627992E+03 -0.41371551297E+03 -0.64291125501E+03  0.93915230488E+03  0.00000000000E+00 0.  1.
         22    1    1    2    0    0 -0.91827536037E+03  0.69878529229E+03 -0.11647486190E+04  0.16395639261E+04  0.00000000000E+00 0. -1.
<mgrwt>
<rscale>  0 0.23115057E+04</rscale>
<asrwt>0</asrwt>
<pdfrwt beam="1">  1        2 0.43539059E+00 0.23115057E+04</pdfrwt>
<pdfrwt beam="2">  1       -2 0.72614642E-01 0.23115057E+04</pdfrwt>
<totfact> 0.34459714E+00</totfact>
</mgrwt>
</event>
<event>
 6    1  0.1817112E-005  0.2444587E+04  0.7818608E-02  0.8422997E-01
         -2   -1    0    0    0  501 -0.00000000000E+00  0.00000000000E+00  0.11490917821E+04  0.11490917821E+04  0.00000000000E+00 0.  1.
          2   -1    0    0  501    0  0.00000000000E+00 -0.00000000000E+00 -0.13001582866E+04  0.13001582866E+04  0.00000000000E+00 0. -1.
         23    2    1    2    0    0 -0.10058225657E+04  0.66550841735E+03 -0.26367635302E+03  0.12379443826E+04  0.91654722474E+02 0.  0.
         11    1    3    3    0    0 -0.75276246833E+03  0.48909284194E+03 -0.15564611695E+03  0.91109212239E+03  0.00000000000E+00 0. -1.
        -11    1    3    3    0    0 -0.25306009736E+03  0.17641557542E+03 -0.10803023607E+03  0.32685226025E+03  0.00000000000E+00 0.  1.
         22    1    1    2    0    0  0.10058225657E+04 -0.66550841735E+03  0.11260984849E+03  0.12113056861E+04  0.00000000000E+00 0.  1.
<mgrwt>
<rscale>  0 0.24445868E+04</rscale>
<asrwt>0</asrwt>
<pdfrwt beam="1">  1        2 0.20002435E+00 0.24445868E+04</pdfrwt>
<pdfrwt beam="2">  1       -2 0.17678335E+00 0.24445868E+04</pdfrwt>
<totfact> 0.28271830E+00</totfact>
</mgrwt>
</event>
<event>
 6    1  0.1817112E-005  0.3666184E+04  0.7818608E-02  0.8075497E-01
         -2   -1    0    0    0  501 -0.00000000000E+00  0.00000000000E+00  0.15273634820E+04  0.15273634820E+04  0.00000000000E+00 0.  1.
          2   -1    0    0  501    0  0.00000000000E+00 -0.00000000000E+00 -0.22000174494E+04  0.22000174494E+04  0.00000000000E+00 0. -1.
         23    2    1    2    0    0  0.76419686115E+01  0.10616432283E+04  0.11813536566E+04  0.15909144530E+04  0.90926293949E+02 0.  0.
         13    1    3    3    0    0 -0.49825670517E+01  0.73634004729E+03  0.75690503090E+03  0.10559956046E+04  0.00000000000E+00 0. -1.
        -13    1    3    3    0    0  0.12624535663E+02  0.32530318099E+03  0.42444862567E+03  0.53491884833E+03  0.00000000000E+00 0.  1.
         22    1    1    2    0    0 -0.76419686115E+01 -0.10616432283E+04 -0.18540076240E+04  0.21364664785E+04  0.00000000000E+00 0. -1.
<mgrwt>
<rscale>  0 0.36661840E+04</rscale>
<asrwt>0</asrwt>
<pdfrwt beam="1">  1        2 0.33846422E+00 0.36661840E+04</pdfrwt>
<pdfrwt beam="2">  1       -2 0.23497900E+00 0.36661840E+04</pdfrwt>
<totfact> 0.33317583E-01</totfact>
</mgrwt>
</event>
<event>
 6    1  0.1817112E-005  0.2082158E+04  0.7818608E-02  0.8569144E-01
         -2   -1    0    0    0  501 -0.00000000000E+00  0.00000000000E+00  0.15717921579E+04  0.15717921579E+04  0.00000000000E+00 0.  1.
          2   -1    0    0  501    0  0.00000000000E+00 -0.00000000000E+00 -0.68956026398E+03  0.68956026398E+03  0.00000000000E+00 0. -1.
         23    2    1    2    0    0  0.37423195071E+03 -0.39787171000E+03 -0.51857469695E+03  0.75781972999E+03  0.83782911712E+02 0.  0.
         13    1    3    3    0    0  0.32628039972E+03 -0.34414951553E+03 -0.48514938006E+03  0.67843032749E+03  0.00000000000E+00 0. -1.
        -13    1    3    3    0    0  0.47951550986E+02 -0.53722194464E+02 -0.33425316892E+02  0.79389402500E+02  0.00000000000E+00 0.  1.
         22    1    1    2    0    0 -0.37423195071E+03  0.39787171000E+03  0.14008065909E+04  0.15035326919E+04  0.00000000000E+00 0.  1.
<mgrwt>
<rscale>  0 0.20821579E+04</rscale>
<asrwt>0</asrwt>
<pdfrwt beam="1">  1        2 0.10608619E+00 0.20821579E+04</pdfrwt>
<pdfrwt beam="2">  1       -2 0.24181418E+00 0.20821579E+04</pdfrwt>
<totfact> 0.27811051E+00</totfact>
</mgrwt>
</event>
<event>
 6    1  0.1817112E-005  0.2446123E+04  0.7818608E-02  0.8422435E-01
          2   -1    0    0  501    0  0.00000000000E+00  0.00000000000E+00  0.31048679693E+04  0.31048679693E+04  0.00000000000E+00 0. -1.
         -2   -1    0    0    0  501 -0.00000000000E+00 -0.00000000000E+00 -0.48178527756E+03  0.48178527756E+03  0.00000000000E+00 0.  1.
         23    2    1    2    0    0  0.72980699797E+03 -0.88721924693E+03  0.70516946298E+03  0.13509950888E+04  0.90263570333E+02 0.  0.
         11    1    3    3    0    0  0.30030119046E+03 -0.36750474321E+03  0.23961193266E+03  0.53165253648E+03  0.00000000000E+00 0.  1.
        -11    1    3    3    0    0  0.42950580752E+03 -0.51971450373E+03  0.46555753032E+03  0.81934255237E+03  0.00000000000E+00 0. -1.
         22    1    1    2    0    0 -0.72980699797E+03  0.88721924693E+03  0.19179132287E+04  0.22356581580E+04  0.00000000000E+00 0.  1.
<mgrwt>
<rscale>  0 0.24461232E+04</rscale>
<asrwt>0</asrwt>
<pdfrwt beam="1">  1        2 0.47767198E+00 0.24461232E+04</pdfrwt>
<pdfrwt beam="2">  1       -2 0.74120814E-01 0.24461232E+04</pdfrwt>
<totfact> 0.21950127E+00</totfact>
</mgrwt>
</event>
<event>
 6    1  0.1817112E-005  0.1838295E+04  0.7818608E-02  0.8686196E-01
         -2   -1    0    0    0  501 -0.00000000000E+00  0.00000000000E+00  0.53690551357E+03  0.53690551357E+03  0.00000000000E+00 0.  1.
          2   -1    0    0  501    0  0.00000000000E+00 -0.00000000000E+00 -0.15735202166E+04  0.15735202166E+04  0.00000000000E+00 0. -1.
         23    2    1    2    0    0  0.64659855204E+03  0.55385649685E+03 -0.91215282828E+03  0.12499970783E+04  0.74988045901E+02 0.  0.
         13    1    3    3    0    0  0.44745530216E+03  0.33710031574E+03 -0.58882075500E+03  0.81275011647E+03  0.00000000000E+00 0. -1.
        -13    1    3    3    0    0  0.19914324988E+03  0.21675618111E+03 -0.32333207328E+03  0.43724696184E+03  0.00000000000E+00 0.  1.
         22    1    1    2    0    0 -0.64659855204E+03 -0.55385649685E+03 -0.12446187470E+03  0.86042865181E+03  0.00000000000E+00 0.  1.
<mgrwt>
<rscale>  0 0.18382945E+04</rscale>
<asrwt>0</asrwt>
<pdfrwt beam="1">  1        2 0.24208003E+00 0.18382945E+04</pdfrwt>
<pdfrwt beam="2">  1       -2 0.82600849E-01 0.18382945E+04</pdfrwt>
<totfact> 0.13965938E+01</totfact>
</mgrwt>
</event>
<event>
 6    1  0.1817112E-005  0.7544136E+03  0.7818608E-02  0.9628451E-01
         -2   -1    0    0    0  501 -0.00000000000E+00  0.00000000000E+00  0.13010326522E+03  0.13010326522E+03  0.00000000000E+00 0.  1.
          2   -1    0    0  501    0  0.00000000000E+00 -0.00000000000E+00 -0.10936310186E+04  0.10936310186E+04  0.00000000000E+00 0. -1.
         23    2    1    2    0    0 -0.28680705064E+03  0.12496134905E+03 -0.81609515392E+03  0.87788750497E+03  0.82471498570E+02 0.  0.
         11    1    3    3    0    0 -0.27653852272E+03  0.10935372955E+03 -0.70375596173E+03  0.76400539683E+03  0.00000000000E+00 0.  1.
        -11    1    3    3    0    0 -0.10268527916E+02  0.15607619504E+02 -0.11233919219E+03  0.11388210814E+03  0.00000000000E+00 0. -1.
         22    1    1    2    0    0  0.28680705064E+03 -0.12496134905E+03 -0.14743259946E+03  0.34584677885E+03  0.00000000000E+00 0.  1.
<mgrwt>
<rscale>  0 0.75441359E+03</rscale>
<asrwt>0</asrwt>
<pdfrwt beam="1">  1        2 0.16825093E+00 0.75441359E+03</pdfrwt>
<pdfrwt beam="2">  1       -2 0.20015886E-01 0.75441359E+03</pdfrwt>
<totfact> 0.47157685E+02</totfact>
</mgrwt>
</event>
<event>
 6    1  0.2293063E-005  0.2606510E+04  0.7818608E-02  0.8365993E-01
          2   -1    0    0  501    0  0.00000000000E+00  0.00000000000E+00  0.14822498426E+04  0.14822498426E+04  0.00000000000E+00 0. -1.
         -2   -1    0    0    0  501 -0.00000000000E+00 -0.00000000000E+00 -0.11458756289E+04  0.11458756289E+04  0.00000000000E+00 0.  1.
         23    2    1    2    0    0  0.12822615674E+03 -0.71226573846E+03  0.12580935297E+04  0.14562334429E+04  0.11854147423E+03 0.  0.
         11    1    3    3    0    0  0.58681971044E+02 -0.34658999654E+03  0.49409453029E+03  0.60638074201E+03  0.00000000000E+00 0.  1.
        -11    1    3    3    0    0  0.69544185696E+02 -0.36567574193E+03  0.76399899943E+03  0.84985270085E+03  0.00000000000E+00 0. -1.
         22    1    1    2    0    0 -0.12822615674E+03  0.71226573846E+03 -0.92171931598E+03  0.11718920287E+04  0.00000000000E+00 0.  1.
<mgrwt>
<rscale>  0 0.26065103E+04</rscale>
<asrwt>0</asrwt>
<pdfrwt beam="1">  1        2 0.22803844E+00 0.26065103E+04</pdfrwt>
<pdfrwt beam="2">  1       -2 0.17628856E+00 0.26065103E+04</pdfrwt>
<totfact> 0.22104109E+00</totfact>
</mgrwt>
</event>
<event>
 6    1  0.1817112E-005  0.1385668E+04  0.7818608E-02  0.8964258E-01
          2   -1    0    0  501    0  0.00000000000E+00  0.00000000000E+00  0.10434467561E+04  0.10434467561E+04  0.00000000000E+00 0. -1.
         -2   -1    0    0    0  501 -0.00000000000E+00 -0.00000000000E+00 -0.46003228677E+03  0.46003228677E+03  0.00000000000E+00 0.  1.
         23    2    1    2    0    0 -0.45145548776E+03 -0.23604912681E+03 -0.21185974374E+03  0.55902559159E+03  0.89965623111E+02 0.  0.
         13    1    3    3    0    0 -0.18340230386E+03 -0.13985748051E+03 -0.71135816720E+02  0.24136450513E+03  0.00000000000E+00 0.  1.
        -13    1    3    3    0    0 -0.26805318390E+03 -0.96191646292E+02 -0.14072392702E+03  0.31766108646E+03  0.00000000000E+00 0. -1.
         22    1    1    2    0    0  0.45145548776E+03  0.23604912681E+03  0.79527421311E+03  0.94445345133E+03  0.00000000000E+00 0. -1.
<mgrwt>
<rscale>  0 0.13856684E+04</rscale>
<asrwt>0</asrwt>
<pdfrwt beam="1">  1        2 0.16053027E+00 0.13856684E+04</pdfrwt>
<pdfrwt beam="2">  1       -2 0.70774198E-01 0.13856684E+04</pdfrwt>
<totfact> 0.41792017E+01</totfact>
</mgrwt>
</event>
<event>
 6    1  0.1817112E-005  0.2322529E+04  0.7818608E-02  0.8469091E-01
         -1   -1    0    0    0  501 -0.00000000000E+00  0.00000000000E+00  0.57182215311E+03  0.57182215311E+03  0.00000000000E+00 0. -1.
          1   -1    0    0  501    0  0.00000000000E+00 -0.00000000000E+00 -0.23583119678E+04  0.23583119678E+04  0.00000000000E+00 0.  1.
         23    2    1    2    0    0  0.79890340601E+03 -0.84010154653E+03 -0.91975997192E+03  0.14826404660E+04  0.90813462109E+02 0.  0.
         13    1    3    3    0    0  0.12778991112E+03 -0.18631201189E+03 -0.18171289076E+03  0.28993447850E+03  0.00000000000E+00 0. -1.
        -13    1    3    3    0    0  0.67111349489E+03 -0.65378953464E+03 -0.73804708116E+03  0.11927059875E+04  0.00000000000E+00 0.  1.
         22    1    1    2    0    0 -0.79890340601E+03  0.84010154653E+03 -0.86672984275E+03  0.14474936549E+04  0.00000000000E+00 0.  1.
<mgrwt>
<rscale>  0 0.23225288E+04</rscale>
<asrwt>0</asrwt>
<pdfrwt beam="1">  1        1 0.36281722E+00 0.23225288E+04</pdfrwt>
<pdfrwt beam="2">  1       -1 0.87972639E-01 0.23225288E+04</pdfrwt>
<totfact> 0.19443353E+00</totfact>
</mgrwt>
</event>
<event>
 6    1  0.1817112E-005  0.2441781E+04  0.7818608E-02  0.8424025E-01
         -2   -1    0    0    0  501 -0.00000000000E+00  0.00000000000E+00  0.89526117347E+03  0.89526117347E+03  0.00000000000E+00 0.  1.
          2   -1    0    0  501    0  0.00000000000E+00 -0.00000000000E+00 -0.16649600013E+04  0.16649600013E+04  0.00000000000E+00 0. -1.
         23    2    1    2    0    0 -0.22296846112E+02 -0.12150928467E+04 -0.48886481233E+03  0.13128978327E+04  0.88114351262E+02 0.  0.
         13    1    3    3    0    0  0.87030508845E+01 -0.60132489762E+03 -0.28423684303E+03  0.66517513373E+03  0.00000000000E+00 0. -1.
        -13    1    3    3    0    0 -0.30999896997E+02 -0.61376794910E+03 -0.20462796930E+03  0.64772269898E+03  0.00000000000E+00 0.  1.
         22    1    1    2    0    0  0.22296846112E+02  0.12150928467E+04 -0.28083401554E+03  0.12473233421E+04  0.00000000000E+00 0.  1.
<mgrwt>
<rscale>  0 0.24417814E+04</rscale>
<asrwt>0</asrwt>
<pdfrwt beam="1">  1        2 0.25614769E+00 0.24417814E+04</pdfrwt>
<pdfrwt beam="2">  1       -2 0.13773249E+00 0.24417814E+04</pdfrwt>
<totfact> 0.34450605E+00</totfact>
</mgrwt>
</event>
<event>
 6    1  0.1817112E-005  0.1604638E+04  0.7818608E-02  0.8817704E-01
         -2   -1    0    0    0  501 -0.00000000000E+00  0.00000000000E+00  0.47687943604E+03  0.47687943604E+03  0.00000000000E+00 0.  1.
          2   -1    0    0  501    0  0.00000000000E+00 -0.00000000000E+00 -0.13498502039E+04  0.13498502039E+04  0.00000000000E+00 0. -1.
         23    2    1    2    0    0 -0.37277183288E+03 -0.69163868391E+03 -0.26889513077E+03  0.83565432305E+03  0.93223644102E+02 0.  0.
         13    1    3    3    0    0 -0.27307032137E+03 -0.55350174764E+03 -0.24312987289E+03  0.66335791256E+03  0.00000000000E+00 0. -1.
        -13    1    3    3    0    0 -0.99701511503E+02 -0.13813693626E+03 -0.25765257885E+02  0.17229641050E+03  0.00000000000E+00 0.  1.
         22    1    1    2    0    0  0.37277183288E+03  0.69163868391E+03 -0.60407563713E+03  0.99107531694E+03  0.00000000000E+00 0. -1.
<mgrwt>
<rscale>  0 0.16046380E+04</rscale>
<asrwt>0</asrwt>
<pdfrwt beam="1">  1        2 0.20766926E+00 0.16046380E+04</pdfrwt>
<pdfrwt beam="2">  1       -2 0.73366066E-01 0.16046380E+04</pdfrwt>
<totfact> 0.24855625E+01</totfact>
</mgrwt>
</event>
<event>
 6    1  0.1817112E-005  0.9865173E+03  0.7818608E-02  0.9323457E-01
         -1   -1    0    0    0  501 -0.00000000000E+00  0.00000000000E+00  0.18017942003E+03  0.18017942003E+03  0.00000000000E+00 0.  1.
          1   -1    0    0  501    0  0.00000000000E+00 -0.00000000000E+00 -0.13503434374E+04  0.13503434374E+04  0.00000000000E+00 0. -1.
         23    2    1    2    0    0 -0.39590980463E+02  0.29665969538E+03  0.95379755307E+01  0.31344799834E+03  0.92651249777E+02 0.  0.
         13    1    3    3    0    0  0.27794600891E+02  0.55444075752E+02  0.11020937589E+02  0.62992431609E+02  0.00000000000E+00 0. -1.
        -13    1    3    3    0    0 -0.67385581353E+02  0.24121561963E+03 -0.14829620588E+01  0.25045556673E+03  0.00000000000E+00 0.  1.
         22    1    1    2    0    0  0.39590980463E+02 -0.29665969538E+03 -0.11797019929E+04  0.12170748591E+04  0.00000000000E+00 0. -1.
<mgrwt>
<rscale>  0 0.98651730E+03</rscale>
<asrwt>0</asrwt>
<pdfrwt beam="1">  1        1 0.20774515E+00 0.98651730E+03</pdfrwt>
<pdfrwt beam="2">  1       -1 0.27719910E-01 0.98651730E+03</pdfrwt>
<totfact> 0.97847839E+01</totfact>
</mgrwt>
</event>
<event>
 6    1  0.1817112E-005  0.2932916E+04  0.7818608E-02  0.8263151E-01
         -2   -1    0    0    0  501 -0.00000000000E+00  0.00000000000E+00  0.17281655449E+04  0.17281655449E+04  0.00000000000E+00 0.  1.
          2   -1    0    0  501    0  0.00000000000E+00 -0.00000000000E+00 -0.12443823144E+04  0.12443823144E+04  0.00000000000E+00 0. -1.
         23    2    1    2    0    0 -0.57206784181E+03 -0.36854550889E+03  0.15577875420E+04  0.17011027489E+04  0.62937497106E+02 0.  0.
         13    1    3    3    0    0 -0.46869812131E+03 -0.30918205037E+03  0.12232199930E+04  0.13459341070E+04  0.00000000000E+00 0. -1.
        -13    1    3    3    0    0 -0.10336972051E+03 -0.59363458517E+02  0.33456754896E+03  0.35516864184E+03  0.00000000000E+00 0.  1.
         22    1    1    2    0    0  0.57206784181E+03  0.36854550889E+03 -0.10740043115E+04  0.12714451105E+04  0.00000000000E+00 0. -1.
<mgrwt>
<rscale>  0 0.29329157E+04</rscale>
<asrwt>0</asrwt>
<pdfrwt beam="1">  1        2 0.19144343E+00 0.29329157E+04</pdfrwt>
<pdfrwt beam="2">  1       -2 0.26587162E+00 0.29329157E+04</pdfrwt>
<totfact> 0.78801200E-01</totfact>
</mgrwt>
</event>
<event>
 6    1  0.1817112E-005  0.1310760E+04  0.7818608E-02  0.9021076E-01
         -2   -1    0    0    0  501 -0.00000000000E+00  0.00000000000E+00  0.26760493800E+03  0.26760493800E+03  0.00000000000E+00 0.  1.
          2   -1    0    0  501    0  0.00000000000E+00 -0.00000000000E+00 -0.16050633039E+04  0.16050633039E+04  0.00000000000E+00 0. -1.
         23    2    1    2    0    0  0.27551567060E+03 -0.51137524033E+03 -0.10957762709E+04  0.12435229834E+04  0.90610448022E+02 0.  0.
         11    1    3    3    0    0  0.71865550459E+02 -0.65047142460E+02 -0.19767958851E+03  0.22016586429E+03  0.00000000000E+00 0.  1.
        -11    1    3    3    0    0  0.20365012014E+03 -0.44632809787E+03 -0.89809668238E+03  0.10233571191E+04  0.00000000000E+00 0. -1.
         22    1    1    2    0    0 -0.27551567060E+03  0.51137524033E+03 -0.24168209497E+03  0.62914525843E+03  0.00000000000E+00 0.  1.
<mgrwt>
<rscale>  0 0.13107599E+04</rscale>
<asrwt>0</asrwt>
<pdfrwt beam="1">  1        2 0.24693282E+00 0.13107599E+04</pdfrwt>
<pdfrwt beam="2">  1       -2 0.41169990E-01 0.13107599E+04</pdfrwt>
<totfact> 0.60626006E+01</totfact>
</mgrwt>
</event>
<event>
 6    1  0.1817112E-005  0.9826185E+03  0.7818608E-02  0.9327817E-01
         -2   -1    0    0    0  501 -0.00000000000E+00  0.00000000000E+00  0.96270121775E+02  0.96270121775E+02  0.00000000000E+00 0.  1.
          2   -1    0    0  501    0  0.00000000000E+00 -0.00000000000E+00 -0.25073695295E+04  0.25073695295E+04  0.00000000000E+00 0. -1.
         23    2    1    2    0    0 -0.85958226303E+02 -0.39969031445E+03 -0.51180129550E+03  0.66083897101E+03  0.87329350127E+02 0.  0.
         13    1    3    3    0    0 -0.51796547022E+02 -0.23821554671E+03 -0.37081447550E+03  0.44377122960E+03  0.00000000000E+00 0.  1.
        -13    1    3    3    0    0 -0.34161679281E+02 -0.16147476774E+03 -0.14098682000E+03  0.21706774141E+03  0.00000000000E+00 0. -1.
         22    1    1    2    0    0  0.85958226303E+02  0.39969031445E+03 -0.18992981123E+04  0.19428006803E+04  0.00000000000E+00 0. -1.
<mgrwt>
<rscale>  0 0.98261848E+03</rscale>
<asrwt>0</asrwt>
<pdfrwt beam="1">  1        2 0.38574911E+00 0.98261848E+03</pdfrwt>
<pdfrwt beam="2">  1       -2 0.14810790E-01 0.98261848E+03</pdfrwt>
<totfact> 0.12523449E+02</totfact>
</mgrwt>
</event>
<event>
 6    1  0.1817112E-005  0.7383399E+03  0.7818608E-02  0.9653823E-01
         -1   -1    0    0    0  501 -0.00000000000E+00  0.00000000000E+00  0.11145040161E+03  0.11145040161E+03  0.00000000000E+00 0.  1.
          1   -1    0    0  501    0  0.00000000000E+00 -0.00000000000E+00 -0.12228438667E+04  0.12228438667E+04  0.00000000000E+00 0. -1.
         23    2    1    2    0    0  0.35879626650E+01 -0.13828330873E+03 -0.11717704935E+04  0.11833620567E+04  0.90357737566E+02 0.  0.
         11    1    3    3    0    0  0.21970775899E+00 -0.10440255158E+03 -0.10871073184E+04  0.10921090893E+04  0.00000000000E+00 0. -1.
        -11    1    3    3    0    0  0.33682549060E+01 -0.33880757149E+02 -0.84663175078E+02  0.91252967405E+02  0.00000000000E+00 0.  1.
         22    1    1    2    0    0 -0.35879626650E+01  0.13828330873E+03  0.60377028422E+02  0.15093221164E+03  0.00000000000E+00 0.  1.
<mgrwt>
<rscale>  0 0.73833987E+03</rscale>
<asrwt>0</asrwt>
<pdfrwt beam="1">  1        1 0.18812983E+00 0.73833987E+03</pdfrwt>
<pdfrwt beam="2">  1       -1 0.17146215E-01 0.73833987E+03</pdfrwt>
<totfact> 0.27551405E+02</totfact>
</mgrwt>
</event>
<event>
 6    1  0.1817112E-005  0.2424099E+04  0.7818608E-02  0.8430536E-01
          2   -1    0    0  501    0  0.00000000000E+00  0.00000000000E+00  0.37514828914E+04  0.37514828914E+04  0.00000000000E+00 0. -1.
         -2   -1    0    0    0  501 -0.00000000000E+00 -0.00000000000E+00 -0.39159545724E+03  0.39159545724E+03  0.00000000000E+00 0.  1.
         23    2    1    2    0    0  0.10978211156E+04 -0.50939001394E+03  0.16880013223E+04  0.20791276324E+04  0.93455119342E+02 0.  0.
         13    1    3    3    0    0  0.80662191058E+03 -0.36035833778E+03  0.12975514043E+04  0.15697568872E+04  0.00000000000E+00 0. -1.
        -13    1    3    3    0    0  0.29119920503E+03 -0.14903167616E+03  0.39044991804E+03  0.50937074514E+03  0.00000000000E+00 0.  1.
         22    1    1    2    0    0 -0.10978211156E+04  0.50939001394E+03  0.16718861118E+04  0.20639507162E+04  0.00000000000E+00 0.  1.
<mgrwt>
<rscale>  0 0.24240987E+04</rscale>
<asrwt>0</asrwt>
<pdfrwt beam="1">  1        2 0.57715119E+00 0.24240987E+04</pdfrwt>
<pdfrwt beam="2">  1       -2 0.60245457E-01 0.24240987E+04</pdfrwt>
<totfact> 0.12349989E+00</totfact>
</mgrwt>
</event>
<event>
 6    1  0.1817112E-005  0.4161236E+04  0.7818608E-02  0.7972787E-01
          2   -1    0    0  501    0  0.00000000000E+00  0.00000000000E+00  0.20062717858E+04  0.20062717858E+04  0.00000000000E+00 0. -1.
         -2   -1    0    0    0  501 -0.00000000000E+00 -0.00000000000E+00 -0.21577197157E+04  0.21577197157E+04  0.00000000000E+00 0.  1.
         23    2    1    2    0    0  0.11934851678E+04 -0.15457939348E+04 -0.79102476863E+03  0.21090111446E+04  0.91225483295E+02 0.  0.
         13    1    3    3    0    0  0.20670410819E+03 -0.30384839182E+03 -0.11891765617E+03  0.38625359869E+03  0.00000000000E+00 0. -1.
        -13    1    3    3    0    0  0.98678105961E+03 -0.12419455430E+04 -0.67210711246E+03  0.17227575459E+04  0.00000000000E+00 0.  1.
         22    1    1    2    0    0 -0.11934851678E+04  0.15457939348E+04  0.63957683878E+03  0.20549803569E+04  0.00000000000E+00 0. -1.
<mgrwt>
<rscale>  0 0.41612364E+04</rscale>
<asrwt>0</asrwt>
<pdfrwt beam="1">  1        2 0.30865720E+00 0.41612364E+04</pdfrwt>
<pdfrwt beam="2">  1       -2 0.33195688E+00 0.41612364E+04</pdfrwt>
<totfact> 0.10416443E-01</totfact>
</mgrwt>
</event>
<event>
 6    1  0.1817112E-005  0.2030753E+04  0.7818608E-02  0.8592376E-01
         -2   -1    0    0    0  501 -0.00000000000E+00  0.00000000000E+00  0.44813210779E+03  0.44813210779E+03  0.00000000000E+00 0. -1.
          2   -1    0    0  501    0  0.00000000000E+00 -0.00000000000E+00 -0.23006371124E+04  0.23006371124E+04  0.00000000000E+00 0.  1.
         23    2    1    2    0    0 -0.67959296128E+03 -0.75089325519E+03 -0.88792864243E+03  0.13501646184E+04  0.94021002891E+02 0.  0.
         13    1    3    3    0    0 -0.25048062569E+03 -0.23543399765E+03 -0.25541997227E+03  0.42826285541E+03  0.00000000000E+00 0. -1.
        -13    1    3    3    0    0 -0.42911233559E+03 -0.51545925754E+03 -0.63250867016E+03  0.92190176297E+03  0.00000000000E+00 0.  1.
         22    1    1    2    0    0  0.67959296128E+03  0.75089325519E+03 -0.96457636217E+03  0.13986046018E+04  0.00000000000E+00 0.  1.
<mgrwt>
<rscale>  0 0.20307529E+04</rscale>
<asrwt>0</asrwt>
<pdfrwt beam="1">  1        2 0.35394417E+00 0.20307529E+04</pdfrwt>
<pdfrwt beam="2">  1       -2 0.68943402E-01 0.20307529E+04</pdfrwt>
<totfact> 0.80681368E+00</totfact>
</mgrwt>
</event>
<event>
 6    1  0.1817112E-005  0.3279221E+04  0.7818608E-02  0.8168203E-01
          2   -1    0    0  501    0  0.00000000000E+00  0.00000000000E+00  0.15866614340E+04  0.15866614340E+04  0.00000000000E+00 0. -1.
         -2   -1    0    0    0  501 -0.00000000000E+00 -0.00000000000E+00 -0.16943263773E+04  0.16943263773E+04  0.00000000000E+00 0.  1.
         23    2    1    2    0    0  0.49181017548E+03  0.46642681898E+03 -0.15462328015E+04  0.16907335208E+04  0.91174204896E+02 0.  0.
         13    1    3    3    0    0  0.48754762714E+02  0.52791297005E+02 -0.24374111874E+03  0.25411351969E+03  0.00000000000E+00 0. -1.
        -13    1    3    3    0    0  0.44305541277E+03  0.41363552197E+03 -0.13024916828E+04  0.14366200011E+04  0.00000000000E+00 0.  1.
         22    1    1    2    0    0 -0.49181017548E+03 -0.46642681898E+03  0.14385678582E+04  0.15902542906E+04  0.00000000000E+00 0. -1.
<mgrwt>
<rscale>  0 0.32792208E+04</rscale>
<asrwt>0</asrwt>
<pdfrwt beam="1">  1        2 0.24410176E+00 0.32792208E+04</pdfrwt>
<pdfrwt beam="2">  1       -2 0.26066560E+00 0.32792208E+04</pdfrwt>
<totfact> 0.52464054E-01</totfact>
</mgrwt>
</event>
<event>
 6    1  0.1817112E-005  0.1761595E+04  0.7818608E-02  0.8726994E-01
         -2   -1    0    0    0  501 -0.00000000000E+00  0.00000000000E+00  0.24330025936E+03  0.24330025936E+03  0.00000000000E+00 0.  1.
          2   -1    0    0  501    0  0.00000000000E+00 -0.00000000000E+00 -0.31886709999E+04  0.31886709999E+04  0.00000000000E+00 0. -1.
         23    2    1    2    0    0 -0.78410550154E+02  0.86729756375E+03 -0.12612105188E+04  0.15359889464E+04  0.10127582183E+03 0.  0.
         13    1    3    3    0    0 -0.73537121833E+02  0.40917164157E+03 -0.66171943585E+03  0.78147408936E+03  0.00000000000E+00 0. -1.
        -13    1    3    3    0    0 -0.48734283211E+01  0.45812592218E+03 -0.59949108299E+03  0.75451485701E+03  0.00000000000E+00 0.  1.
         22    1    1    2    0    0  0.78410550154E+02 -0.86729756375E+03 -0.16841602217E+04  0.18959823129E+04  0.00000000000E+00 0. -1.
<mgrwt>
<rscale>  0 0.17615953E+04</rscale>
<asrwt>0</asrwt>
<pdfrwt beam="1">  1        2 0.49056476E+00 0.17615953E+04</pdfrwt>
<pdfrwt beam="2">  1       -2 0.37430810E-01 0.17615953E+04</pdfrwt>
<totfact> 0.84561522E+00</totfact>
</mgrwt>
</event>
<event>
 6    1  0.1817112E-005  0.2722264E+04  0.7818608E-02  0.8327817E-01
         -1   -1    0    0    0  501 -0.00000000000E+00  0.00000000000E+00  0.63409565497E+03  0.63409565497E+03  0.00000000000E+00 0.  1.
          1   -1    0    0  501    0  0.00000000000E+00 -0.00000000000E+00 -0.29217685445E+04  0.29217685445E+04  0.00000000000E+00 0. -1.
         23    2    1    2    0    0  0.34996269590E+02 -0.12218171287E+04 -0.36734661622E+03  0.12795261686E+04  0.90453549605E+02 0.  0.
         13    1    3    3    0    0  0.51673158096E+02 -0.42822047082E+03 -0.14788465552E+03  0.45597451490E+03  0.00000000000E+00 0.  1.
        -13    1    3    3    0    0 -0.16676888505E+02 -0.79359665793E+03 -0.21946196070E+03  0.82355165368E+03  0.00000000000E+00 0. -1.
         22    1    1    2    0    0 -0.34996269590E+02  0.12218171287E+04 -0.19203262733E+04  0.22763380309E+04  0.00000000000E+00 0. -1.
<mgrwt>
<rscale>  0 0.27222643E+04</rscale>
<asrwt>0</asrwt>
<pdfrwt beam="1">  1        1 0.44950286E+00 0.27222643E+04</pdfrwt>
<pdfrwt beam="2">  1       -1 0.97553177E-01 0.27222643E+04</pdfrwt>
<totfact> 0.59853658E-01</totfact>
</mgrwt>
</event>
<event>
 6    1  0.1817112E-005  0.1296278E+04  0.7818608E-02  0.9032522E-01
         -2   -1    0    0    0  501 -0.00000000000E+00  0.00000000000E+00  0.20495944702E+03  0.20495944702E+03  0.00000000000E+00 0.  1.
          2   -1    0    0  501    0  0.00000000000E+00 -0.00000000000E+00 -0.20495972364E+04  0.20495972364E+04  0.00000000000E+00 0. -1.
         23    2    1    2    0    0 -0.23448514483E+03 -0.56043905829E+03 -0.13032019975E+04  0.14407827972E+04  0.91893423066E+02 0.  0.
         11    1    3    3    0    0 -0.11555440750E+03 -0.38867723743E+03 -0.86523178990E+03  0.95553590526E+03  0.00000000000E+00 0. -1.
        -11    1    3    3    0    0 -0.11893073733E+03 -0.17176182086E+03 -0.43797020755E+03  0.48524689189E+03  0.00000000000E+00 0.  1.
         22    1    1    2    0    0  0.23448514483E+03  0.56043905829E+03 -0.54143579194E+03  0.81377388629E+03  0.00000000000E+00 0.  1.
<mgrwt>
<rscale>  0 0.12962782E+04</rscale>
<asrwt>0</asrwt>
<pdfrwt beam="1">  1        2 0.31532264E+00 0.12962782E+04</pdfrwt>
<pdfrwt beam="2">  1       -2 0.31532224E-01 0.12962782E+04</pdfrwt>
<totfact> 0.57475197E+01</totfact>
</mgrwt>
</event>
<event>
 6    1  0.1817112E-005  0.3774302E+04  0.7818608E-02  0.8051692E-01
          2   -1    0    0  501    0  0.00000000000E+00  0.00000000000E+00  0.28158516309E+04  0.28158516309E+04  0.00000000000E+00 0. -1.
         -2   -1    0    0    0  501 -0.00000000000E+00 -0.00000000000E+00 -0.12647463452E+04  0.12647463452E+04  0.00000000000E+00 0.  1.
         23    2    1    2    0    0  0.11703674826E+04  0.60651697638E+03 -0.68241413431E+03  0.14870999740E+04  0.90301688329E+02 0.  0.
         11    1    3    3    0    0  0.79336065414E+03  0.43997381025E+03 -0.43158766779E+03  0.10046223152E+04  0.00000000000E+00 0. -1.
        -11    1    3    3    0    0  0.37700682849E+03  0.16654316613E+03 -0.25082646652E+03  0.48247765878E+03  0.00000000000E+00 0.  1.
         22    1    1    2    0    0 -0.11703674826E+04 -0.60651697638E+03  0.22335194201E+04  0.25934980021E+04  0.00000000000E+00 0. -1.
<mgrwt>
<rscale>  0 0.37743016E+04</rscale>
<asrwt>0</asrwt>
<pdfrwt beam="1">  1        2 0.43320794E+00 0.37743016E+04</pdfrwt>
<pdfrwt beam="2">  1       -2 0.19457636E+00 0.37743016E+04</pdfrwt>
<totfact> 0.26242671E-01</totfact>
</mgrwt>
</event>
<event>
 6    1  0.1817112E-005  0.2820537E+04  0.7818608E-02  0.8296921E-01
         -2   -1    0    0    0  501 -0.00000000000E+00  0.00000000000E+00  0.11898142089E+04  0.11898142089E+04  0.00000000000E+00 0.  1.
          2   -1    0    0  501    0  0.00000000000E+00 -0.00000000000E+00 -0.16715693640E+04  0.16715693640E+04  0.00000000000E+00 0. -1.
         23    2    1    2    0    0 -0.70500802594E+03 -0.38409208876E+03  0.93325054812E+03  0.12344833947E+04  0.91812945896E+02 0.  0.
         13    1    3    3    0    0 -0.45998966530E+03 -0.29490571762E+03  0.60373013423E+03  0.81427879099E+03  0.00000000000E+00 0.  1.
        -13    1    3    3    0    0 -0.24501836064E+03 -0.89186371141E+02  0.32952041389E+03  0.42020460376E+03  0.00000000000E+00 0. -1.
         22    1    1    2    0    0  0.70500802594E+03  0.38409208876E+03 -0.14150057032E+04  0.16269001781E+04  0.00000000000E+00 0. -1.
<mgrwt>
<rscale>  0 0.28205368E+04</rscale>
<asrwt>0</asrwt>
<pdfrwt beam="1">  1        2 0.25716452E+00 0.28205368E+04</pdfrwt>
<pdfrwt beam="2">  1       -2 0.18304834E+00 0.28205368E+04</pdfrwt>
<totfact> 0.15268017E+00</totfact>
</mgrwt>
</event>
<event>
 6    1  0.1817112E-005  0.2011286E+04  0.7818608E-02  0.8601362E-01
          2   -1    0    0  501    0  0.00000000000E+00  0.00000000000E+00  0.86789820406E+03  0.86789820406E+03  0.00000000000E+00 0. -1.
         -2   -1    0    0    0  501 -0.00000000000E+00 -0.00000000000E+00 -0.11652491785E+04  0.11652491785E+04  0.00000000000E+00 0.  1.
         23    2    1    2    0    0  0.39903064136E+03 -0.51653119069E+03  0.62162219585E+03  0.90596434002E+03  0.91254081067E+02 0.  0.
         13    1    3    3    0    0  0.26817942833E+03 -0.31204061971E+03  0.33681703054E+03  0.53172856439E+03  0.00000000000E+00 0. -1.
        -13    1    3    3    0    0  0.13085121303E+03 -0.20449057098E+03  0.28480516531E+03  0.37423577563E+03  0.00000000000E+00 0.  1.
         22    1    1    2    0    0 -0.39903064136E+03  0.51653119069E+03 -0.91897317027E+03  0.11271830425E+04  0.00000000000E+00 0.  1.
<mgrwt>
<rscale>  0 0.20112858E+04</rscale>
<asrwt>0</asrwt>
<pdfrwt beam="1">  1        2 0.13352280E+00 0.20112858E+04</pdfrwt>
<pdfrwt beam="2">  1       -2 0.17926910E+00 0.20112858E+04</pdfrwt>
<totfact> 0.52498739E+00</totfact>
</mgrwt>
</event>
<event>
 6    1  0.1817112E-005  0.2567848E+04  0.7818608E-02  0.8379205E-01
         -2   -1    0    0    0  501 -0.00000000000E+00  0.00000000000E+00  0.34502566842E+03  0.34502566842E+03  0.00000000000E+00 0.  1.
          2   -1    0    0  501    0  0.00000000000E+00 -0.00000000000E+00 -0.47777919421E+04  0.47777919421E+04  0.00000000000E+00 0. -1.
         23    2    1    2    0    0 -0.11305978339E+04 -0.25370018913E+03 -0.11236755604E+04  0.16167234023E+04  0.92371784645E+02 0.  0.
         13    1    3    3    0    0 -0.48141067312E+03 -0.14374581310E+03 -0.44527054937E+03  0.67133073601E+03  0.00000000000E+00 0.  1.
        -13    1    3    3    0    0 -0.64918716078E+03 -0.10995437603E+03 -0.67840501098E+03  0.94539266628E+03  0.00000000000E+00 0. -1.
         22    1    1    2    0    0  0.11305978339E+04  0.25370018913E+03 -0.33090907134E+04  0.35060942083E+04  0.00000000000E+00 0.  1.
<mgrwt>
<rscale>  0 0.25678480E+04</rscale>
<asrwt>0</asrwt>
<pdfrwt beam="1">  1        2 0.73504494E+00 0.25678480E+04</pdfrwt>
<pdfrwt beam="2">  1       -2 0.53080870E-01 0.25678480E+04</pdfrwt>
<totfact> 0.18834950E-01</totfact>
</mgrwt>
</event>
<event>
 6    1  0.1817112E-005  0.1711168E+04  0.7818608E-02  0.8755021E-01
         -2   -1    0    0    0  501 -0.00000000000E+00  0.00000000000E+00  0.50416601367E+03  0.50416601367E+03  0.00000000000E+00 0.  1.
          2   -1    0    0  501    0  0.00000000000E+00 -0.00000000000E+00 -0.14519494807E+04  0.14519494807E+04  0.00000000000E+00 0. -1.
         23    2    1    2    0    0 -0.17914343110E+03  0.47077902746E+03  0.30757705233E+03  0.60346798110E+03  0.12587573036E+03 0.  0.
         13    1    3    3    0    0 -0.54139949070E+02  0.31380028796E+03  0.19430060976E+03  0.37303415629E+03  0.00000000000E+00 0.  1.
        -13    1    3    3    0    0 -0.12500348203E+03  0.15697873950E+03  0.11327644257E+03  0.23043382480E+03  0.00000000000E+00 0. -1.
         22    1    1    2    0    0  0.17914343110E+03 -0.47077902746E+03 -0.12553605194E+04  0.13526475133E+04  0.00000000000E+00 0. -1.
<mgrwt>
<rscale>  0 0.17111675E+04</rscale>
<asrwt>0</asrwt>
<pdfrwt beam="1">  1        2 0.22337684E+00 0.17111675E+04</pdfrwt>
<pdfrwt beam="2">  1       -2 0.77564003E-01 0.17111675E+04</pdfrwt>
<totfact> 0.19037714E+01</totfact>
</mgrwt>
</event>
<event>
 6    1  0.1817112E-005  0.8381003E+03  0.7818608E-02  0.9506449E-01
         -3   -1    0    0    0  501 -0.00000000000E+00  0.00000000000E+00  0.54522600105E+03  0.54522600105E+03  0.00000000000E+00 0.  1.
          3   -1    0    0  501    0  0.00000000000E+00 -0.00000000000E+00 -0.32207383325E+03  0.32207383325E+03  0.00000000000E+00 0. -1.
         23    2    1    2    0    0  0.25337286352E+03 -0.75189269797E+00  0.45168314569E+03  0.52608907662E+03  0.92486102323E+02 0.  0.
         13    1    3    3    0    0  0.16305449009E+03 -0.37541517005E+02  0.23510273323E+03  0.28856442506E+03  0.00000000000E+00 0.  1.
        -13    1    3    3    0    0  0.90318373429E+02  0.36789624307E+02  0.21658041246E+03  0.23752465156E+03  0.00000000000E+00 0. -1.
         22    1    1    2    0    0 -0.25337286352E+03  0.75189269797E+00 -0.22853097789E+03  0.34121075769E+03  0.00000000000E+00 0. -1.
<mgrwt>
<rscale>  0 0.83810030E+03</rscale>
<asrwt>0</asrwt>
<pdfrwt beam="1">  1        3 0.49549820E-01 0.83810030E+03</pdfrwt>
<pdfrwt beam="2">  1       -3 0.83880923E-01 0.83810030E+03</pdfrwt>
<totfact> 0.13910270E+01</totfact>
</mgrwt>
</event>
<event>
 6    1  0.1817112E-005  0.1266315E+04  0.7818608E-02  0.9056712E-01
          2   -1    0    0  501    0  0.00000000000E+00  0.00000000000E+00  0.20146182884E+04  0.20146182884E+04  0.00000000000E+00 0. -1.
         -2   -1    0    0    0  501 -0.00000000000E+00 -0.00000000000E+00 -0.19898982249E+03  0.19898982249E+03  0.00000000000E+00 0.  1.
         23    2    1    2    0    0  0.24246333750E+03  0.54305359730E+03  0.54971730113E+03  0.81495634697E+03  0.90934354037E+02 0.  0.
         11    1    3    3    0    0  0.11608293831E+03  0.20991290781E+03  0.27586360101E+03  0.36556723566E+03  0.00000000000E+00 0.  1.
        -11    1    3    3    0    0  0.12638039919E+03  0.33314068949E+03  0.27385370012E+03  0.44938911131E+03  0.00000000000E+00 0. -1.
         22    1    1    2    0    0 -0.24246333750E+03 -0.54305359730E+03  0.12659111648E+04  0.13986517639E+04  0.00000000000E+00 0. -1.
<mgrwt>
<rscale>  0 0.12663152E+04</rscale>
<asrwt>0</asrwt>
<pdfrwt beam="1">  1        2 0.30994126E+00 0.12663152E+04</pdfrwt>
<pdfrwt beam="2">  1       -2 0.30613820E-01 0.12663152E+04</pdfrwt>
<totfact> 0.63670958E+01</totfact>
</mgrwt>
</event>
<event>
 6    1  0.1817112E-005  0.5201298E+04  0.7818608E-02  0.7798184E-01
          2   -1    0    0  501    0  0.00000000000E+00  0.00000000000E+00  0.29942005147E+04  0.29942005147E+04  0.00000000000E+00 0. -1.
         -2   -1    0    0    0  501 -0.00000000000E+00 -0.00000000000E+00 -0.22588253617E+04  0.22588253617E+04  0.00000000000E+00 0.  1.
         23    2    1    2    0    0  0.23517487161E+04  0.10209608869E+04 -0.68049227154E+02  0.25662854925E+04  0.90040964391E+02 0.  0.
         13    1    3    3    0    0  0.64354748081E+03  0.30726395385E+03 -0.50147926102E+02  0.71489811294E+03  0.00000000000E+00 0. -1.
        -13    1    3    3    0    0  0.17082012353E+04  0.71369693307E+03 -0.17901301051E+02  0.18513873795E+04  0.00000000000E+00 0.  1.
         22    1    1    2    0    0 -0.23517487161E+04 -0.10209608869E+04  0.80342438015E+03  0.26867403840E+04  0.00000000000E+00 0. -1.
<mgrwt>
<rscale>  0 0.52012983E+04</rscale>
<asrwt>0</asrwt>
<pdfrwt beam="1">  1        2 0.46064623E+00 0.52012983E+04</pdfrwt>
<pdfrwt beam="2">  1       -2 0.34751159E+00 0.52012983E+04</pdfrwt>
<totfact> 0.20284969E-02</totfact>
</mgrwt>
</event>
<event>
 6    1  0.1817112E-005  0.2664147E+04  0.7818608E-02  0.8346733E-01
          2   -1    0    0  501    0  0.00000000000E+00  0.00000000000E+00  0.36142800847E+04  0.36142800847E+04  0.00000000000E+00 0. -1.
         -2   -1    0    0    0  501 -0.00000000000E+00 -0.00000000000E+00 -0.49094677933E+03  0.49094677933E+03  0.00000000000E+00 0.  1.
         23    2    1    2    0    0 -0.39155948340E+03  0.11282953802E+04  0.24682101291E+04  0.27430390392E+04  0.76371688429E+02 0.  0.
         11    1    3    3    0    0 -0.22038610129E+03  0.65632164914E+03  0.13450183646E+04  0.15127466879E+04  0.00000000000E+00 0.  1.
        -11    1    3    3    0    0 -0.17117338211E+03  0.47197373108E+03  0.11231917646E+04  0.12302923513E+04  0.00000000000E+00 0. -1.
         22    1    1    2    0    0  0.39155948340E+03 -0.11282953802E+04  0.65512317619E+03  0.13621878248E+04  0.00000000000E+00 0. -1.
<mgrwt>
<rscale>  0 0.26641465E+04</rscale>
<asrwt>0</asrwt>
<pdfrwt beam="1">  1        2 0.55604307E+00 0.26641465E+04</pdfrwt>
<pdfrwt beam="2">  1       -2 0.75530276E-01 0.26641465E+04</pdfrwt>
<totfact> 0.93316913E-01</totfact>
</mgrwt>
</event>
<event>
 6    1  0.2247923E-005  0.3847289E+04  0.7818608E-02  0.8036082E-01
         -2   -1    0    0    0  501 -0.00000000000E+00  0.00000000000E+00  0.12649649479E+04  0.12649649479E+04  0.00000000000E+00 0.  1.
          2   -1    0    0  501    0  0.00000000000E+00 -0.00000000000E+00 -0.29253053152E+04  0.29253053152E+04  0.00000000000E+00 0. -1.
         23    2    1    2    0    0  0.97896277060E+02  0.18898731657E+04 -0.11997934416E+04  0.22426286805E+04  0.93138782967E+02 0.  0.
         13    1    3    3    0    0 -0.83638898556E+01  0.63263300976E+03 -0.38236357011E+03  0.73925393434E+03  0.00000000000E+00 0. -1.
        -13    1    3    3    0    0  0.10626016692E+03  0.12572401559E+04 -0.81742987147E+03  0.15033747462E+04  0.00000000000E+00 0.  1.
         22    1    1    2    0    0 -0.97896277060E+02 -0.18898731657E+04 -0.46054692571E+03  0.19476415826E+04  0.00000000000E+00 0.  1.
<mgrwt>
<rscale>  0 0.38472893E+04</rscale>
<asrwt>0</asrwt>
<pdfrwt beam="1">  1        2 0.45004696E+00 0.38472893E+04</pdfrwt>
<pdfrwt beam="2">  1       -2 0.19461000E+00 0.38472893E+04</pdfrwt>
<totfact> 0.22338055E-01</totfact>
</mgrwt>
</event>
<event>
 6    1  0.1817112E-005  0.2336543E+04  0.7818608E-02  0.8463651E-01
          2   -1    0    0  501    0  0.00000000000E+00  0.00000000000E+00  0.75030859346E+03  0.75030859346E+03  0.00000000000E+00 0. -1.
         -2   -1    0    0    0  501 -0.00000000000E+00 -0.00000000000E+00 -0.18190619202E+04  0.18190619202E+04  0.00000000000E+00 0.  1.
         23    2    1    2    0    0 -0.11209935953E+04 -0.19232717594E+03 -0.82011311350E+03  0.14051375735E+04  0.90607384496E+02 0.  0.
         11    1    3    3    0    0 -0.65605652206E+03 -0.88382519792E+02 -0.52317224490E+03  0.84375993492E+03  0.00000000000E+00 0. -1.
        -11    1    3    3    0    0 -0.46493707325E+03 -0.10394465615E+03 -0.29694086859E+03  0.56137763855E+03  0.00000000000E+00 0.  1.
         22    1    1    2    0    0  0.11209935953E+04  0.19232717594E+03 -0.24864021322E+03  0.11642329402E+04  0.00000000000E+00 0. -1.
<mgrwt>
<rscale>  0 0.23365426E+04</rscale>
<asrwt>0</asrwt>
<pdfrwt beam="1">  1        2 0.11543209E+00 0.23365426E+04</pdfrwt>
<pdfrwt beam="2">  1       -2 0.27985567E+00 0.23365426E+04</pdfrwt>
<totfact> 0.14297484E+00</totfact>
</mgrwt>
</event>
<event>
 6    1  0.1817112E-005  0.4280661E+04  0.7818608E-02  0.7950204E-01
          2   -1    0    0  501    0  0.00000000000E+00  0.00000000000E+00  0.23218776068E+04  0.23218776068E+04  0.00000000000E+00 0. -1.
         -2   -1    0    0    0  501 -0.00000000000E+00 -0.00000000000E+00 -0.19729781444E+04  0.19729781444E+04  0.00000000000E+00 0.  1.
         23    2    1    2    0    0 -0.21093575116E+04 -0.31625712938E+03  0.99437331309E+01  0.21351570061E+04  0.96896228835E+02 0.  0.
         11    1    3    3    0    0 -0.10952837009E+04 -0.20601381811E+03  0.30371584598E+02  0.11149038129E+04  0.00000000000E+00 0. -1.
        -11    1    3    3    0    0 -0.10140738107E+04 -0.11024331127E+03 -0.20427851467E+02  0.10202531932E+04  0.00000000000E+00 0.  1.
         22    1    1    2    0    0  0.21093575116E+04  0.31625712938E+03  0.33895572928E+03  0.21596987452E+04  0.00000000000E+00 0. -1.
<mgrwt>
<rscale>  0 0.42806606E+04</rscale>
<asrwt>0</asrwt>
<pdfrwt beam="1">  1        2 0.35721194E+00 0.42806606E+04</pdfrwt>
<pdfrwt beam="2">  1       -2 0.30353510E+00 0.42806606E+04</pdfrwt>
<totfact> 0.10274247E-01</totfact>
</mgrwt>
</event>
<event>
 6    1  0.1817112E-005  0.6194960E+03  0.7818608E-02  0.9865764E-01
         -2   -1    0    0    0  501 -0.00000000000E+00  0.00000000000E+00  0.12338524505E+03  0.12338524505E+03  0.00000000000E+00 0.  1.
          2   -1    0    0  501    0  0.00000000000E+00 -0.00000000000E+00 -0.77759553811E+03  0.77759553811E+03  0.00000000000E+00 0. -1.
         23    2    1    2    0    0 -0.27195545077E+03 -0.12734837618E+03 -0.39319283591E+03  0.50310204654E+03  0.91289029471E+02 0.  0.
         11    1    3    3    0    0 -0.25273946292E+03 -0.83833419409E+02 -0.33180250356E+03  0.42543880840E+03  0.00000000000E+00 0.  1.
        -11    1    3    3    0    0 -0.19215987851E+02 -0.43514956770E+02 -0.61390332347E+02  0.77663238134E+02  0.00000000000E+00 0. -1.
         22    1    1    2    0    0  0.27195545077E+03  0.12734837618E+03 -0.26101745716E+03  0.39787873663E+03  0.00000000000E+00 0. -1.
<mgrwt>
<rscale>  0 0.61949598E+03</rscale>
<asrwt>0</asrwt>
<pdfrwt beam="1">  1        2 0.11963008E+00 0.61949598E+03</pdfrwt>
<pdfrwt beam="2">  1       -2 0.18982345E-01 0.61949598E+03</pdfrwt>
<totfact> 0.84093698E+02</totfact>
</mgrwt>
</event>
<event>
 6    1  0.1817112E-005  0.2967906E+04  0.7818608E-02  0.8252955E-01
          2   -1    0    0  501    0  0.00000000000E+00  0.00000000000E+00  0.24323470165E+04  0.24323470165E+04  0.00000000000E+00 0. -1.
         -2   -1    0    0    0  501 -0.00000000000E+00 -0.00000000000E+00 -0.90534655695E+03  0.90534655695E+03  0.00000000000E+00 0.  1.
         23    2    1    2    0    0  0.80803981973E+03  0.16644183612E+03 -0.62088792385E+03  0.10368120592E+04  0.94054223880E+02 0.  0.
         13    1    3    3    0    0  0.47547876060E+03  0.14396978906E+03 -0.38354095306E+03  0.62762330630E+03  0.00000000000E+00 0. -1.
        -13    1    3    3    0    0  0.33256105913E+03  0.22472047065E+02 -0.23734697080E+03  0.40918875290E+03  0.00000000000E+00 0.  1.
         22    1    1    2    0    0 -0.80803981973E+03 -0.16644183612E+03  0.21478883834E+04  0.23008815143E+04  0.00000000000E+00 0. -1.
<mgrwt>
<rscale>  0 0.29679063E+04</rscale>
<asrwt>0</asrwt>
<pdfrwt beam="1">  1        2 0.37420723E+00 0.29679063E+04</pdfrwt>
<pdfrwt beam="2">  1       -2 0.13928409E+00 0.29679063E+04</pdfrwt>
<totfact> 0.11896976E+00</totfact>
</mgrwt>
</event>
<event>
 6    1  0.1817112E-005  0.3536106E+03  0.7818608E-02  0.1061143E+00
         -2   -1    0    0    0  501 -0.00000000000E+00  0.00000000000E+00  0.66269115783E+02  0.66269115783E+02  0.00000000000E+00 0.  1.
          2   -1    0    0  501    0  0.00000000000E+00 -0.00000000000E+00 -0.47171480076E+03  0.47171480076E+03  0.00000000000E+00 0. -1.
         23    2    1    2    0    0  0.60912835913E+02  0.15126660401E+03 -0.25789295043E+03  0.31806627619E+03  0.89807700680E+02 0.  0.
         11    1    3    3    0    0  0.55005459451E+02  0.68652646362E+02 -0.68965446430E+02  0.11178112195E+03  0.00000000000E+00 0. -1.
        -11    1    3    3    0    0  0.59073764612E+01  0.82613957644E+02 -0.18892750400E+03  0.20628515424E+03  0.00000000000E+00 0.  1.
         22    1    1    2    0    0 -0.60912835913E+02 -0.15126660401E+03 -0.14755273455E+03  0.21991764035E+03  0.00000000000E+00 0. -1.
<mgrwt>
<rscale>  0 0.35361065E+03</rscale>
<asrwt>0</asrwt>
<pdfrwt beam="1">  1        2 0.72571506E-01 0.35361065E+03</pdfrwt>
<pdfrwt beam="2">  1       -2 0.10195249E-01 0.35361065E+03</pdfrwt>
<totfact> 0.42931550E+03</totfact>
</mgrwt>
</event>
<event>
 6    1  0.1817112E-005  0.2622601E+04  0.7818608E-02  0.8360564E-01
         -2   -1    0    0    0  501 -0.00000000000E+00  0.00000000000E+00  0.30179041479E+04  0.30179041479E+04  0.00000000000E+00 0.  1.
          2   -1    0    0  501    0  0.00000000000E+00 -0.00000000000E+00 -0.56976925014E+03  0.56976925014E+03  0.00000000000E+00 0. -1.
         23    2    1    2    0    0 -0.15415569201E+03  0.51341570685E+03  0.28602783340E+04  0.29114915605E+04  0.90726478062E+02 0.  0.
         13    1    3    3    0    0 -0.16330258130E+03  0.46411050632E+03  0.26528193483E+04  0.26980579663E+04  0.00000000000E+00 0. -1.
        -13    1    3    3    0    0  0.91468892886E+01  0.49305200533E+02  0.20745898572E+03  0.21343359421E+03  0.00000000000E+00 0.  1.
         22    1    1    2    0    0  0.15415569201E+03 -0.51341570685E+03 -0.41214343619E+03  0.67618183754E+03  0.00000000000E+00 0. -1.
<mgrwt>
<rscale>  0 0.26226010E+04</rscale>
<asrwt>0</asrwt>
<pdfrwt beam="1">  1        2 0.87656809E-01 0.26226010E+04</pdfrwt>
<pdfrwt beam="2">  1       -2 0.46429294E+00 0.26226010E+04</pdfrwt>
<totfact> 0.12998973E-01</totfact>
</mgrwt>
</event>
<event>
 6    1  0.1817112E-005  0.1631775E+04  0.7818608E-02  0.8801262E-01
          2   -1    0    0  501    0  0.00000000000E+00  0.00000000000E+00  0.12623302801E+04  0.12623302801E+04  0.00000000000E+00 0. -1.
         -2   -1    0    0    0  501 -0.00000000000E+00 -0.00000000000E+00 -0.52733599921E+03  0.52733599921E+03  0.00000000000E+00 0.  1.
         23    2    1    2    0    0 -0.99149504071E+02 -0.33734754293E+03 -0.43560673457E+03  0.56739759924E+03  0.92481455115E+02 0.  0.
         13    1    3    3    0    0 -0.33666244076E+02 -0.21863859551E+03 -0.32117706903E+03  0.38998841150E+03  0.00000000000E+00 0.  1.
        -13    1    3    3    0    0 -0.65483259995E+02 -0.11870894742E+03 -0.11442966555E+03  0.17740918774E+03  0.00000000000E+00 0. -1.
         22    1    1    2    0    0  0.99149504071E+02  0.33734754293E+03  0.11706010155E+04  0.12222686801E+04  0.00000000000E+00 0. -1.
<mgrwt>
<rscale>  0 0.16317747E+04</rscale>
<asrwt>0</asrwt>
<pdfrwt beam="1">  1        2 0.19420466E+00 0.16317747E+04</pdfrwt>
<pdfrwt beam="2">  1       -2 0.81128616E-01 0.16317747E+04</pdfrwt>
<totfact> 0.22287317E+01</totfact>
</mgrwt>
</event>
<event>
 6    1  0.1817112E-005  0.1540836E+04  0.7818608E-02  0.8857743E-01
         -2   -1    0    0    0  501 -0.00000000000E+00  0.00000000000E+00  0.41104037187E+03  0.41104037187E+03  0.00000000000E+00 0.  1.
          2   -1    0    0  501    0  0.00000000000E+00 -0.00000000000E+00 -0.14440030764E+04  0.14440030764E+04  0.00000000000E+00 0. -1.
         23    2    1    2    0    0  0.47210517207E+03 -0.76563771242E+02  0.20487673541E+03  0.52801979225E+03  0.89917293811E+02 0.  0.
         11    1    3    3    0    0  0.86533067836E+02 -0.28373460438E+02  0.53721196549E+01  0.91224364925E+02  0.00000000000E+00 0.  1.
        -11    1    3    3    0    0  0.38557210424E+03 -0.48190310803E+02  0.19950461575E+03  0.43679542732E+03  0.00000000000E+00 0. -1.
         22    1    1    2    0    0 -0.47210517207E+03  0.76563771242E+02 -0.12378394400E+04  0.13270236560E+04  0.00000000000E+00 0. -1.
<mgrwt>
<rscale>  0 0.15408356E+04</rscale>
<asrwt>0</asrwt>
<pdfrwt beam="1">  1        2 0.22215432E+00 0.15408356E+04</pdfrwt>
<pdfrwt beam="2">  1       -2 0.63236980E-01 0.15408356E+04</pdfrwt>
<totfact> 0.30462335E+01</totfact>
</mgrwt>
</event>
<event>
 6    1  0.1817112E-005  0.2661551E+04  0.7818608E-02  0.8347589E-01
         -1   -1    0    0    0  501 -0.00000000000E+00  0.00000000000E+00  0.79335415555E+03  0.79335415555E+03  0.00000000000E+00 0.  1.
          1   -1    0    0  501    0  0.00000000000E+00 -0.00000000000E+00 -0.22322483364E+04  0.22322483364E+04  0.00000000000E+00 0. -1.
         23    2    1    2    0    0  0.94066041720E+03  0.32288542280E+03  0.28199126040E+03  0.10380050180E+04  0.94012390870E+02 0.  0.
         13    1    3    3    0    0  0.12081356325E+03  0.39897543745E+02  0.69771885227E+02  0.14510633008E+03  0.00000000000E+00 0. -1.
        -13    1    3    3    0    0  0.81984685396E+03  0.28298787905E+03  0.21221937517E+03  0.89289868789E+03  0.00000000000E+00 0.  1.
         22    1    1    2    0    0 -0.94066041720E+03 -0.32288542280E+03 -0.17208854413E+04  0.19875974740E+04  0.00000000000E+00 0. -1.
<mgrwt>
<rscale>  0 0.26615510E+04</rscale>
<asrwt>0</asrwt>
<pdfrwt beam="1">  1        1 0.34342282E+00 0.26615510E+04</pdfrwt>
<pdfrwt beam="2">  1       -1 0.12205449E+00 0.26615510E+04</pdfrwt>
<totfact> 0.10768328E+00</totfact>
</mgrwt>
</event>
<event>
 6    1  0.1817112E-005  0.1609962E+04  0.7818608E-02  0.8814451E-01
         -2   -1    0    0    0  501 -0.00000000000E+00  0.00000000000E+00  0.13039311264E+04  0.13039311264E+04  0.00000000000E+00 0.  1.
          2   -1    0    0  501    0  0.00000000000E+00 -0.00000000000E+00 -0.49695441040E+03  0.49695441040E+03  0.00000000000E+00 0. -1.
         23    2    1    2    0    0 -0.78598722173E+03  0.16567607725E+03  0.42396184992E+03  0.91098393383E+03  0.70168384765E+02 0.  0.
         13    1    3    3    0    0 -0.45492528664E+03  0.12778599460E+03  0.26533751255E+03  0.54193198135E+03  0.00000000000E+00 0.  1.
        -13    1    3    3    0    0 -0.33106193508E+03  0.37890082651E+02  0.15862433737E+03  0.36905195248E+03  0.00000000000E+00 0. -1.
         22    1    1    2    0    0  0.78598722173E+03 -0.16567607725E+03  0.38301486603E+03  0.88990160293E+03  0.00000000000E+00 0. -1.
<mgrwt>
<rscale>  0 0.16099619E+04</rscale>
<asrwt>0</asrwt>
<pdfrwt beam="1">  1        2 0.76454525E-01 0.16099619E+04</pdfrwt>
<pdfrwt beam="2">  1       -2 0.20060479E+00 0.16099619E+04</pdfrwt>
<totfact> 0.78242084E+00</totfact>
</mgrwt>
</event>
<event>
 6    1  0.1817112E-005  0.2555228E+04  0.7818608E-02  0.8383570E-01
         -2   -1    0    0    0  501 -0.00000000000E+00  0.00000000000E+00  0.15164086439E+04  0.15164086439E+04  0.00000000000E+00 0.  1.
          2   -1    0    0  501    0  0.00000000000E+00 -0.00000000000E+00 -0.10764234461E+04  0.10764234461E+04  0.00000000000E+00 0. -1.
         23    2    1    2    0    0 -0.70137164903E+03  0.10559344527E+04  0.72220730215E+02  0.12729190391E+04  0.90483632257E+02 0.  0.
         13    1    3    3    0    0 -0.49358772741E+03  0.70669972321E+03  0.86207069401E+02  0.86630537471E+03  0.00000000000E+00 0. -1.
        -13    1    3    3    0    0 -0.20778392162E+03  0.34923472949E+03 -0.13986339186E+02  0.40661366436E+03  0.00000000000E+00 0.  1.
         22    1    1    2    0    0  0.70137164903E+03 -0.10559344527E+04  0.36776446752E+03  0.13199130509E+04  0.00000000000E+00 0. -1.
<mgrwt>
<rscale>  0 0.25552282E+04</rscale>
<asrwt>0</asrwt>
<pdfrwt beam="1">  1        2 0.16560361E+00 0.25552282E+04</pdfrwt>
<pdfrwt beam="2">  1       -2 0.23329364E+00 0.25552282E+04</pdfrwt>
<totfact> 0.16310575E+00</totfact>
</mgrwt>
</event>
<event>
 6    1  0.1817112E-005  0.2713810E+04  0.7818608E-02  0.8330538E-01
         -2   -1    0    0    0  501 -0.00000000000E+00  0.00000000000E+00  0.41941348274E+03  0.41941348274E+03  0.00000000000E+00 0.  1.
          2   -1    0    0  501    0  0.00000000000E+00 -0.00000000000E+00 -0.43899187611E+04  0.43899187611E+04  0.00000000000E+00 0. -1.
         23    2    1    2    0    0  0.83987362522E+03 -0.10172547066E+04 -0.14363634042E+04  0.19523985935E+04  0.92334145356E+02 0.  0.
         13    1    3    3    0    0  0.39124137750E+03 -0.40317001937E+03 -0.59914145784E+03  0.82133206835E+03  0.00000000000E+00 0. -1.
        -13    1    3    3    0    0  0.44863224772E+03 -0.61408468721E+03 -0.83722194640E+03  0.11310665251E+04  0.00000000000E+00 0.  1.
         22    1    1    2    0    0 -0.83987362522E+03  0.10172547066E+04 -0.25341418742E+04  0.28569336504E+04  0.00000000000E+00 0. -1.
<mgrwt>
<rscale>  0 0.27138100E+04</rscale>
<asrwt>0</asrwt>
<pdfrwt beam="1">  1        2 0.67537213E+00 0.27138100E+04</pdfrwt>
<pdfrwt beam="2">  1       -2 0.64525150E-01 0.27138100E+04</pdfrwt>
<totfact> 0.30553985E-01</totfact>
</mgrwt>
</event>
<event>
 6    1  0.1817112E-005  0.1480172E+04  0.7818608E-02  0.8897746E-01
          2   -1    0    0  501    0  0.00000000000E+00  0.00000000000E+00  0.42480721525E+03  0.42480721525E+03  0.00000000000E+00 0. -1.
         -2   -1    0    0    0  501 -0.00000000000E+00 -0.00000000000E+00 -0.12893552193E+04  0.12893552193E+04  0.00000000000E+00 0.  1.
         23    2    1    2    0    0  0.68214143969E+03  0.25228823450E+02 -0.75662269368E+03  0.10230753851E+04  0.90840001236E+02 0.  0.
         11    1    3    3    0    0  0.21382893800E+03  0.42776992369E+02 -0.27657985240E+03  0.35220604843E+03  0.00000000000E+00 0. -1.
        -11    1    3    3    0    0  0.46831250169E+03 -0.17548168919E+02 -0.48004284129E+03  0.67086933671E+03  0.00000000000E+00 0.  1.
         22    1    1    2    0    0 -0.68214143969E+03 -0.25228823450E+02 -0.10792531040E+03  0.69108704943E+03  0.00000000000E+00 0. -1.
<mgrwt>
<rscale>  0 0.14801722E+04</rscale>
<asrwt>0</asrwt>
<pdfrwt beam="1">  1        2 0.65354957E-01 0.14801722E+04</pdfrwt>
<pdfrwt beam="2">  1       -2 0.19836234E+00 0.14801722E+04</pdfrwt>
<totfact> 0.97889986E+00</totfact>
</mgrwt>
</event>
<event>
 6    1  0.1817112E-005  0.3421063E+04  0.7818608E-02  0.8132756E-01
          2   -1    0    0  501    0  0.00000000000E+00  0.00000000000E+00  0.32258366673E+04  0.32258366673E+04  0.00000000000E+00 0. -1.
         -2   -1    0    0    0  501 -0.00000000000E+00 -0.00000000000E+00 -0.90702588204E+03  0.90702588204E+03  0.00000000000E+00 0.  1.
         23    2    1    2    0    0  0.76015230764E+03  0.60781455959E+03 -0.53725252862E+03  0.11155180674E+04  0.92033741420E+02 0.  0.
         13    1    3    3    0    0  0.33844739033E+03  0.30202454015E+03 -0.29447490171E+03  0.54081505767E+03  0.00000000000E+00 0. -1.
        -13    1    3    3    0    0  0.42170491731E+03  0.30579001945E+03 -0.24277762691E+03  0.57470300974E+03  0.00000000000E+00 0.  1.
         22    1    1    2    0    0 -0.76015230764E+03 -0.60781455959E+03  0.28560633138E+04  0.30173444819E+04  0.00000000000E+00 0. -1.
<mgrwt>
<rscale>  0 0.34210626E+04</rscale>
<asrwt>0</asrwt>
<pdfrwt beam="1">  1        2 0.49628256E+00 0.34210626E+04</pdfrwt>
<pdfrwt beam="2">  1       -2 0.13954244E+00 0.34210626E+04</pdfrwt>
<totfact> 0.37322731E-01</totfact>
</mgrwt>
</event>
<event>
 6    1  0.1817112E-005  0.2194662E+04  0.7818608E-02  0.8520653E-01
         -2   -1    0    0    0  501 -0.00000000000E+00  0.00000000000E+00  0.61217892788E+03  0.61217892788E+03  0.00000000000E+00 0.  1.
          2   -1    0    0  501    0  0.00000000000E+00 -0.00000000000E+00 -0.19669656720E+04  0.19669656720E+04  0.00000000000E+00 0. -1.
         23    2    1    2    0    0  0.98321517581E+02 -0.63247009949E+03  0.36615889552E+03  0.74302384073E+03  0.91249896171E+02 0.  0.
         11    1    3    3    0    0  0.38746722058E+02 -0.13564375923E+03  0.12078819613E+03  0.18571571343E+03  0.00000000000E+00 0. -1.
        -11    1    3    3    0    0  0.59574795523E+02 -0.49682634026E+03  0.24537069938E+03  0.55730812730E+03  0.00000000000E+00 0.  1.
         22    1    1    2    0    0 -0.98321517581E+02  0.63247009949E+03 -0.17209456396E+04  0.18361207591E+04  0.00000000000E+00 0. -1.
<mgrwt>
<rscale>  0 0.21946616E+04</rscale>
<asrwt>0</asrwt>
<pdfrwt beam="1">  1        2 0.30261010E+00 0.21946616E+04</pdfrwt>
<pdfrwt beam="2">  1       -2 0.94181374E-01 0.21946616E+04</pdfrwt>
<totfact> 0.60612126E+00</totfact>
</mgrwt>
</event>
<event>
 6    1  0.1817112E-005  0.2941553E+04  0.7818608E-02  0.8260621E-01
          1   -1    0    0  501    0  0.00000000000E+00  0.00000000000E+00  0.17694427386E+04  0.17694427386E+04  0.00000000000E+00 0. -1.
         -1   -1    0    0    0  501 -0.00000000000E+00 -0.00000000000E+00 -0.12225225169E+04  0.12225225169E+04  0.00000000000E+00 0.  1.
         23    2    1    2    0    0  0.13736675402E+04  0.38890363589E+03  0.62758143155E+03  0.15620300192E+04  0.88717409226E+02 0.  0.
         11    1    3    3    0    0  0.93350627306E+03  0.27789631294E+03  0.47047554337E+03  0.10816688770E+04  0.00000000000E+00 0. -1.
        -11    1    3    3    0    0  0.44016126714E+03  0.11100732294E+03  0.15710588818E+03  0.48036114220E+03  0.00000000000E+00 0.  1.
         22    1    1    2    0    0 -0.13736675402E+04 -0.38890363589E+03 -0.80661209846E+02  0.14299352362E+04  0.00000000000E+00 0.  1.
<mgrwt>
<rscale>  0 0.29415531E+04</rscale>
<asrwt>0</asrwt>
<pdfrwt beam="1">  1        1 0.27222196E+00 0.29415531E+04</pdfrwt>
<pdfrwt beam="2">  1       -1 0.18808039E+00 0.29415531E+04</pdfrwt>
<totfact> 0.66636332E-01</totfact>
</mgrwt>
</event>
<event>
 6    1  0.1817112E-005  0.2266548E+04  0.7818608E-02  0.8491229E-01
         -2   -1    0    0    0  501 -0.00000000000E+00  0.00000000000E+00  0.39946167855E+03  0.39946167855E+03  0.00000000000E+00 0.  1.
          2   -1    0    0  501    0  0.00000000000E+00 -0.00000000000E+00 -0.32151021030E+04  0.32151021030E+04  0.00000000000E+00 0. -1.
         23    2    1    2    0    0  0.12642644317E+03  0.95756564857E+03 -0.47021993219E+03  0.10780478832E+04  0.90359487957E+02 0.  0.
         11    1    3    3    0    0  0.69818604661E+02  0.51581926901E+03 -0.30326842465E+03  0.60242501046E+03  0.00000000000E+00 0.  1.
        -11    1    3    3    0    0  0.56607838509E+02  0.44174637956E+03 -0.16695150753E+03  0.47562287277E+03  0.00000000000E+00 0. -1.
         22    1    1    2    0    0 -0.12642644317E+03 -0.95756564857E+03 -0.23454204922E+04  0.25365158983E+04  0.00000000000E+00 0. -1.
<mgrwt>
<rscale>  0 0.22665481E+04</rscale>
<asrwt>0</asrwt>
<pdfrwt beam="1">  1        2 0.49463110E+00 0.22665481E+04</pdfrwt>
<pdfrwt beam="2">  1       -2 0.61455642E-01 0.22665481E+04</pdfrwt>
<totfact> 0.28412148E+00</totfact>
</mgrwt>
</event>
<event>
 6    1  0.1817112E-005  0.1891584E+04  0.7818608E-02  0.8659057E-01
         -2   -1    0    0    0  501 -0.00000000000E+00  0.00000000000E+00  0.10693652628E+04  0.10693652628E+04  0.00000000000E+00 0.  1.
          2   -1    0    0  501    0  0.00000000000E+00 -0.00000000000E+00 -0.83649850753E+03  0.83649850753E+03  0.00000000000E+00 0. -1.
         23    2    1    2    0    0  0.16418323300E+03  0.30265196104E+02  0.10524053602E+04  0.10694932538E+04  0.91578718309E+02 0.  0.
         13    1    3    3    0    0  0.91157696674E+02  0.85424076804E+01  0.31137917712E+03  0.32456076524E+03  0.00000000000E+00 0.  1.
        -13    1    3    3    0    0  0.73025536323E+02  0.21722788423E+02  0.74102618304E+03  0.74493248852E+03  0.00000000000E+00 0. -1.
         22    1    1    2    0    0 -0.16418323300E+03 -0.30265196104E+02 -0.81953860489E+03  0.83637051658E+03  0.00000000000E+00 0. -1.
<mgrwt>
<rscale>  0 0.18915839E+04</rscale>
<asrwt>0</asrwt>
<pdfrwt beam="1">  1        2 0.12869208E+00 0.18915839E+04</pdfrwt>
<pdfrwt beam="2">  1       -2 0.16451773E+00 0.18915839E+04</pdfrwt>
<totfact> 0.70926099E+00</totfact>
</mgrwt>
</event>
<event>
 6    1  0.1817112E-005  0.2779758E+04  0.7818608E-02  0.8309580E-01
          2   -1    0    0  501    0  0.00000000000E+00  0.00000000000E+00  0.29697453180E+04  0.29697453180E+04  0.00000000000E+00 0. -1.
         -2   -1    0    0    0  501 -0.00000000000E+00 -0.00000000000E+00 -0.65048134718E+03  0.65048134718E+03  0.00000000000E+00 0.  1.
         23    2    1    2    0    0 -0.94510330605E+03  0.76990488865E+03  0.20261863412E+04  0.23664849479E+04  0.94053828464E+02 0.  0.
         13    1    3    3    0    0 -0.76869556349E+03  0.57730366042E+03  0.15802206410E+04  0.18496674457E+04  0.00000000000E+00 0. -1.
        -13    1    3    3    0    0 -0.17640774255E+03  0.19260122824E+03  0.44596570026E+03  0.51681750218E+03  0.00000000000E+00 0.  1.
         22    1    1    2    0    0  0.94510330605E+03 -0.76990488865E+03  0.29307762961E+03  0.12537417173E+04  0.00000000000E+00 0.  1.
<mgrwt>
<rscale>  0 0.27797582E+04</rscale>
<asrwt>0</asrwt>
<pdfrwt beam="1">  1        2 0.45688389E+00 0.27797582E+04</pdfrwt>
<pdfrwt beam="2">  1       -2 0.10007405E+00 0.27797582E+04</pdfrwt>
<totfact> 0.13065818E+00</totfact>
</mgrwt>
</event>
<event>
 6    1  0.1817112E-005  0.1392267E+04  0.7818608E-02  0.8959435E-01
          2   -1    0    0  501    0  0.00000000000E+00  0.00000000000E+00  0.24844967614E+04  0.24844967614E+04  0.00000000000E+00 0. -1.
         -2   -1    0    0    0  501 -0.00000000000E+00 -0.00000000000E+00 -0.19505043562E+03  0.19505043562E+03  0.00000000000E+00 0.  1.
         23    2    1    2    0    0 -0.30685003868E+03 -0.21872707052E+03  0.29540812154E+02  0.38844017024E+03  0.89524458462E+02 0.  0.
         13    1    3    3    0    0 -0.17293702250E+03 -0.15981551625E+03  0.49981593400E+02  0.24072052813E+03  0.00000000000E+00 0. -1.
        -13    1    3    3    0    0 -0.13391301617E+03 -0.58911554268E+02 -0.20440781247E+02  0.14771964211E+03  0.00000000000E+00 0.  1.
         22    1    1    2    0    0  0.30685003868E+03  0.21872707052E+03  0.22599055136E+04  0.22911070268E+04  0.00000000000E+00 0. -1.
<mgrwt>
<rscale>  0 0.13922675E+04</rscale>
<asrwt>0</asrwt>
<pdfrwt beam="1">  1        2 0.38223025E+00 0.13922675E+04</pdfrwt>
<pdfrwt beam="2">  1       -2 0.30007761E-01 0.13922675E+04</pdfrwt>
<totfact> 0.35601667E+01</totfact>
</mgrwt>
</event>
<event>
 6    1  0.1817112E-005  0.2696447E+04  0.7818608E-02  0.8336159E-01
         -2   -1    0    0    0  501 -0.00000000000E+00  0.00000000000E+00  0.10165399291E+04  0.10165399291E+04  0.00000000000E+00 0.  1.
          2   -1    0    0  501    0  0.00000000000E+00 -0.00000000000E+00 -0.17881313573E+04  0.17881313573E+04  0.00000000000E+00 0. -1.
         23    2    1    2    0    0  0.74339685210E+02  0.13422506632E+04 -0.46950493085E+03  0.14268398440E+04  0.90960589332E+02 0.  0.
         13    1    3    3    0    0  0.27493636968E+02  0.89568056046E+03 -0.35146797463E+03  0.96256392185E+03  0.00000000000E+00 0.  1.
        -13    1    3    3    0    0  0.46846048242E+02  0.44657010273E+03 -0.11803695621E+03  0.46427592218E+03  0.00000000000E+00 0. -1.
         22    1    1    2    0    0 -0.74339685210E+02 -0.13422506632E+04 -0.30208649738E+03  0.13778314423E+04  0.00000000000E+00 0. -1.
<mgrwt>
<rscale>  0 0.26964472E+04</rscale>
<asrwt>0</asrwt>
<pdfrwt beam="1">  1        2 0.27509713E+00 0.26964472E+04</pdfrwt>
<pdfrwt beam="2">  1       -2 0.15639076E+00 0.26964472E+04</pdfrwt>
<totfact> 0.20605873E+00</totfact>
</mgrwt>
</event>
<event>
 6    1  0.1817112E-005  0.2130138E+04  0.7818608E-02  0.8548082E-01
         -2   -1    0    0    0  501 -0.00000000000E+00  0.00000000000E+00  0.78851600397E+03  0.78851600397E+03  0.00000000000E+00 0.  1.
          2   -1    0    0  501    0  0.00000000000E+00 -0.00000000000E+00 -0.14386167088E+04  0.14386167088E+04  0.00000000000E+00 0. -1.
         23    2    1    2    0    0 -0.84729868210E+03 -0.60160464271E+03 -0.56007156908E+03  0.11840850398E+04  0.92379738949E+02 0.  0.
         11    1    3    3    0    0 -0.30881280922E+03 -0.18681987927E+03 -0.15481066072E+03  0.39272555189E+03  0.00000000000E+00 0.  1.
        -11    1    3    3    0    0 -0.53848587288E+03 -0.41478476344E+03 -0.40526090836E+03  0.79135948792E+03  0.00000000000E+00 0. -1.
         22    1    1    2    0    0  0.84729868210E+03  0.60160464271E+03 -0.90029135749E+02  0.10430476730E+04  0.00000000000E+00 0.  1.
<mgrwt>
<rscale>  0 0.21301383E+04</rscale>
<asrwt>0</asrwt>
<pdfrwt beam="1">  1        2 0.22132565E+00 0.21301383E+04</pdfrwt>
<pdfrwt beam="2">  1       -2 0.12131015E+00 0.21301383E+04</pdfrwt>
<totfact> 0.65357866E+00</totfact>
</mgrwt>
</event>
<event>
 6    1  0.1817112E-005  0.4104602E+04  0.7818608E-02  0.7983771E-01
          2   -1    0    0  501    0  0.00000000000E+00  0.00000000000E+00  0.15694278219E+04  0.15694278219E+04  0.00000000000E+00 0. -1.
         -2   -1    0    0    0  501 -0.00000000000E+00 -0.00000000000E+00 -0.26837424379E+04  0.26837424379E+04  0.00000000000E+00 0.  1.
         23    2    1    2    0    0 -0.99742697566E+03  0.17679209386E+04 -0.86406395768E+03  0.22079244533E+04  0.88987930213E+02 0.  0.
         11    1    3    3    0    0 -0.46861674007E+03  0.92094678823E+03 -0.43618554021E+03  0.11216070886E+04  0.00000000000E+00 0. -1.
        -11    1    3    3    0    0 -0.52881023559E+03  0.84697415038E+03 -0.42787841747E+03  0.10863173647E+04  0.00000000000E+00 0.  1.
         22    1    1    2    0    0  0.99742697566E+03 -0.17679209386E+04 -0.25025065835E+03  0.20452458065E+04  0.00000000000E+00 0.  1.
<mgrwt>
<rscale>  0 0.41046023E+04</rscale>
<asrwt>0</asrwt>
<pdfrwt beam="1">  1        2 0.24145044E+00 0.41046023E+04</pdfrwt>
<pdfrwt beam="2">  1       -2 0.41288345E+00 0.41046023E+04</pdfrwt>
<totfact> 0.55421094E-02</totfact>
</mgrwt>
</event>
<event>
 6    1  0.1817112E-005  0.4341028E+04  0.7818608E-02  0.7939075E-01
          2   -1    0    0  501    0  0.00000000000E+00  0.00000000000E+00  0.16243161350E+04  0.16243161350E+04  0.00000000000E+00 0. -1.
         -2   -1    0    0    0  501 -0.00000000000E+00 -0.00000000000E+00 -0.29003779271E+04  0.29003779271E+04  0.00000000000E+00 0.  1.
         23    2    1    2    0    0  0.73425465387E+02 -0.16918963589E+04  0.77516444413E+03  0.18647253291E+04  0.91739030165E+02 0.  0.
         13    1    3    3    0    0  0.45678985471E+02 -0.12701049794E+04  0.62358196621E+03  0.14156651077E+04  0.00000000000E+00 0. -1.
        -13    1    3    3    0    0  0.27746479916E+02 -0.42179137942E+03  0.15158247792E+03  0.44906022147E+03  0.00000000000E+00 0.  1.
         22    1    1    2    0    0 -0.73425465387E+02  0.16918963589E+04 -0.20512262363E+04  0.26599687330E+04  0.00000000000E+00 0.  1.
<mgrwt>
<rscale>  0 0.43410278E+04</rscale>
<asrwt>0</asrwt>
<pdfrwt beam="1">  1        2 0.24989479E+00 0.43410278E+04</pdfrwt>
<pdfrwt beam="2">  1       -2 0.44621199E+00 0.43410278E+04</pdfrwt>
<totfact> 0.30523993E-02</totfact>
</mgrwt>
</event>
<event>
 6    1  0.1817112E-005  0.5603393E+04  0.7818608E-02  0.7741620E-01
         -2   -1    0    0    0  501 -0.00000000000E+00  0.00000000000E+00  0.25125240226E+04  0.25125240226E+04  0.00000000000E+00 0.  1.
          2   -1    0    0  501    0  0.00000000000E+00 -0.00000000000E+00 -0.31241510299E+04  0.31241510299E+04  0.00000000000E+00 0. -1.
         23    2    1    2    0    0  0.10603980336E+04  0.19607924951E+04 -0.20118095611E+04  0.30042498622E+04  0.94806779773E+02 0.  0.
         13    1    3    3    0    0  0.86519937115E+03  0.15199448812E+04 -0.15888021552E+04  0.23628573131E+04  0.00000000000E+00 0.  1.
        -13    1    3    3    0    0  0.19519866247E+03  0.44084761393E+03 -0.42300740591E+03  0.64139254907E+03  0.00000000000E+00 0. -1.
         22    1    1    2    0    0 -0.10603980336E+04 -0.19607924951E+04  0.14001825538E+04  0.26324251903E+04  0.00000000000E+00 0.  1.
<mgrwt>
<rscale>  0 0.56033934E+04</rscale>
<asrwt>0</asrwt>
<pdfrwt beam="1">  1        2 0.48063862E+00 0.56033934E+04</pdfrwt>
<pdfrwt beam="2">  1       -2 0.38654216E+00 0.56033934E+04</pdfrwt>
<totfact> 0.91543924E-03</totfact>
</mgrwt>
</event>
<event>
 6    1  0.1817112E-005  0.1267224E+04  0.7818608E-02  0.9055968E-01
         -2   -1    0    0    0  501 -0.00000000000E+00  0.00000000000E+00  0.31570898250E+03  0.31570898250E+03  0.00000000000E+00 0.  1.
          2   -1    0    0  501    0  0.00000000000E+00 -0.00000000000E+00 -0.12716270707E+04  0.12716270707E+04  0.00000000000E+00 0. -1.
         23    2    1    2    0    0  0.60557937168E+02  0.62725862202E+03 -0.48672983514E+03  0.80167820179E+03  0.93066450240E+02 0.  0.
         11    1    3    3    0    0  0.72105417306E+02  0.50904455104E+03 -0.35779668954E+03  0.62637370410E+03  0.00000000000E+00 0. -1.
        -11    1    3    3    0    0 -0.11547480138E+02  0.11821407098E+03 -0.12893314560E+03  0.17530449769E+03  0.00000000000E+00 0.  1.
         22    1    1    2    0    0 -0.60557937168E+02 -0.62725862202E+03 -0.46918825301E+03  0.78565785137E+03  0.00000000000E+00 0. -1.
<mgrwt>
<rscale>  0 0.12672239E+04</rscale>
<asrwt>0</asrwt>
<pdfrwt beam="1">  1        2 0.19563493E+00 0.12672239E+04</pdfrwt>
<pdfrwt beam="2">  1       -2 0.48570613E-01 0.12672239E+04</pdfrwt>
<totfact> 0.67718555E+01</totfact>
</mgrwt>
</event>
<event>
 6    1  0.1817112E-005  0.1654200E+04  0.7818608E-02  0.8787926E-01
         -2   -1    0    0    0  501 -0.00000000000E+00  0.00000000000E+00  0.50029698476E+03  0.50029698476E+03  0.00000000000E+00 0.  1.
          2   -1    0    0  501    0  0.00000000000E+00 -0.00000000000E+00 -0.13673764140E+04  0.13673764140E+04  0.00000000000E+00 0. -1.
         23    2    1    2    0    0 -0.37524464617E+03  0.34216295828E+03  0.29875011286E+03  0.59604351718E+03  0.90178766577E+02 0.  0.
         11    1    3    3    0    0 -0.25506003735E+03  0.17284398331E+03  0.17576555264E+03  0.35471706291E+03  0.00000000000E+00 0.  1.
        -11    1    3    3    0    0 -0.12018460882E+03  0.16931897496E+03  0.12298456022E+03  0.24132645427E+03  0.00000000000E+00 0. -1.
         22    1    1    2    0    0  0.37524464617E+03 -0.34216295828E+03 -0.11658295421E+04  0.12716298816E+04  0.00000000000E+00 0. -1.
<mgrwt>
<rscale>  0 0.16541999E+04</rscale>
<asrwt>0</asrwt>
<pdfrwt beam="1">  1        2 0.21036560E+00 0.16541999E+04</pdfrwt>
<pdfrwt beam="2">  1       -2 0.76968767E-01 0.16541999E+04</pdfrwt>
<totfact> 0.21748547E+01</totfact>
</mgrwt>
</event>
<event>
 6    1  0.1817112E-005  0.3078120E+04  0.7818608E-02  0.8221768E-01
          2   -1    0    0  501    0  0.00000000000E+00  0.00000000000E+00  0.74164163752E+03  0.74164163752E+03  0.00000000000E+00 0. -1.
         -2   -1    0    0    0  501 -0.00000000000E+00 -0.00000000000E+00 -0.31938682581E+04  0.31938682581E+04  0.00000000000E+00 0.  1.
         23    2    1    2    0    0  0.73826021067E+03  0.10590965561E+04 -0.22950898996E+04  0.26349693915E+04  0.94405471275E+02 0.  0.
         11    1    3    3    0    0  0.23274688062E+03  0.41185438146E+03 -0.85695389500E+03  0.97885909105E+03  0.00000000000E+00 0. -1.
        -11    1    3    3    0    0  0.50551333005E+03  0.64724217462E+03 -0.14381360046E+04  0.16561103004E+04  0.00000000000E+00 0.  1.
         22    1    1    2    0    0 -0.73826021067E+03 -0.10590965561E+04 -0.15713672095E+03  0.13005405041E+04  0.00000000000E+00 0. -1.
<mgrwt>
<rscale>  0 0.30781200E+04</rscale>
<asrwt>0</asrwt>
<pdfrwt beam="1">  1        2 0.11409871E+00 0.30781200E+04</pdfrwt>
<pdfrwt beam="2">  1       -2 0.49136435E+00 0.30781200E+04</pdfrwt>
<totfact> 0.60307722E-02</totfact>
</mgrwt>
</event>
<event>
 6    1  0.1817112E-005  0.6836369E+03  0.7818608E-02  0.9745632E-01
          2   -1    0    0  501    0  0.00000000000E+00  0.00000000000E+00  0.11583719196E+04  0.11583719196E+04  0.00000000000E+00 0. -1.
         -2   -1    0    0    0  501 -0.00000000000E+00 -0.00000000000E+00 -0.10086556995E+03  0.10086556995E+03  0.00000000000E+00 0.  1.
         23    2    1    2    0    0 -0.33273552789E+03 -0.44435792608E+02  0.55228456997E+03  0.65265977990E+03  0.90879430529E+02 0.  0.
         13    1    3    3    0    0 -0.18406734413E+03  0.15246311053E+02  0.25365908495E+03  0.31377725946E+03  0.00000000000E+00 0.  1.
        -13    1    3    3    0    0 -0.14866818376E+03 -0.59682103662E+02  0.29862548502E+03  0.33888252044E+03  0.00000000000E+00 0. -1.
         22    1    1    2    0    0  0.33273552789E+03  0.44435792608E+02  0.50522177969E+03  0.60657770966E+03  0.00000000000E+00 0. -1.
<mgrwt>
<rscale>  0 0.68363687E+03</rscale>
<asrwt>0</asrwt>
<pdfrwt beam="1">  1        2 0.17821106E+00 0.68363687E+03</pdfrwt>
<pdfrwt beam="2">  1       -2 0.15517781E-01 0.68363687E+03</pdfrwt>
<totfact> 0.66985979E+02</totfact>
</mgrwt>
</event>
<event>
 6    1  0.1817112E-005  0.2042823E+04  0.7818608E-02  0.8586857E-01
          2   -1    0    0  501    0  0.00000000000E+00  0.00000000000E+00  0.14371954434E+04  0.14371954434E+04  0.00000000000E+00 0. -1.
         -2   -1    0    0    0  501 -0.00000000000E+00 -0.00000000000E+00 -0.72591470657E+03  0.72591470657E+03  0.00000000000E+00 0.  1.
         23    2    1    2    0    0  0.62568505779E+02  0.82386198178E+03 -0.27588915038E+03  0.87579986523E+03  0.90814083242E+02 0.  0.
         11    1    3    3    0    0  0.17664365779E+02  0.68536616276E+03 -0.23003645236E+03  0.72315667479E+03  0.00000000000E+00 0. -1.
        -11    1    3    3    0    0  0.44904140000E+02  0.13849581901E+03 -0.45852698021E+02  0.15264319045E+03  0.00000000000E+00 0.  1.
         22    1    1    2    0    0 -0.62568505779E+02 -0.82386198178E+03  0.98716988718E+03  0.12873102847E+04  0.00000000000E+00 0. -1.
<mgrwt>
<rscale>  0 0.20428229E+04</rscale>
<asrwt>0</asrwt>
<pdfrwt beam="1">  1        2 0.22110699E+00 0.20428229E+04</pdfrwt>
<pdfrwt beam="2">  1       -2 0.11167919E+00 0.20428229E+04</pdfrwt>
<totfact> 0.80806963E+00</totfact>
</mgrwt>
</event>
<event>
 6    1  0.1817112E-005  0.1583896E+04  0.7818608E-02  0.8830503E-01
          1   -1    0    0  501    0  0.00000000000E+00  0.00000000000E+00  0.85160176867E+03  0.85160176867E+03  0.00000000000E+00 0. -1.
         -1   -1    0    0    0  501 -0.00000000000E+00 -0.00000000000E+00 -0.73647293102E+03  0.73647293102E+03  0.00000000000E+00 0.  1.
         23    2    1    2    0    0  0.48431120343E+03  0.51518099987E+03 -0.29286369283E+03  0.77172507526E+03  0.99104211955E+02 0.  0.
         11    1    3    3    0    0  0.17007181044E+02  0.54082446448E+02 -0.33516096228E+02  0.65859577339E+02  0.00000000000E+00 0. -1.
        -11    1    3    3    0    0  0.46730402238E+03  0.46109855342E+03 -0.25934759660E+03  0.70586549793E+03  0.00000000000E+00 0.  1.
         22    1    1    2    0    0 -0.48431120343E+03 -0.51518099987E+03  0.40799253047E+03  0.81634962443E+03  0.00000000000E+00 0. -1.
<mgrwt>
<rscale>  0 0.15838960E+04</rscale>
<asrwt>0</asrwt>
<pdfrwt beam="1">  1        1 0.13101566E+00 0.15838960E+04</pdfrwt>
<pdfrwt beam="2">  1       -1 0.11330353E+00 0.15838960E+04</pdfrwt>
<totfact> 0.13648526E+01</totfact>
</mgrwt>
</event>
<event>
 6    1  0.1817112E-005  0.3714974E+04  0.7818608E-02  0.8064651E-01
          2   -1    0    0  501    0  0.00000000000E+00  0.00000000000E+00  0.25486141305E+04  0.25486141305E+04  0.00000000000E+00 0.  1.
         -2   -1    0    0    0  501 -0.00000000000E+00 -0.00000000000E+00 -0.13537784214E+04  0.13537784214E+04  0.00000000000E+00 0. -1.
         23    2    1    2    0    0  0.10689865212E+04  0.61701239618E+03  0.20543405793E+04  0.23983363357E+04  0.90914706618E+02 0.  0.
         13    1    3    3    0    0  0.67684717237E+03  0.43109538749E+03  0.12830520116E+04  0.15133366421E+04  0.00000000000E+00 0.  1.
        -13    1    3    3    0    0  0.39213934884E+03  0.18591700869E+03  0.77128856765E+03  0.88499969357E+03  0.00000000000E+00 0. -1.
         22    1    1    2    0    0 -0.10689865212E+04 -0.61701239618E+03 -0.85950487023E+03  0.15040562162E+04  0.00000000000E+00 0. -1.
<mgrwt>
<rscale>  0 0.37149745E+04</rscale>
<asrwt>0</asrwt>
<pdfrwt beam="1">  1        2 0.39209448E+00 0.37149745E+04</pdfrwt>
<pdfrwt beam="2">  1       -2 0.20827360E+00 0.37149745E+04</pdfrwt>
<totfact> 0.30935209E-01</totfact>
</mgrwt>
</event>
<event>
 6    1  0.1817112E-005  0.1140244E+04  0.7818608E-02  0.9166832E-01
          2   -1    0    0  501    0  0.00000000000E+00  0.00000000000E+00  0.24335142432E+04  0.24335142432E+04  0.00000000000E+00 0. -1.
         -2   -1    0    0    0  501 -0.00000000000E+00 -0.00000000000E+00 -0.13356772021E+03  0.13356772021E+03  0.00000000000E+00 0.  1.
         23    2    1    2    0    0  0.32125060691E+03 -0.26308245596E+03  0.20240986294E+04  0.20685778095E+04  0.98104848211E+02 0.  0.
         13    1    3    3    0    0  0.43291468601E+02 -0.88088501339E+02  0.47932685480E+03  0.48927289835E+03  0.00000000000E+00 0.  1.
        -13    1    3    3    0    0  0.27795913830E+03 -0.17499395462E+03  0.15447717746E+04  0.15793049111E+04  0.00000000000E+00 0. -1.
         22    1    1    2    0    0 -0.32125060691E+03  0.26308245596E+03  0.27584789353E+03  0.49850415388E+03  0.00000000000E+00 0.  1.
<mgrwt>
<rscale>  0 0.11402437E+04</rscale>
<asrwt>0</asrwt>
<pdfrwt beam="1">  1        2 0.37438677E+00 0.11402437E+04</pdfrwt>
<pdfrwt beam="2">  1       -2 0.20548882E-01 0.11402437E+04</pdfrwt>
<totfact> 0.77283717E+01</totfact>
</mgrwt>
</event>
<event>
 6    1  0.1817112E-005  0.1881372E+04  0.7818608E-02  0.8664185E-01
         -2   -1    0    0    0  501 -0.00000000000E+00  0.00000000000E+00  0.50722642094E+03  0.50722642094E+03  0.00000000000E+00 0.  1.
          2   -1    0    0  501    0  0.00000000000E+00 -0.00000000000E+00 -0.17445659367E+04  0.17445659367E+04  0.00000000000E+00 0. -1.
         23    2    1    2    0    0  0.71221741845E+02 -0.52957413634E+03 -0.15434687094E+04  0.16359706419E+04  0.92644383198E+02 0.  0.
         13    1    3    3    0    0  0.24837932595E+02 -0.95750908538E+02 -0.19464168094E+03  0.21833584988E+03  0.00000000000E+00 0.  1.
        -13    1    3    3    0    0  0.46383809250E+02 -0.43382322780E+03 -0.13488270285E+04  0.14176347920E+04  0.00000000000E+00 0. -1.
         22    1    1    2    0    0 -0.71221741845E+02  0.52957413634E+03  0.30612919366E+03  0.61582171576E+03  0.00000000000E+00 0.  1.
<mgrwt>
<rscale>  0 0.18813718E+04</rscale>
<asrwt>0</asrwt>
<pdfrwt beam="1">  1        2 0.26839476E+00 0.18813718E+04</pdfrwt>
<pdfrwt beam="2">  1       -2 0.78034834E-01 0.18813718E+04</pdfrwt>
<totfact> 0.12698167E+01</totfact>
</mgrwt>
</event>
<event>
 6    1  0.1817112E-005  0.2430142E+04  0.7818608E-02  0.8428304E-01
          2   -1    0    0  501    0  0.00000000000E+00  0.00000000000E+00  0.22411006253E+04  0.22411006253E+04  0.00000000000E+00 0. -1.
         -2   -1    0    0    0  501 -0.00000000000E+00 -0.00000000000E+00 -0.65878240511E+03  0.65878240511E+03  0.00000000000E+00 0.  1.
         23    2    1    2    0    0 -0.67863163267E+03  0.73317666920E+03  0.16141317696E+04  0.19003326200E+04  0.88055526364E+02 0.  0.
         13    1    3    3    0    0 -0.37319207341E+03  0.41688791625E+03  0.98406664184E+03  0.11320136987E+04  0.00000000000E+00 0.  1.
        -13    1    3    3    0    0 -0.30543955926E+03  0.31628875295E+03  0.63006512775E+03  0.76831892129E+03  0.00000000000E+00 0. -1.
         22    1    1    2    0    0  0.67863163267E+03 -0.73317666920E+03 -0.31813549389E+02  0.99955041046E+03  0.00000000000E+00 0.  1.
<mgrwt>
<rscale>  0 0.24301421E+04</rscale>
<asrwt>0</asrwt>
<pdfrwt beam="1">  1        2 0.34478471E+00 0.24301421E+04</pdfrwt>
<pdfrwt beam="2">  1       -2 0.10135114E+00 0.24301421E+04</pdfrwt>
<totfact> 0.35127218E+00</totfact>
</mgrwt>
</event>
<event>
 6    1  0.1817112E-005  0.1638257E+04  0.7818608E-02  0.8797384E-01
          2   -1    0    0  501    0  0.00000000000E+00  0.00000000000E+00  0.10102456358E+04  0.10102456358E+04  0.00000000000E+00 0. -1.
         -2   -1    0    0    0  501 -0.00000000000E+00 -0.00000000000E+00 -0.66416633148E+03  0.66416633148E+03  0.00000000000E+00 0.  1.
         23    2    1    2    0    0  0.32247031334E+03 -0.21759145094E+03  0.90741092955E+03  0.99145784298E+03  0.90889585923E+02 0.  0.
         11    1    3    3    0    0  0.23420369461E+03 -0.12315038444E+03  0.68318756432E+03  0.73264086413E+03  0.00000000000E+00 0.  1.
        -11    1    3    3    0    0  0.88266618729E+02 -0.94441066500E+02  0.22422336524E+03  0.25881697885E+03  0.00000000000E+00 0. -1.
         22    1    1    2    0    0 -0.32247031334E+03  0.21759145094E+03 -0.56133162520E+03  0.68295412434E+03  0.00000000000E+00 0.  1.
<mgrwt>
<rscale>  0 0.16382566E+04</rscale>
<asrwt>0</asrwt>
<pdfrwt beam="1">  1        2 0.15542241E+00 0.16382566E+04</pdfrwt>
<pdfrwt beam="2">  1       -2 0.10217944E+00 0.16382566E+04</pdfrwt>
<totfact> 0.18615946E+01</totfact>
</mgrwt>
</event>
<event>
 6    1  0.1817112E-005  0.1442440E+04  0.7818608E-02  0.8923658E-01
          1   -1    0    0  501    0  0.00000000000E+00  0.00000000000E+00  0.43814167780E+03  0.43814167780E+03  0.00000000000E+00 0. -1.
         -1   -1    0    0    0  501 -0.00000000000E+00 -0.00000000000E+00 -0.11871921497E+04  0.11871921497E+04  0.00000000000E+00 0.  1.
         23    2    1    2    0    0  0.31044925683E+03  0.19685371514E+03 -0.10715325473E+04  0.11363299266E+04  0.89070623807E+02 0.  0.
         13    1    3    3    0    0  0.28886984785E+03  0.15174101539E+03 -0.96428074013E+03  0.10179923725E+04  0.00000000000E+00 0. -1.
        -13    1    3    3    0    0  0.21579408978E+02  0.45112699751E+02 -0.10725180713E+03  0.11833755407E+03  0.00000000000E+00 0.  1.
         22    1    1    2    0    0 -0.31044925683E+03 -0.19685371514E+03  0.32248207532E+03  0.48900390093E+03  0.00000000000E+00 0. -1.
<mgrwt>
<rscale>  0 0.14424401E+04</rscale>
<asrwt>0</asrwt>
<pdfrwt beam="1">  1        1 0.67406412E-01 0.14424401E+04</pdfrwt>
<pdfrwt beam="2">  1       -1 0.18264495E+00 0.14424401E+04</pdfrwt>
<totfact> 0.10277071E+01</totfact>
</mgrwt>
</event>
<event>
 6    1  0.1817112E-005  0.1688943E+04  0.7818608E-02  0.8767696E-01
          2   -1    0    0  501    0  0.00000000000E+00  0.00000000000E+00  0.20438665737E+04  0.20438665737E+04  0.00000000000E+00 0. -1.
         -2   -1    0    0    0  501 -0.00000000000E+00 -0.00000000000E+00 -0.34891323258E+03  0.34891323258E+03  0.00000000000E+00 0.  1.
         23    2    1    2    0    0  0.39972344959E+03 -0.50583526449E+03  0.16171863331E+04  0.17433986713E+04  0.92190780346E+02 0.  0.
         11    1    3    3    0    0  0.21840001965E+03 -0.25171539936E+03  0.71818876000E+03  0.79174131246E+03  0.00000000000E+00 0.  1.
        -11    1    3    3    0    0  0.18132342994E+03 -0.25411986513E+03  0.89899757313E+03  0.95165735881E+03  0.00000000000E+00 0. -1.
         22    1    1    2    0    0 -0.39972344959E+03  0.50583526449E+03  0.77767007976E+02  0.64938113499E+03  0.00000000000E+00 0.  1.
<mgrwt>
<rscale>  0 0.16889430E+04</rscale>
<asrwt>0</asrwt>
<pdfrwt beam="1">  1        2 0.31444100E+00 0.16889430E+04</pdfrwt>
<pdfrwt beam="2">  1       -2 0.53678960E-01 0.16889430E+04</pdfrwt>
<totfact> 0.19672064E+01</totfact>
</mgrwt>
</event>
<event>
 6    1  0.1817112E-005  0.3152345E+04  0.7818608E-02  0.8201517E-01
         -2   -1    0    0    0  501 -0.00000000000E+00  0.00000000000E+00  0.93646129717E+03  0.93646129717E+03  0.00000000000E+00 0. -1.
          2   -1    0    0  501    0  0.00000000000E+00 -0.00000000000E+00 -0.26528798379E+04  0.26528798379E+04  0.00000000000E+00 0.  1.
         23    2    1    2    0    0 -0.44256711351E+03  0.12189970614E+04 -0.18764374149E+04  0.22826561977E+04  0.87649638259E+02 0.  0.
         11    1    3    3    0    0 -0.23971058426E+03  0.71884979295E+03 -0.11625788661E+04  0.13877304525E+04  0.00000000000E+00 0. -1.
        -11    1    3    3    0    0 -0.20285652926E+03  0.50014726843E+03 -0.71385854884E+03  0.89492574515E+03  0.00000000000E+00 0.  1.
         22    1    1    2    0    0  0.44256711351E+03 -0.12189970614E+04  0.16001887413E+03  0.13066849374E+04  0.00000000000E+00 0. -1.
<mgrwt>
<rscale>  0 0.31523447E+04</rscale>
<asrwt>0</asrwt>
<pdfrwt beam="1">  1        2 0.40813536E+00 0.31523447E+04</pdfrwt>
<pdfrwt beam="2">  1       -2 0.14407097E+00 0.31523447E+04</pdfrwt>
<totfact> 0.79766298E-01</totfact>
</mgrwt>
</event>
<event>
 6    1  0.1817112E-005  0.2702755E+04  0.7818608E-02  0.8334111E-01
         -2   -1    0    0    0  501 -0.00000000000E+00  0.00000000000E+00  0.48271896091E+03  0.48271896091E+03  0.00000000000E+00 0. -1.
          2   -1    0    0  501    0  0.00000000000E+00 -0.00000000000E+00 -0.37831987763E+04  0.37831987763E+04  0.00000000000E+00 0.  1.
         23    2    1    2    0    0  0.29388067367E+03 -0.13091056853E+04 -0.18867472564E+04  0.23168761025E+04  0.89309120386E+02 0.  0.
         11    1    3    3    0    0  0.15916661343E+03 -0.73512145323E+03 -0.11329219012E+04  0.13598711689E+04  0.00000000000E+00 0.  1.
        -11    1    3    3    0    0  0.13471406024E+03 -0.57398423206E+03 -0.75382535524E+03  0.95700493358E+03  0.00000000000E+00 0. -1.
         22    1    1    2    0    0 -0.29388067367E+03  0.13091056853E+04 -0.14137325589E+04  0.19490416347E+04  0.00000000000E+00 0.  1.
<mgrwt>
<rscale>  0 0.27027555E+04</rscale>
<asrwt>0</asrwt>
<pdfrwt beam="1">  1        2 0.58203055E+00 0.27027555E+04</pdfrwt>
<pdfrwt beam="2">  1       -2 0.74264459E-01 0.27027555E+04</pdfrwt>
<totfact> 0.72458135E-01</totfact>
</mgrwt>
</event>
<event>
 6    1  0.1817112E-005  0.1962380E+04  0.7818608E-02  0.8624414E-01
          2   -1    0    0  501    0  0.00000000000E+00  0.00000000000E+00  0.22476650851E+04  0.22476650851E+04  0.00000000000E+00 0. -1.
         -2   -1    0    0    0  501 -0.00000000000E+00 -0.00000000000E+00 -0.42832638717E+03  0.42832638717E+03  0.00000000000E+00 0.  1.
         23    2    1    2    0    0 -0.82584676486E+03  0.32614340520E+02  0.19606200713E+03  0.85442242633E+03  0.92253984969E+02 0.  0.
         11    1    3    3    0    0 -0.76767704994E+03  0.19531866620E+02  0.20325068784E+03  0.79436791786E+03  0.00000000000E+00 0. -1.
        -11    1    3    3    0    0 -0.58169714911E+02  0.13082473901E+02 -0.71886807158E+01  0.60054508462E+02  0.00000000000E+00 0.  1.
         22    1    1    2    0    0  0.82584676486E+03 -0.32614340520E+02  0.16232766909E+04  0.18215690460E+04  0.00000000000E+00 0. -1.
<mgrwt>
<rscale>  0 0.19623805E+04</rscale>
<asrwt>0</asrwt>
<pdfrwt beam="1">  1        2 0.34579462E+00 0.19623805E+04</pdfrwt>
<pdfrwt beam="2">  1       -2 0.65896369E-01 0.19623805E+04</pdfrwt>
<totfact> 0.95888542E+00</totfact>
</mgrwt>
</event>
<event>
 6    1  0.1817112E-005  0.5281201E+04  0.7818608E-02  0.7786535E-01
         -2   -1    0    0    0  501 -0.00000000000E+00  0.00000000000E+00  0.24206485571E+04  0.24206485571E+04  0.00000000000E+00 0.  1.
          2   -1    0    0  501    0  0.00000000000E+00 -0.00000000000E+00 -0.28805387502E+04  0.28805387502E+04  0.00000000000E+00 0. -1.
         23    2    1    2    0    0  0.93058929132E+03  0.24630254401E+04 -0.42052993008E+03  0.26679307725E+04  0.92295380121E+02 0.  0.
         13    1    3    3    0    0  0.70930019776E+03  0.19357534865E+04 -0.29673902941E+03  0.20828591845E+04  0.00000000000E+00 0. -1.
        -13    1    3    3    0    0  0.22128909356E+03  0.52727195365E+03 -0.12379090067E+03  0.58507158803E+03  0.00000000000E+00 0.  1.
         22    1    1    2    0    0 -0.93058929132E+03 -0.24630254401E+04 -0.39360263067E+02  0.26332565348E+04  0.00000000000E+00 0. -1.
<mgrwt>
<rscale>  0 0.52812014E+04</rscale>
<asrwt>0</asrwt>
<pdfrwt beam="1">  1        2 0.44315981E+00 0.52812014E+04</pdfrwt>
<pdfrwt beam="2">  1       -2 0.37240747E+00 0.52812014E+04</pdfrwt>
<totfact> 0.16476542E-02</totfact>
</mgrwt>
</event>
<event>
 6    1  0.1817112E-005  0.2274600E+04  0.7818608E-02  0.8488004E-01
          2   -1    0    0  501    0  0.00000000000E+00  0.00000000000E+00  0.29947028528E+04  0.29947028528E+04  0.00000000000E+00 0. -1.
         -2   -1    0    0    0  501 -0.00000000000E+00 -0.00000000000E+00 -0.43191301007E+03  0.43191301007E+03  0.00000000000E+00 0.  1.
         23    2    1    2    0    0  0.61025083085E+01  0.49129077505E+03 -0.26176579543E+03  0.55964561201E+03  0.57253935484E+02 0.  0.
         13    1    3    3    0    0 -0.21099742598E+01  0.18331470317E+03 -0.12903398761E+03  0.22418408139E+03  0.00000000000E+00 0.  1.
        -13    1    3    3    0    0  0.82124825683E+01  0.30797607187E+03 -0.13273180783E+03  0.33546153062E+03  0.00000000000E+00 0. -1.
         22    1    1    2    0    0 -0.61025083085E+01 -0.49129077505E+03  0.28245556382E+04  0.28669702509E+04  0.00000000000E+00 0. -1.
<mgrwt>
<rscale>  0 0.22745999E+04</rscale>
<asrwt>0</asrwt>
<pdfrwt beam="1">  1        2 0.46072350E+00 0.22745999E+04</pdfrwt>
<pdfrwt beam="2">  1       -2 0.66448158E-01 0.22745999E+04</pdfrwt>
<totfact> 0.33212739E+00</totfact>
</mgrwt>
</event>
<event>
 6    1  0.1817112E-005  0.1620816E+04  0.7818608E-02  0.8807861E-01
          2   -1    0    0  501    0  0.00000000000E+00  0.00000000000E+00  0.18368684542E+04  0.18368684542E+04  0.00000000000E+00 0. -1.
         -2   -1    0    0    0  501 -0.00000000000E+00 -0.00000000000E+00 -0.35754372124E+03  0.35754372124E+03  0.00000000000E+00 0.  1.
         23    2    1    2    0    0  0.49372902817E+03  0.10729826577E+03 -0.11245955401E+03  0.52436472481E+03  0.83844750847E+02 0.  0.
         11    1    3    3    0    0  0.28142581709E+03  0.63563493926E+02 -0.10643127171E+03  0.30751979429E+03  0.00000000000E+00 0.  1.
        -11    1    3    3    0    0  0.21230321108E+03  0.43734771843E+02 -0.60282822917E+01  0.21684493052E+03  0.00000000000E+00 0. -1.
         22    1    1    2    0    0 -0.49372902817E+03 -0.10729826577E+03  0.15917842869E+04  0.16700474506E+04  0.00000000000E+00 0. -1.
<mgrwt>
<rscale>  0 0.16208156E+04</rscale>
<asrwt>0</asrwt>
<pdfrwt beam="1">  1        2 0.28259514E+00 0.16208156E+04</pdfrwt>
<pdfrwt beam="2">  1       -2 0.55006727E-01 0.16208156E+04</pdfrwt>
<totfact> 0.24494658E+01</totfact>
</mgrwt>
</event>
<event>
 6    1  0.1817112E-005  0.1947554E+04  0.7818608E-02  0.8631541E-01
         -2   -1    0    0    0  501 -0.00000000000E+00  0.00000000000E+00  0.37619532615E+03  0.37619532615E+03  0.00000000000E+00 0. -1.
          2   -1    0    0  501    0  0.00000000000E+00 -0.00000000000E+00 -0.25206092882E+04  0.25206092882E+04  0.00000000000E+00 0.  1.
         23    2    1    2    0    0  0.26523602456E+03 -0.89628257226E+03 -0.14693736035E+04  0.17438292965E+04  0.90604802747E+02 0.  0.
         13    1    3    3    0    0  0.18543469108E+03 -0.72930734268E+03 -0.12172710441E+04  0.14310918977E+04  0.00000000000E+00 0. -1.
        -13    1    3    3    0    0  0.79801333483E+02 -0.16697522958E+03 -0.25210255941E+03  0.31273739875E+03  0.00000000000E+00 0.  1.
         22    1    1    2    0    0 -0.26523602456E+03  0.89628257226E+03 -0.67504035849E+03  0.11529753179E+04  0.00000000000E+00 0.  1.
<mgrwt>
<rscale>  0 0.19475538E+04</rscale>
<asrwt>0</asrwt>
<pdfrwt beam="1">  1        2 0.38778605E+00 0.19475538E+04</pdfrwt>
<pdfrwt beam="2">  1       -2 0.57876203E-01 0.19475538E+04</pdfrwt>
<totfact> 0.88361023E+00</totfact>
</mgrwt>
</event>
<event>
 6    1  0.1817112E-005  0.2386866E+04  0.7818608E-02  0.8444437E-01
          2   -1    0    0  501    0  0.00000000000E+00  0.00000000000E+00  0.10298981961E+04  0.10298981961E+04  0.00000000000E+00 0. -1.
         -2   -1    0    0    0  501 -0.00000000000E+00 -0.00000000000E+00 -0.13829352459E+04  0.13829352459E+04  0.00000000000E+00 0.  1.
         23    2    1    2    0    0  0.97944068191E+03  0.65770036931E+03 -0.61652273066E+01  0.11831205135E+04  0.88669691947E+02 0.  0.
         13    1    3    3    0    0  0.42845935703E+03  0.33997999590E+03  0.56083422599E+01  0.54698745117E+03  0.00000000000E+00 0. -1.
        -13    1    3    3    0    0  0.55098132488E+03  0.31772037341E+03 -0.11773569566E+02  0.63613306233E+03  0.00000000000E+00 0.  1.
         22    1    1    2    0    0 -0.97944068191E+03 -0.65770036931E+03 -0.34687182256E+03  0.12297129285E+04  0.00000000000E+00 0.  1.
<mgrwt>
<rscale>  0 0.23868662E+04</rscale>
<asrwt>0</asrwt>
<pdfrwt beam="1">  1        2 0.15844588E+00 0.23868662E+04</pdfrwt>
<pdfrwt beam="2">  1       -2 0.21275927E+00 0.23868662E+04</pdfrwt>
<totfact> 0.23847188E+00</totfact>
</mgrwt>
</event>
<event>
 6    1  0.1817112E-005  0.3365496E+04  0.7818608E-02  0.8146427E-01
          2   -1    0    0  501    0  0.00000000000E+00  0.00000000000E+00  0.15881916630E+04  0.15881916630E+04  0.00000000000E+00 0. -1.
         -2   -1    0    0    0  501 -0.00000000000E+00 -0.00000000000E+00 -0.17829344282E+04  0.17829344282E+04  0.00000000000E+00 0.  1.
         23    2    1    2    0    0 -0.49505885104E+03 -0.13637442373E+04 -0.94890072066E+03  0.17360004592E+04  0.91670093458E+02 0.  0.
         11    1    3    3    0    0 -0.24084455097E+03 -0.56904584511E+03 -0.44194635025E+03  0.75969457552E+03  0.00000000000E+00 0. -1.
        -11    1    3    3    0    0 -0.25421430007E+03 -0.79469839216E+03 -0.50695437041E+03  0.97630588370E+03  0.00000000000E+00 0.  1.
         22    1    1    2    0    0  0.49505885104E+03  0.13637442373E+04  0.75415795549E+03  0.16351256320E+04  0.00000000000E+00 0. -1.
<mgrwt>
<rscale>  0 0.33654965E+04</rscale>
<asrwt>0</asrwt>
<pdfrwt beam="1">  1        2 0.24433718E+00 0.33654965E+04</pdfrwt>
<pdfrwt beam="2">  1       -2 0.27429760E+00 0.33654965E+04</pdfrwt>
<totfact> 0.42918214E-01</totfact>
</mgrwt>
</event>
<event>
 6    1  0.1817112E-005  0.2627213E+04  0.7818608E-02  0.8359016E-01
         -2   -1    0    0    0  501 -0.00000000000E+00  0.00000000000E+00  0.99303043529E+03  0.99303043529E+03  0.00000000000E+00 0.  1.
          2   -1    0    0  501    0  0.00000000000E+00 -0.00000000000E+00 -0.17376722133E+04  0.17376722133E+04  0.00000000000E+00 0. -1.
         23    2    1    2    0    0  0.10420439891E+04 -0.72035870837E+03 -0.72773488264E+03  0.14637937383E+04  0.91223379629E+02 0.  0.
         11    1    3    3    0    0  0.35108235731E+03 -0.19194984137E+03 -0.23758500242E+03  0.46534954238E+03  0.00000000000E+00 0.  1.
        -11    1    3    3    0    0  0.69096163178E+03 -0.52840886700E+03 -0.49014988023E+03  0.99844419594E+03  0.00000000000E+00 0. -1.
         22    1    1    2    0    0 -0.10420439891E+04  0.72035870837E+03 -0.16906895401E+02  0.12669089103E+04  0.00000000000E+00 0.  1.
<mgrwt>
<rscale>  0 0.26272125E+04</rscale>
<asrwt>0</asrwt>
<pdfrwt beam="1">  1        2 0.26733418E+00 0.26272125E+04</pdfrwt>
<pdfrwt beam="2">  1       -2 0.15277392E+00 0.26272125E+04</pdfrwt>
<totfact> 0.23538731E+00</totfact>
</mgrwt>
</event>
<event>
 6    1  0.1817112E-005  0.2341575E+04  0.7818608E-02  0.8461707E-01
         -2   -1    0    0    0  501 -0.00000000000E+00  0.00000000000E+00  0.10659077956E+04  0.10659077956E+04  0.00000000000E+00 0.  1.
          2   -1    0    0  501    0  0.00000000000E+00 -0.00000000000E+00 -0.12859871339E+04  0.12859871339E+04  0.00000000000E+00 0. -1.
         23    2    1    2    0    0  0.10309915135E+03 -0.87616833188E+03  0.66021115156E+03  0.11056157764E+04  0.90593043268E+02 0.  0.
         13    1    3    3    0    0  0.76279067383E+02 -0.51296253781E+03  0.33532061463E+03  0.61756698091E+03  0.00000000000E+00 0. -1.
        -13    1    3    3    0    0  0.26820083970E+02 -0.36320579408E+03  0.32489053693E+03  0.48804879545E+03  0.00000000000E+00 0.  1.
         22    1    1    2    0    0 -0.10309915135E+03  0.87616833188E+03 -0.88029048992E+03  0.12462791531E+04  0.00000000000E+00 0.  1.
<mgrwt>
<rscale>  0 0.23415753E+04</rscale>
<asrwt>0</asrwt>
<pdfrwt beam="1">  1        2 0.19784417E+00 0.23415753E+04</pdfrwt>
<pdfrwt beam="2">  1       -2 0.16398582E+00 0.23415753E+04</pdfrwt>
<totfact> 0.35846753E+00</totfact>
</mgrwt>
</event>
<event>
 6    1  0.1817112E-005  0.2538911E+04  0.7818608E-02  0.8389253E-01
         -1   -1    0    0    0  501 -0.00000000000E+00  0.00000000000E+00  0.12020536142E+04  0.12020536142E+04  0.00000000000E+00 0.  1.
          1   -1    0    0  501    0  0.00000000000E+00 -0.00000000000E+00 -0.13406363324E+04  0.13406363324E+04  0.00000000000E+00 0. -1.
         23    2    1    2    0    0 -0.11875122473E+04  0.14684965634E+03  0.35032563696E+03  0.12501027973E+04  0.90987871994E+02 0.  0.
         11    1    3    3    0    0 -0.77649114147E+03  0.56492317445E+02  0.20797552808E+03  0.80584346805E+03  0.00000000000E+00 0.  1.
        -11    1    3    3    0    0 -0.41102110578E+03  0.90357338895E+02  0.14235010888E+03  0.44425932920E+03  0.00000000000E+00 0. -1.
         22    1    1    2    0    0  0.11875122473E+04 -0.14684965634E+03 -0.48890835517E+03  0.12925871494E+04  0.00000000000E+00 0. -1.
<mgrwt>
<rscale>  0 0.25389106E+04</rscale>
<asrwt>0</asrwt>
<pdfrwt beam="1">  1        1 0.20625174E+00 0.25389106E+04</pdfrwt>
<pdfrwt beam="2">  1       -1 0.18493132E+00 0.25389106E+04</pdfrwt>
<totfact> 0.14377616E+00</totfact>
</mgrwt>
</event>
<event>
 6    1  0.1817112E-005  0.2515049E+04  0.7818608E-02  0.8397644E-01
         -2   -1    0    0    0  501 -0.00000000000E+00  0.00000000000E+00  0.70613124607E+03  0.70613124607E+03  0.00000000000E+00 0.  1.
          2   -1    0    0  501    0  0.00000000000E+00 -0.00000000000E+00 -0.22394817828E+04  0.22394817828E+04  0.00000000000E+00 0. -1.
         23    2    1    2    0    0  0.96775385309E+03 -0.77058158327E+03 -0.51825828570E+03  0.13453768667E+04  0.10537440912E+03 0.  0.
         11    1    3    3    0    0  0.55177076760E+03 -0.50456127816E+03 -0.32027894713E+03  0.81339514836E+03  0.00000000000E+00 0. -1.
        -11    1    3    3    0    0  0.41598308549E+03 -0.26602030511E+03 -0.19797933857E+03  0.53198171834E+03  0.00000000000E+00 0.  1.
         22    1    1    2    0    0 -0.96775385309E+03  0.77058158327E+03 -0.10150922511E+04  0.16002361622E+04  0.00000000000E+00 0. -1.
<mgrwt>
<rscale>  0 0.25150492E+04</rscale>
<asrwt>0</asrwt>
<pdfrwt beam="1">  1        2 0.34453566E+00 0.25150492E+04</pdfrwt>
<pdfrwt beam="2">  1       -2 0.10863558E+00 0.25150492E+04</pdfrwt>
<totfact> 0.29588340E+00</totfact>
</mgrwt>
</event>
<event>
 6    1  0.1817112E-005  0.1332533E+04  0.7818608E-02  0.9004156E-01
          2   -1    0    0  501    0  0.00000000000E+00  0.00000000000E+00  0.23016402218E+04  0.23016402218E+04  0.00000000000E+00 0. -1.
         -2   -1    0    0    0  501 -0.00000000000E+00 -0.00000000000E+00 -0.19286738777E+03  0.19286738777E+03  0.00000000000E+00 0.  1.
         23    2    1    2    0    0 -0.38438764732E+03  0.23048102031E+01  0.48474008729E+02  0.39865684554E+03  0.93906205422E+02 0.  0.
         11    1    3    3    0    0 -0.30198857709E+03  0.23115597069E+02  0.70276500311E+02  0.31091834622E+03  0.00000000000E+00 0.  1.
        -11    1    3    3    0    0 -0.82399070227E+02 -0.20810786866E+02 -0.21802491582E+02  0.87738499323E+02  0.00000000000E+00 0. -1.
         22    1    1    2    0    0  0.38438764732E+03 -0.23048102031E+01  0.20602988253E+04  0.20958507640E+04  0.00000000000E+00 0. -1.
<mgrwt>
<rscale>  0 0.13325334E+04</rscale>
<asrwt>0</asrwt>
<pdfrwt beam="1">  1        2 0.35409848E+00 0.13325334E+04</pdfrwt>
<pdfrwt beam="2">  1       -2 0.29671907E-01 0.13325334E+04</pdfrwt>
<totfact> 0.46431674E+01</totfact>
</mgrwt>
</event>
<event>
 6    1  0.1817112E-005  0.3258055E+04  0.7818608E-02  0.8173651E-01
          2   -1    0    0  501    0  0.00000000000E+00  0.00000000000E+00  0.26970334741E+04  0.26970334741E+04  0.00000000000E+00 0. -1.
         -2   -1    0    0    0  501 -0.00000000000E+00 -0.00000000000E+00 -0.98394401311E+03  0.98394401311E+03  0.00000000000E+00 0.  1.
         23    2    1    2    0    0 -0.96263675047E+03 -0.12058928155E+04  0.14428582780E+04  0.21144935619E+04  0.91629783173E+02 0.  0.
         11    1    3    3    0    0 -0.26538567841E+03 -0.38950459598E+03  0.40949750588E+03  0.62436495411E+03  0.00000000000E+00 0. -1.
        -11    1    3    3    0    0 -0.69725107207E+03 -0.81638821956E+03  0.10333607721E+04  0.14901286078E+04  0.00000000000E+00 0.  1.
         22    1    1    2    0    0  0.96263675047E+03  0.12058928155E+04  0.27023118302E+03  0.15664839253E+04  0.00000000000E+00 0. -1.
<mgrwt>
<rscale>  0 0.32580546E+04</rscale>
<asrwt>0</asrwt>
<pdfrwt beam="1">  1        2 0.41492822E+00 0.32580546E+04</pdfrwt>
<pdfrwt beam="2">  1       -2 0.15137600E+00 0.32580546E+04</pdfrwt>
<totfact> 0.65322193E-01</totfact>
</mgrwt>
</event>
<event>
 6    1  0.1817112E-005  0.2079772E+04  0.7818608E-02  0.8570207E-01
          1   -1    0    0  501    0  0.00000000000E+00  0.00000000000E+00  0.16625257396E+04  0.16625257396E+04  0.00000000000E+00 0. -1.
         -1   -1    0    0    0  501 -0.00000000000E+00 -0.00000000000E+00 -0.65043380329E+03  0.65043380329E+03  0.00000000000E+00 0.  1.
         23    2    1    2    0    0  0.56492067528E+03 -0.29883389840E+03  0.14165053377E+04  0.15566611446E+04  0.90936676535E+02 0.  0.
         11    1    3    3    0    0  0.12112848358E+03 -0.43321647229E+02  0.21450270808E+03  0.25012054379E+03  0.00000000000E+00 0. -1.
        -11    1    3    3    0    0  0.44379219171E+03 -0.25551225117E+03  0.12020026296E+04  0.13065406008E+04  0.00000000000E+00 0.  1.
         22    1    1    2    0    0 -0.56492067528E+03  0.29883389840E+03 -0.40441340133E+03  0.75629839836E+03  0.00000000000E+00 0.  1.
<mgrwt>
<rscale>  0 0.20797720E+04</rscale>
<asrwt>0</asrwt>
<pdfrwt beam="1">  1        1 0.25577319E+00 0.20797720E+04</pdfrwt>
<pdfrwt beam="2">  1       -1 0.10006674E+00 0.20797720E+04</pdfrwt>
<totfact> 0.44321341E+00</totfact>
</mgrwt>
</event>
<event>
 6    1  0.1817112E-005  0.3294859E+04  0.7818608E-02  0.8164205E-01
         -2   -1    0    0    0  501 -0.00000000000E+00  0.00000000000E+00  0.11905468258E+04  0.11905468258E+04  0.00000000000E+00 0.  1.
          2   -1    0    0  501    0  0.00000000000E+00 -0.00000000000E+00 -0.22796449548E+04  0.22796449548E+04  0.00000000000E+00 0. -1.
         23    2    1    2    0    0 -0.13753066049E+04 -0.87835468629E+03 -0.31766293855E+03  0.16651744772E+04  0.94451493266E+02 0.  0.
         11    1    3    3    0    0 -0.37896526727E+03 -0.25773548921E+03 -0.13050819840E+03  0.47652350000E+03  0.00000000000E+00 0.  1.
        -11    1    3    3    0    0 -0.99634133762E+03 -0.62061919708E+03 -0.18715474014E+03  0.11886509772E+04  0.00000000000E+00 0. -1.
         22    1    1    2    0    0  0.13753066049E+04  0.87835468629E+03 -0.77143519047E+03  0.18050173034E+04  0.00000000000E+00 0. -1.
<mgrwt>
<rscale>  0 0.32948591E+04</rscale>
<asrwt>0</asrwt>
<pdfrwt beam="1">  1        2 0.35071461E+00 0.32948591E+04</pdfrwt>
<pdfrwt beam="2">  1       -2 0.18316105E+00 0.32948591E+04</pdfrwt>
<totfact> 0.67091043E-01</totfact>
</mgrwt>
</event>
<event>
 6    1  0.1817112E-005  0.1302845E+04  0.7818608E-02  0.9027312E-01
          1   -1    0    0  501    0  0.00000000000E+00  0.00000000000E+00  0.18231818921E+04  0.18231818921E+04  0.00000000000E+00 0. -1.
         -1   -1    0    0    0  501 -0.00000000000E+00 -0.00000000000E+00 -0.23275311593E+03  0.23275311593E+03  0.00000000000E+00 0.  1.
         23    2    1    2    0    0  0.54322803678E+03  0.35404053829E+03  0.79560878567E+03  0.10301766447E+04  0.88482635047E+02 0.  0.
         11    1    3    3    0    0  0.40951659856E+03  0.29272764066E+03  0.66043251950E+03  0.83040016192E+03  0.00000000000E+00 0. -1.
        -11    1    3    3    0    0  0.13371143822E+03  0.61312897624E+02  0.13517626617E+03  0.19977648276E+03  0.00000000000E+00 0.  1.
         22    1    1    2    0    0 -0.54322803678E+03 -0.35404053829E+03  0.79481999048E+03  0.10257583633E+04  0.00000000000E+00 0. -1.
<mgrwt>
<rscale>  0 0.13028450E+04</rscale>
<asrwt>0</asrwt>
<pdfrwt beam="1">  1        1 0.28048951E+00 0.13028450E+04</pdfrwt>
<pdfrwt beam="2">  1       -1 0.35808173E-01 0.13028450E+04</pdfrwt>
<totfact> 0.28759351E+01</totfact>
</mgrwt>
</event>
<event>
 6    1  0.1817112E-005  0.2334146E+04  0.7818608E-02  0.8464578E-01
          2   -1    0    0  501    0  0.00000000000E+00  0.00000000000E+00  0.16449724716E+04  0.16449724716E+04  0.00000000000E+00 0. -1.
         -2   -1    0    0    0  501 -0.00000000000E+00 -0.00000000000E+00 -0.82801357161E+03  0.82801357161E+03  0.00000000000E+00 0.  1.
         23    2    1    2    0    0  0.70278646001E+03  0.92882615617E+03  0.37893871232E+03  0.12286032558E+04  0.96148716973E+02 0.  0.
         13    1    3    3    0    0  0.35653810679E+03  0.53955393798E+03  0.23523687780E+03  0.68816732142E+03  0.00000000000E+00 0. -1.
        -13    1    3    3    0    0  0.34624835322E+03  0.38927221819E+03  0.14370183452E+03  0.54043593441E+03  0.00000000000E+00 0.  1.
         22    1    1    2    0    0 -0.70278646001E+03 -0.92882615617E+03  0.43802018769E+03  0.12443827874E+04  0.00000000000E+00 0.  1.
<mgrwt>
<rscale>  0 0.23341461E+04</rscale>
<asrwt>0</asrwt>
<pdfrwt beam="1">  1        2 0.25307269E+00 0.23341461E+04</pdfrwt>
<pdfrwt beam="2">  1       -2 0.12738670E+00 0.23341461E+04</pdfrwt>
<totfact> 0.43508480E+00</totfact>
</mgrwt>
</event>
<event>
 6    1  0.1817112E-005  0.1057917E+04  0.7818608E-02  0.9247208E-01
          2   -1    0    0  501    0  0.00000000000E+00  0.00000000000E+00  0.16038238405E+03  0.16038238405E+03  0.00000000000E+00 0. -1.
         -2   -1    0    0    0  501 -0.00000000000E+00 -0.00000000000E+00 -0.17445626706E+04  0.17445626706E+04  0.00000000000E+00 0.  1.
         23    2    1    2    0    0  0.81451472894E+01  0.45767348119E+03 -0.33318480027E+03  0.57283354825E+03  0.87148172970E+02 0.  0.
         13    1    3    3    0    0 -0.11618357849E+02  0.34570164571E+02 -0.45987213413E+01  0.36759090788E+02  0.00000000000E+00 0.  1.
        -13    1    3    3    0    0  0.19763505138E+02  0.42310331662E+03 -0.32858607893E+03  0.53607445746E+03  0.00000000000E+00 0. -1.
         22    1    1    2    0    0 -0.81451472894E+01 -0.45767348119E+03 -0.12509954863E+04  0.13321115064E+04  0.00000000000E+00 0.  1.
<mgrwt>
<rscale>  0 0.10579170E+04</rscale>
<asrwt>0</asrwt>
<pdfrwt beam="1">  1        2 0.24674215E-01 0.10579170E+04</pdfrwt>
<pdfrwt beam="2">  1       -2 0.26839423E+00 0.10579170E+04</pdfrwt>
<totfact> 0.11075537E+01</totfact>
</mgrwt>
</event>
<event>
 6    1  0.1817112E-005  0.3353563E+04  0.7818608E-02  0.8149398E-01
         -1   -1    0    0    0  501 -0.00000000000E+00  0.00000000000E+00  0.21819773912E+04  0.21819773912E+04  0.00000000000E+00 0.  1.
          1   -1    0    0  501    0  0.00000000000E+00 -0.00000000000E+00 -0.12885545672E+04  0.12885545672E+04  0.00000000000E+00 0. -1.
         23    2    1    2    0    0  0.12363135664E+04  0.11304321459E+04  0.41138886114E+03  0.17273438411E+04  0.90154753220E+02 0.  0.
         11    1    3    3    0    0  0.95439103913E+03  0.83521725359E+03  0.33896059811E+03  0.13127621275E+04  0.00000000000E+00 0. -1.
        -11    1    3    3    0    0  0.28192252725E+03  0.29521489230E+03  0.72428263028E+02  0.41458171365E+03  0.00000000000E+00 0.  1.
         22    1    1    2    0    0 -0.12363135664E+04 -0.11304321459E+04  0.48203396291E+03  0.17431881173E+04  0.00000000000E+00 0. -1.
<mgrwt>
<rscale>  0 0.33535634E+04</rscale>
<asrwt>0</asrwt>
<pdfrwt beam="1">  1        1 0.19823916E+00 0.33535634E+04</pdfrwt>
<pdfrwt beam="2">  1       -1 0.33568883E+00 0.33535634E+04</pdfrwt>
<totfact> 0.14700783E-01</totfact>
</mgrwt>
</event>
<event>
 6    1  0.1817112E-005  0.8868443E+03  0.7818608E-02  0.9442178E-01
          2   -1    0    0  501    0  0.00000000000E+00  0.00000000000E+00  0.34075629588E+04  0.34075629588E+04  0.00000000000E+00 0. -1.
         -2   -1    0    0    0  501 -0.00000000000E+00 -0.00000000000E+00 -0.57701997543E+02  0.57701997543E+02  0.00000000000E+00 0.  1.
         23    2    1    2    0    0  0.52401633481E+01  0.40407217646E+03  0.23596304306E+04  0.23957518489E+04  0.92029177268E+02 0.  0.
         13    1    3    3    0    0  0.16935379163E+02  0.15613422079E+03  0.11707578855E+04  0.11812445675E+04  0.00000000000E+00 0.  1.
        -13    1    3    3    0    0 -0.11695215815E+02  0.24793795567E+03  0.11888725452E+04  0.12145072814E+04  0.00000000000E+00 0. -1.
         22    1    1    2    0    0 -0.52401633481E+01 -0.40407217646E+03  0.99023053061E+03  0.10695131074E+04  0.00000000000E+00 0.  1.
<mgrwt>
<rscale>  0 0.88684427E+03</rscale>
<asrwt>0</asrwt>
<pdfrwt beam="1">  1        2 0.52424030E+00 0.88684427E+03</pdfrwt>
<pdfrwt beam="2">  1       -2 0.88772331E-02 0.88684427E+03</pdfrwt>
<totfact> 0.82589025E+01</totfact>
</mgrwt>
</event>
<event>
 6    1  0.1817112E-005  0.3147438E+04  0.7818608E-02  0.8202838E-01
         -2   -1    0    0    0  501 -0.00000000000E+00  0.00000000000E+00  0.89007693566E+03  0.89007693566E+03  0.00000000000E+00 0.  1.
          2   -1    0    0  501    0  0.00000000000E+00 -0.00000000000E+00 -0.27824459107E+04  0.27824459107E+04  0.00000000000E+00 0. -1.
         23    2    1    2    0    0 -0.53256886028E+03 -0.14085836290E+04 -0.41926863443E+03  0.15659232061E+04  0.92692333696E+02 0.  0.
         13    1    3    3    0    0 -0.23920162317E+03 -0.64266460102E+03 -0.23875916017E+03  0.72611372559E+03  0.00000000000E+00 0. -1.
        -13    1    3    3    0    0 -0.29336723711E+03 -0.76591902799E+03 -0.18050947426E+03  0.83980948051E+03  0.00000000000E+00 0.  1.
         22    1    1    2    0    0  0.53256886028E+03  0.14085836290E+04 -0.14731003406E+04  0.21065996403E+04  0.00000000000E+00 0.  1.
<mgrwt>
<rscale>  0 0.31474376E+04</rscale>
<asrwt>0</asrwt>
<pdfrwt beam="1">  1        2 0.42806860E+00 0.31474376E+04</pdfrwt>
<pdfrwt beam="2">  1       -2 0.13693491E+00 0.31474376E+04</pdfrwt>
<totfact> 0.76193803E-01</totfact>
</mgrwt>
</event>
<event>
 6    1  0.1817112E-005  0.1056552E+04  0.7818608E-02  0.9248606E-01
          2   -1    0    0  501    0  0.00000000000E+00  0.00000000000E+00  0.27189551826E+04  0.27189551826E+04  0.00000000000E+00 0. -1.
         -2   -1    0    0    0  501 -0.00000000000E+00 -0.00000000000E+00 -0.10264070845E+03  0.10264070845E+03  0.00000000000E+00 0.  1.
         23    2    1    2    0    0  0.36504643994E+03  0.24307953650E+03  0.55069508962E+03  0.70993066992E+03  0.91596451776E+02 0.  0.
         11    1    3    3    0    0  0.21118282554E+03  0.87916418833E+02  0.26086557529E+03  0.34695580536E+03  0.00000000000E+00 0.  1.
        -11    1    3    3    0    0  0.15386361440E+03  0.15516311767E+03  0.28982951434E+03  0.36297486456E+03  0.00000000000E+00 0. -1.
         22    1    1    2    0    0 -0.36504643994E+03 -0.24307953650E+03  0.20656193845E+04  0.21116652211E+04  0.00000000000E+00 0. -1.
<mgrwt>
<rscale>  0 0.10565519E+04</rscale>
<asrwt>0</asrwt>
<pdfrwt beam="1">  1        2 0.41830074E+00 0.10565519E+04</pdfrwt>
<pdfrwt beam="2">  1       -2 0.15790880E-01 0.10565519E+04</pdfrwt>
<totfact> 0.84074776E+01</totfact>
</mgrwt>
</event>
<event>
 6    1  0.1817112E-005  0.3823807E+04  0.7818608E-02  0.8041065E-01
         -2   -1    0    0    0  501 -0.00000000000E+00  0.00000000000E+00  0.16749712805E+04  0.16749712805E+04  0.00000000000E+00 0.  1.
          2   -1    0    0  501    0  0.00000000000E+00 -0.00000000000E+00 -0.21823505042E+04  0.21823505042E+04  0.00000000000E+00 0. -1.
         23    2    1    2    0    0 -0.31660713409E+03  0.18784601324E+04 -0.10260989019E+03  0.19098385986E+04  0.90011870105E+02 0.  0.
         13    1    3    3    0    0 -0.12689283913E+03  0.83136882373E+03 -0.88119952606E+02  0.84560099322E+03  0.00000000000E+00 0. -1.
        -13    1    3    3    0    0 -0.18971429495E+03  0.10470913087E+04 -0.14489937582E+02  0.10642376054E+04  0.00000000000E+00 0.  1.
         22    1    1    2    0    0  0.31660713409E+03 -0.18784601324E+04 -0.40476933347E+03  0.19474831860E+04  0.00000000000E+00 0.  1.
<mgrwt>
<rscale>  0 0.38238067E+04</rscale>
<asrwt>0</asrwt>
<pdfrwt beam="1">  1        2 0.33574623E+00 0.38238067E+04</pdfrwt>
<pdfrwt beam="2">  1       -2 0.25768789E+00 0.38238067E+04</pdfrwt>
<totfact> 0.24372358E-01</totfact>
</mgrwt>
</event>
<event>
 6    1  0.1817112E-005  0.3785797E+04  0.7818608E-02  0.8049210E-01
          2   -1    0    0  501    0  0.00000000000E+00  0.00000000000E+00  0.39504554239E+04  0.39504554239E+04  0.00000000000E+00 0. -1.
         -2   -1    0    0    0  501 -0.00000000000E+00 -0.00000000000E+00 -0.90700039673E+03  0.90700039673E+03  0.00000000000E+00 0.  1.
         23    2    1    2    0    0 -0.77974709912E+03 -0.53795207497E+03  0.36236832388E+04  0.37465720503E+04  0.91235623449E+02 0.  0.
         13    1    3    3    0    0 -0.28054364239E+03 -0.22715493050E+03  0.12445601564E+04  0.12958526462E+04  0.00000000000E+00 0.  1.
        -13    1    3    3    0    0 -0.49920345674E+03 -0.31079714447E+03  0.23791230824E+04  0.24507194041E+04  0.00000000000E+00 0. -1.
         22    1    1    2    0    0  0.77974709912E+03  0.53795207497E+03 -0.58022821168E+03  0.11108837703E+04  0.00000000000E+00 0.  1.
<mgrwt>
<rscale>  0 0.37857970E+04</rscale>
<asrwt>0</asrwt>
<pdfrwt beam="1">  1        2 0.60776236E+00 0.37857970E+04</pdfrwt>
<pdfrwt beam="2">  1       -2 0.13953852E+00 0.37857970E+04</pdfrwt>
<totfact> 0.10870115E-01</totfact>
</mgrwt>
</event>
<event>
 6    1  0.1817112E-005  0.2484162E+04  0.7818608E-02  0.8408650E-01
         -2   -1    0    0    0  501 -0.00000000000E+00  0.00000000000E+00  0.19445284173E+04  0.19445284173E+04  0.00000000000E+00 0. -1.
          2   -1    0    0  501    0  0.00000000000E+00 -0.00000000000E+00 -0.79338774090E+03  0.79338774090E+03  0.00000000000E+00 0.  1.
         23    2    1    2    0    0  0.11118128215E+04 -0.59994747491E+02 -0.26332733847E+02  0.11173697221E+04  0.89969790527E+02 0.  0.
         11    1    3    3    0    0  0.66594385673E+03 -0.55723014174E+02 -0.55198635745E+02  0.67054691411E+03  0.00000000000E+00 0. -1.
        -11    1    3    3    0    0  0.44586896475E+03 -0.42717333172E+01  0.28865901899E+02  0.44682280797E+03  0.00000000000E+00 0.  1.
         22    1    1    2    0    0 -0.11118128215E+04  0.59994747491E+02  0.11774734102E+04  0.16205464361E+04  0.00000000000E+00 0. -1.
<mgrwt>
<rscale>  0 0.24841618E+04</rscale>
<asrwt>0</asrwt>
<pdfrwt beam="1">  1        2 0.12205965E+00 0.24841618E+04</pdfrwt>
<pdfrwt beam="2">  1       -2 0.29915822E+00 0.24841618E+04</pdfrwt>
<totfact> 0.10005701E+00</totfact>
</mgrwt>
</event>
<event>
 6    1  0.1817112E-005  0.1567498E+04  0.7818608E-02  0.8840768E-01
         -2   -1    0    0    0  501 -0.00000000000E+00  0.00000000000E+00  0.23093994662E+03  0.23093994662E+03  0.00000000000E+00 0.  1.
          2   -1    0    0  501    0  0.00000000000E+00 -0.00000000000E+00 -0.26598362627E+04  0.26598362627E+04  0.00000000000E+00 0. -1.
         23    2    1    2    0    0 -0.74503607366E+03 -0.23422609918E+03 -0.11963354606E+04  0.14316165611E+04  0.91470361700E+02 0.  0.
         13    1    3    3    0    0 -0.38129561336E+03 -0.12523202425E+03 -0.53178662865E+03  0.66623300960E+03  0.00000000000E+00 0.  1.
        -13    1    3    3    0    0 -0.36374046030E+03 -0.10899407493E+03 -0.66454883197E+03  0.76538355150E+03  0.00000000000E+00 0. -1.
         22    1    1    2    0    0  0.74503607366E+03  0.23422609918E+03 -0.12325608555E+04  0.14591596482E+04  0.00000000000E+00 0.  1.
<mgrwt>
<rscale>  0 0.15674979E+04</rscale>
<asrwt>0</asrwt>
<pdfrwt beam="1">  1        2 0.40920559E+00 0.15674979E+04</pdfrwt>
<pdfrwt beam="2">  1       -2 0.35529221E-01 0.15674979E+04</pdfrwt>
<totfact> 0.20143613E+01</totfact>
</mgrwt>
</event>
<event>
 6    1  0.1817112E-005  0.1779445E+04  0.7818608E-02  0.8717307E-01
          2   -1    0    0  501    0  0.00000000000E+00  0.00000000000E+00  0.95058115851E+03  0.95058115851E+03  0.00000000000E+00 0. -1.
         -2   -1    0    0    0  501 -0.00000000000E+00 -0.00000000000E+00 -0.83275997316E+03  0.83275997316E+03  0.00000000000E+00 0.  1.
         23    2    1    2    0    0  0.30119291780E+03 -0.70541689103E+01  0.89548148914E+03  0.94936122596E+03  0.92912350872E+02 0.  0.
         11    1    3    3    0    0  0.10088492970E+03 -0.44529718223E+02  0.27564625500E+03  0.29688638019E+03  0.00000000000E+00 0. -1.
        -11    1    3    3    0    0  0.20030798811E+03  0.37475549312E+02  0.61983523413E+03  0.65247484577E+03  0.00000000000E+00 0.  1.
         22    1    1    2    0    0 -0.30119291780E+03  0.70541689103E+01 -0.77766030378E+03  0.83397990570E+03  0.00000000000E+00 0.  1.
<mgrwt>
<rscale>  0 0.17794448E+04</rscale>
<asrwt>0</asrwt>
<pdfrwt beam="1">  1        2 0.14624325E+00 0.17794448E+04</pdfrwt>
<pdfrwt beam="2">  1       -2 0.12811692E+00 0.17794448E+04</pdfrwt>
<totfact> 0.11558839E+01</totfact>
</mgrwt>
</event>
<event>
 6    1  0.1817112E-005  0.1655295E+04  0.7818608E-02  0.8787280E-01
         -2   -1    0    0    0  501 -0.00000000000E+00  0.00000000000E+00  0.50236348088E+03  0.50236348088E+03  0.00000000000E+00 0.  1.
          2   -1    0    0  501    0  0.00000000000E+00 -0.00000000000E+00 -0.13635553443E+04  0.13635553443E+04  0.00000000000E+00 0. -1.
         23    2    1    2    0    0  0.73583985819E+03  0.34978435854E+03 -0.28480991405E+03  0.86790803067E+03  0.91314118177E+02 0.  0.
         11    1    3    3    0    0  0.38764525240E+03  0.15169088619E+03 -0.10816915415E+03  0.43009246979E+03  0.00000000000E+00 0.  1.
        -11    1    3    3    0    0  0.34819460579E+03  0.19809347235E+03 -0.17664075990E+03  0.43781556088E+03  0.00000000000E+00 0. -1.
         22    1    1    2    0    0 -0.73583985819E+03 -0.34978435854E+03 -0.57638194933E+03  0.99801079448E+03  0.00000000000E+00 0. -1.
<mgrwt>
<rscale>  0 0.16552950E+04</rscale>
<asrwt>0</asrwt>
<pdfrwt beam="1">  1        2 0.20977775E+00 0.16552950E+04</pdfrwt>
<pdfrwt beam="2">  1       -2 0.77286689E-01 0.16552950E+04</pdfrwt>
<totfact> 0.21657088E+01</totfact>
</mgrwt>
</event>
<event>
 6    1  0.1817112E-005  0.5599416E+04  0.7818608E-02  0.7742156E-01
          2   -1    0    0  501    0  0.00000000000E+00  0.00000000000E+00  0.44030230258E+04  0.44030230258E+04  0.00000000000E+00 0. -1.
         -2   -1    0    0    0  501 -0.00000000000E+00 -0.00000000000E+00 -0.17802236358E+04  0.17802236358E+04  0.00000000000E+00 0.  1.
         23    2    1    2    0    0 -0.79380599735E+03 -0.96436247408E+03 -0.14542468240E+04  0.19191607368E+04  0.90670644158E+02 0.  0.
         13    1    3    3    0    0 -0.24376593204E+03 -0.36119895954E+03 -0.52530853970E+03  0.68252148676E+03  0.00000000000E+00 0. -1.
        -13    1    3    3    0    0 -0.55004006531E+03 -0.60316351454E+03 -0.92893828435E+03  0.12366392501E+04  0.00000000000E+00 0.  1.
         22    1    1    2    0    0  0.79380599735E+03  0.96436247408E+03  0.40770462140E+04  0.42640859248E+04  0.00000000000E+00 0. -1.
<mgrwt>
<rscale>  0 0.55994163E+04</rscale>
<asrwt>0</asrwt>
<pdfrwt beam="1">  1        2 0.67738816E+00 0.55994163E+04</pdfrwt>
<pdfrwt beam="2">  1       -2 0.27388056E+00 0.55994163E+04</pdfrwt>
<totfact> 0.48120792E-03</totfact>
</mgrwt>
</event>
<event>
 6    1  0.1817112E-005  0.2394878E+04  0.7818608E-02  0.8441423E-01
         -2   -1    0    0    0  501 -0.00000000000E+00  0.00000000000E+00  0.91132987490E+03  0.91132987490E+03  0.00000000000E+00 0.  1.
          2   -1    0    0  501    0  0.00000000000E+00 -0.00000000000E+00 -0.15733718032E+04  0.15733718032E+04  0.00000000000E+00 0. -1.
         23    2    1    2    0    0  0.10141380954E+04  0.37757965855E+03 -0.85918839885E+03  0.13847429490E+04  0.90916747726E+02 0.  0.
         13    1    3    3    0    0  0.42310869610E+03  0.12014913651E+03 -0.31339969053E+03  0.54007050442E+03  0.00000000000E+00 0. -1.
        -13    1    3    3    0    0  0.59102939925E+03  0.25743052204E+03 -0.54578870832E+03  0.84467244456E+03  0.00000000000E+00 0.  1.
         22    1    1    2    0    0 -0.10141380954E+04 -0.37757965855E+03  0.19714647053E+03  0.10999587292E+04  0.00000000000E+00 0.  1.
<mgrwt>
<rscale>  0 0.23948785E+04</rscale>
<asrwt>0</asrwt>
<pdfrwt beam="1">  1        2 0.24205720E+00 0.23948785E+04</pdfrwt>
<pdfrwt beam="2">  1       -2 0.14020460E+00 0.23948785E+04</pdfrwt>
<totfact> 0.37157137E+00</totfact>
</mgrwt>
</event>
<event>
 6    1  0.1817112E-005  0.4248027E+04  0.7818608E-02  0.7956299E-01
          2   -1    0    0  501    0  0.00000000000E+00  0.00000000000E+00  0.26030081295E+04  0.26030081295E+04  0.00000000000E+00 0. -1.
         -2   -1    0    0    0  501 -0.00000000000E+00 -0.00000000000E+00 -0.17331615599E+04  0.17331615599E+04  0.00000000000E+00 0.  1.
         23    2    1    2    0    0  0.98198886174E+03 -0.14734473667E+04 -0.76046150932E+03  0.19292518057E+04  0.91441541128E+02 0.  0.
         13    1    3    3    0    0  0.69321690767E+03 -0.10646657576E+04 -0.50285454483E+03  0.13663548404E+04  0.00000000000E+00 0. -1.
        -13    1    3    3    0    0  0.28877195407E+03 -0.40878160910E+03 -0.25760696450E+03  0.56289696531E+03  0.00000000000E+00 0.  1.
         22    1    1    2    0    0 -0.98198886174E+03  0.14734473667E+04  0.16303080789E+04  0.24069178838E+04  0.00000000000E+00 0. -1.
<mgrwt>
<rscale>  0 0.42480271E+04</rscale>
<asrwt>0</asrwt>
<pdfrwt beam="1">  1        2 0.40046279E+00 0.42480271E+04</pdfrwt>
<pdfrwt beam="2">  1       -2 0.26664024E+00 0.42480271E+04</pdfrwt>
<totfact> 0.11908386E-01</totfact>
</mgrwt>
</event>
<event>
 6    1  0.2079570E-005  0.2969836E+04  0.7818608E-02  0.8252397E-01
          2   -1    0    0  501    0  0.00000000000E+00  0.00000000000E+00  0.21046366264E+04  0.21046366264E+04  0.00000000000E+00 0. -1.
         -2   -1    0    0    0  501 -0.00000000000E+00 -0.00000000000E+00 -0.10476779925E+04  0.10476779925E+04  0.00000000000E+00 0.  1.
         23    2    1    2    0    0 -0.93315518274E+03 -0.86327625272E+03  0.13403027344E+04  0.18498905855E+04  0.98281611194E+02 0.  0.
         11    1    3    3    0    0 -0.50396685978E+03 -0.50208663584E+03  0.68944315323E+03  0.99065909736E+03  0.00000000000E+00 0. -1.
        -11    1    3    3    0    0 -0.42918832296E+03 -0.36118961688E+03  0.65085958114E+03  0.85923148817E+03  0.00000000000E+00 0.  1.
         22    1    1    2    0    0  0.93315518274E+03  0.86327625272E+03 -0.28334410046E+03  0.13024240334E+04  0.00000000000E+00 0.  1.
<mgrwt>
<rscale>  0 0.29698360E+04</rscale>
<asrwt>0</asrwt>
<pdfrwt beam="1">  1        2 0.32379025E+00 0.29698360E+04</pdfrwt>
<pdfrwt beam="2">  1       -2 0.16118123E+00 0.29698360E+04</pdfrwt>
<totfact> 0.12375000E+00</totfact>
</mgrwt>
</event>
<event>
 6    1  0.1817112E-005  0.4134292E+04  0.7818608E-02  0.7977990E-01
          2   -1    0    0  501    0  0.00000000000E+00  0.00000000000E+00  0.32582236824E+04  0.32582236824E+04  0.00000000000E+00 0. -1.
         -2   -1    0    0    0  501 -0.00000000000E+00 -0.00000000000E+00 -0.13114791972E+04  0.13114791972E+04  0.00000000000E+00 0.  1.
         23    2    1    2    0    0  0.15454699175E+04 -0.13247297873E+04  0.58212111848E+03  0.21190737342E+04  0.90676454875E+02 0.  0.
         11    1    3    3    0    0  0.42079629562E+03 -0.34891038979E+03  0.19732911982E+03  0.58115984379E+03  0.00000000000E+00 0. -1.
        -11    1    3    3    0    0  0.11246736219E+04 -0.97581939749E+03  0.38479199867E+03  0.15379138904E+04  0.00000000000E+00 0.  1.
         22    1    1    2    0    0 -0.15454699175E+04  0.13247297873E+04  0.13646233667E+04  0.24506291453E+04  0.00000000000E+00 0.  1.
<mgrwt>
<rscale>  0 0.41342920E+04</rscale>
<asrwt>0</asrwt>
<pdfrwt beam="1">  1        2 0.50126518E+00 0.41342920E+04</pdfrwt>
<pdfrwt beam="2">  1       -2 0.20176603E+00 0.41342920E+04</pdfrwt>
<totfact> 0.11985991E-01</totfact>
</mgrwt>
</event>
<event>
 6    1  0.1817112E-005  0.4610390E+04  0.7818608E-02  0.7891591E-01
         -2   -1    0    0    0  501 -0.00000000000E+00  0.00000000000E+00  0.31591489028E+04  0.31591489028E+04  0.00000000000E+00 0.  1.
          2   -1    0    0  501    0  0.00000000000E+00 -0.00000000000E+00 -0.16820746510E+04  0.16820746510E+04  0.00000000000E+00 0. -1.
         23    2    1    2    0    0 -0.10232167090E+04 -0.20540917546E+04  0.52117628897E+03  0.23552617107E+04  0.96786526205E+02 0.  0.
         13    1    3    3    0    0 -0.57864235252E+03 -0.10877070245E+04  0.24351623019E+03  0.12558796509E+04  0.00000000000E+00 0. -1.
        -13    1    3    3    0    0 -0.44457435652E+03 -0.96638473012E+03  0.27766005879E+03  0.10993820598E+04  0.00000000000E+00 0.  1.
         22    1    1    2    0    0  0.10232167090E+04  0.20540917546E+04  0.95589796283E+03  0.24859618431E+04  0.00000000000E+00 0.  1.
<mgrwt>
<rscale>  0 0.46103901E+04</rscale>
<asrwt>0</asrwt>
<pdfrwt beam="1">  1        2 0.25878072E+00 0.46103901E+04</pdfrwt>
<pdfrwt beam="2">  1       -2 0.48602291E+00 0.46103901E+04</pdfrwt>
<totfact> 0.15281338E-02</totfact>
</mgrwt>
</event>
<event>
 6    1  0.1817112E-005  0.1616699E+04  0.7818608E-02  0.8810354E-01
         -1   -1    0    0    0  501 -0.00000000000E+00  0.00000000000E+00  0.25834958719E+03  0.25834958719E+03  0.00000000000E+00 0. -1.
          1   -1    0    0  501    0  0.00000000000E+00 -0.00000000000E+00 -0.25292444850E+04  0.25292444850E+04  0.00000000000E+00 0.  1.
         23    2    1    2    0    0  0.72787157618E+03  0.47500011725E+02 -0.17293542873E+04  0.18791230956E+04  0.91564594197E+02 0.  0.
         13    1    3    3    0    0  0.63617772202E+03  0.40593969814E+02 -0.15797343485E+04  0.17035053790E+04  0.00000000000E+00 0. -1.
        -13    1    3    3    0    0  0.91693854160E+02  0.69060419104E+01 -0.14961993876E+03  0.17561771659E+03  0.00000000000E+00 0.  1.
         22    1    1    2    0    0 -0.72787157618E+03 -0.47500011725E+02 -0.54154061060E+03  0.90847097667E+03  0.00000000000E+00 0.  1.
<mgrwt>
<rscale>  0 0.16166994E+04</rscale>
<asrwt>0</asrwt>
<pdfrwt beam="1">  1        1 0.38911453E+00 0.16166994E+04</pdfrwt>
<pdfrwt beam="2">  1       -1 0.39746091E-01 0.16166994E+04</pdfrwt>
<totfact> 0.76496421E+00</totfact>
</mgrwt>
</event>
<event>
 6    1  0.1817112E-005  0.1777646E+04  0.7818608E-02  0.8718278E-01
         -2   -1    0    0    0  501 -0.00000000000E+00  0.00000000000E+00  0.57438449954E+03  0.57438449954E+03  0.00000000000E+00 0.  1.
          2   -1    0    0  501    0  0.00000000000E+00 -0.00000000000E+00 -0.13753960880E+04  0.13753960880E+04  0.00000000000E+00 0. -1.
         23    2    1    2    0    0  0.71619756369E+03 -0.26868016966E+03  0.89957254096E+02  0.77549209565E+03  0.90375323224E+02 0.  0.
         13    1    3    3    0    0  0.40231565735E+03 -0.18016255020E+03  0.87202674519E+02  0.44935591582E+03  0.00000000000E+00 0.  1.
        -13    1    3    3    0    0  0.31388190635E+03 -0.88517619461E+02  0.27545795764E+01  0.32613617983E+03  0.00000000000E+00 0. -1.
         22    1    1    2    0    0 -0.71619756369E+03  0.26868016966E+03 -0.89096884259E+03  0.11742884919E+04  0.00000000000E+00 0. -1.
<mgrwt>
<rscale>  0 0.17776459E+04</rscale>
<asrwt>0</asrwt>
<pdfrwt beam="1">  1        2 0.21159939E+00 0.17776459E+04</pdfrwt>
<pdfrwt beam="2">  1       -2 0.88366848E-01 0.17776459E+04</pdfrwt>
<totfact> 0.15586752E+01</totfact>
</mgrwt>
</event>
<event>
 6    1  0.1817112E-005  0.1484449E+04  0.7818608E-02  0.8894861E-01
         -2   -1    0    0    0  501 -0.00000000000E+00  0.00000000000E+00  0.57322074970E+03  0.57322074970E+03  0.00000000000E+00 0.  1.
          2   -1    0    0  501    0  0.00000000000E+00 -0.00000000000E+00 -0.96105533722E+03  0.96105533722E+03  0.00000000000E+00 0. -1.
         23    2    1    2    0    0  0.59385897228E+03 -0.18306779254E+03 -0.60873163634E+03  0.87474761764E+03  0.91906984826E+02 0.  0.
         11    1    3    3    0    0  0.30513652391E+03 -0.47059786254E+02 -0.31278830844E+03  0.43949908715E+03  0.00000000000E+00 0.  1.
        -11    1    3    3    0    0  0.28872244837E+03 -0.13600800628E+03 -0.29594332790E+03  0.43524853049E+03  0.00000000000E+00 0. -1.
         22    1    1    2    0    0 -0.59385897228E+03  0.18306779254E+03  0.22089704881E+03  0.65952846929E+03  0.00000000000E+00 0.  1.
<mgrwt>
<rscale>  0 0.14844485E+04</rscale>
<asrwt>0</asrwt>
<pdfrwt beam="1">  1        2 0.14785466E+00 0.14844485E+04</pdfrwt>
<pdfrwt beam="2">  1       -2 0.88187809E-01 0.14844485E+04</pdfrwt>
<totfact> 0.28610908E+01</totfact>
</mgrwt>
</event>
<event>
 6    1  0.1817112E-005  0.4215619E+04  0.7818608E-02  0.7962408E-01
         -1   -1    0    0    0  501 -0.00000000000E+00  0.00000000000E+00  0.32996594982E+04  0.32996594982E+04  0.00000000000E+00 0.  1.
          1   -1    0    0  501    0  0.00000000000E+00 -0.00000000000E+00 -0.13464604616E+04  0.13464604616E+04  0.00000000000E+00 0. -1.
         23    2    1    2    0    0  0.16323052428E+04 -0.23938699495E+03 -0.46713956402E+03  0.17169962888E+04  0.90168422392E+02 0.  0.
         11    1    3    3    0    0  0.83505398835E+03 -0.16790664192E+03 -0.23767272728E+03  0.88430545015E+03  0.00000000000E+00 0.  1.
        -11    1    3    3    0    0  0.79725125442E+03 -0.71480353034E+02 -0.22946683674E+03  0.83269083862E+03  0.00000000000E+00 0. -1.
         22    1    1    2    0    0 -0.16323052428E+04  0.23938699495E+03  0.24203386006E+04  0.29291236711E+04  0.00000000000E+00 0.  1.
<mgrwt>
<rscale>  0 0.42156191E+04</rscale>
<asrwt>0</asrwt>
<pdfrwt beam="1">  1        1 0.20714776E+00 0.42156191E+04</pdfrwt>
<pdfrwt beam="2">  1       -1 0.50763992E+00 0.42156191E+04</pdfrwt>
<totfact> 0.86017234E-03</totfact>
</mgrwt>
</event>
<event>
 6    1  0.1817112E-005  0.2413948E+04  0.7818608E-02  0.8434300E-01
         -2   -1    0    0    0  501 -0.00000000000E+00  0.00000000000E+00  0.11958061477E+04  0.11958061477E+04  0.00000000000E+00 0.  1.
          2   -1    0    0  501    0  0.00000000000E+00 -0.00000000000E+00 -0.12182461304E+04  0.12182461304E+04  0.00000000000E+00 0. -1.
         23    2    1    2    0    0  0.68035182993E+03 -0.48882572441E+03 -0.87781757304E+03  0.12167636649E+04  0.90116166288E+02 0.  0.
         11    1    3    3    0    0  0.17895358909E+03 -0.10746025438E+03 -0.16991233967E+03  0.26915106630E+03  0.00000000000E+00 0.  1.
        -11    1    3    3    0    0  0.50139824084E+03 -0.38136547003E+03 -0.70790523337E+03  0.94761259863E+03  0.00000000000E+00 0. -1.
         22    1    1    2    0    0 -0.68035182993E+03  0.48882572441E+03  0.85537759031E+03  0.11972886132E+04  0.00000000000E+00 0.  1.
<mgrwt>
<rscale>  0 0.24139480E+04</rscale>
<asrwt>0</asrwt>
<pdfrwt beam="1">  1        2 0.18742248E+00 0.24139480E+04</pdfrwt>
<pdfrwt beam="2">  1       -2 0.18397018E+00 0.24139480E+04</pdfrwt>
<totfact> 0.28252561E+00</totfact>
</mgrwt>
</event>
<event>
 6    1  0.2173630E-005  0.3365172E+04  0.7818608E-02  0.8146507E-01
         -2   -1    0    0    0  501 -0.00000000000E+00  0.00000000000E+00  0.14802657246E+04  0.14802657246E+04  0.00000000000E+00 0.  1.
          2   -1    0    0  501    0  0.00000000000E+00 -0.00000000000E+00 -0.19125592583E+04  0.19125592583E+04  0.00000000000E+00 0. -1.
         23    2    1    2    0    0 -0.36860759067E+01  0.83630909504E+03  0.12540871893E+04  0.15104577412E+04  0.96547500606E+02 0.  0.
         11    1    3    3    0    0 -0.39203478658E+02  0.39239350540E+03  0.53482133971E+03  0.66448735220E+03  0.00000000000E+00 0. -1.
        -11    1    3    3    0    0  0.35517402751E+02  0.44391558964E+03  0.71926584960E+03  0.84597038898E+03  0.00000000000E+00 0.  1.
         22    1    1    2    0    0  0.36860759067E+01 -0.83630909504E+03 -0.16863807231E+04  0.18823672417E+04  0.00000000000E+00 0. -1.
<mgrwt>
<rscale>  0 0.33651722E+04</rscale>
<asrwt>0</asrwt>
<pdfrwt beam="1">  1        2 0.29423989E+00 0.33651722E+04</pdfrwt>
<pdfrwt beam="2">  1       -2 0.22773319E+00 0.33651722E+04</pdfrwt>
<totfact> 0.54847415E-01</totfact>
</mgrwt>
</event>
<event>
 6    1  0.1817112E-005  0.3304835E+04  0.7818608E-02  0.8161666E-01
         -2   -1    0    0    0  501 -0.00000000000E+00  0.00000000000E+00  0.80886099903E+03  0.80886099903E+03  0.00000000000E+00 0. -1.
          2   -1    0    0  501    0  0.00000000000E+00 -0.00000000000E+00 -0.33757151563E+04  0.33757151563E+04  0.00000000000E+00 0.  1.
         23    2    1    2    0    0 -0.82196044404E+03  0.23504428214E+03  0.50343032106E+03  0.99749103503E+03  0.10335129738E+03 0.  0.
         11    1    3    3    0    0 -0.24442212744E+03  0.11733925263E+03  0.14156779259E+03  0.30586290473E+03  0.00000000000E+00 0.  1.
        -11    1    3    3    0    0 -0.57753831660E+03  0.11770502951E+03  0.36186252847E+03  0.69162813030E+03  0.00000000000E+00 0. -1.
         22    1    1    2    0    0  0.82196044404E+03 -0.23504428214E+03 -0.30702844784E+04  0.31870851203E+04  0.00000000000E+00 0.  1.
<mgrwt>
<rscale>  0 0.33048354E+04</rscale>
<asrwt>0</asrwt>
<pdfrwt beam="1">  1        2 0.51934079E+00 0.33048354E+04</pdfrwt>
<pdfrwt beam="2">  1       -2 0.12444015E+00 0.33048354E+04</pdfrwt>
<totfact> 0.40047348E-01</totfact>
</mgrwt>
</event>
<event>
 6    1  0.1817112E-005  0.2538865E+04  0.7818608E-02  0.8389269E-01
         -2   -1    0    0    0  501 -0.00000000000E+00  0.00000000000E+00  0.62542211729E+03  0.62542211729E+03  0.00000000000E+00 0.  1.
          2   -1    0    0  501    0  0.00000000000E+00 -0.00000000000E+00 -0.25765943969E+04  0.25765943969E+04  0.00000000000E+00 0. -1.
         23    2    1    2    0    0 -0.44240640489E+03 -0.32021550417E+03  0.46606846723E+03  0.72384900081E+03  0.92066082907E+02 0.  0.
         13    1    3    3    0    0 -0.22079632576E+03 -0.19003379546E+03  0.19650820100E+03  0.35139626342E+03  0.00000000000E+00 0. -1.
        -13    1    3    3    0    0 -0.22161007913E+03 -0.13018170871E+03  0.26956026623E+03  0.37245273738E+03  0.00000000000E+00 0.  1.
         22    1    1    2    0    0  0.44240640489E+03  0.32021550417E+03 -0.24172407469E+04  0.24781675134E+04  0.00000000000E+00 0. -1.
<mgrwt>
<rscale>  0 0.25388652E+04</rscale>
<asrwt>0</asrwt>
<pdfrwt beam="1">  1        2 0.39639914E+00 0.25388652E+04</pdfrwt>
<pdfrwt beam="2">  1       -2 0.96218787E-01 0.25388652E+04</pdfrwt>
<totfact> 0.25255344E+00</totfact>
</mgrwt>
</event>
<event>
 6    1  0.1817112E-005  0.4120066E+04  0.7818608E-02  0.7980754E-01
         -2   -1    0    0    0  501 -0.00000000000E+00  0.00000000000E+00  0.11517214641E+04  0.11517214641E+04  0.00000000000E+00 0.  1.
          2   -1    0    0  501    0  0.00000000000E+00 -0.00000000000E+00 -0.36846901890E+04  0.36846901890E+04  0.00000000000E+00 0. -1.
         23    2    1    2    0    0 -0.19530113094E+04  0.36551017179E+03 -0.63277704926E+03  0.20871246065E+04  0.88495585712E+02 0.  0.
         13    1    3    3    0    0 -0.43328981298E+03  0.11824455801E+03 -0.13675260990E+03  0.46949240020E+03  0.00000000000E+00 0. -1.
        -13    1    3    3    0    0 -0.15197214964E+04  0.24726561378E+03 -0.49602443936E+03  0.16176322063E+04  0.00000000000E+00 0.  1.
         22    1    1    2    0    0  0.19530113094E+04 -0.36551017179E+03 -0.19001916756E+04  0.27492870466E+04  0.00000000000E+00 0.  1.
<mgrwt>
<rscale>  0 0.41200664E+04</rscale>
<asrwt>0</asrwt>
<pdfrwt beam="1">  1        2 0.56687541E+00 0.41200664E+04</pdfrwt>
<pdfrwt beam="2">  1       -2 0.17718792E+00 0.41200664E+04</pdfrwt>
<totfact> 0.88555140E-02</totfact>
</mgrwt>
</event>
<event>
 6    1  0.1817112E-005  0.2297506E+04  0.7818608E-02  0.8478905E-01
         -2   -1    0    0    0  501 -0.00000000000E+00  0.00000000000E+00  0.80796172525E+03  0.80796172525E+03  0.00000000000E+00 0. -1.
          2   -1    0    0  501    0  0.00000000000E+00 -0.00000000000E+00 -0.16332871013E+04  0.16332871013E+04  0.00000000000E+00 0.  1.
         23    2    1    2    0    0  0.89249215595E+03  0.28633606764E+03 -0.11156525862E+04  0.14600146644E+04  0.91823390816E+02 0.  0.
         13    1    3    3    0    0  0.30577313987E+03  0.11578454786E+03 -0.45290140300E+03  0.55859014978E+03  0.00000000000E+00 0.  1.
        -13    1    3    3    0    0  0.58671901607E+03  0.17055151978E+03 -0.66275118323E+03  0.90142451464E+03  0.00000000000E+00 0. -1.
         22    1    1    2    0    0 -0.89249215595E+03 -0.28633606764E+03  0.29032721014E+03  0.98123416217E+03  0.00000000000E+00 0. -1.
<mgrwt>
<rscale>  0 0.22975060E+04</rscale>
<asrwt>0</asrwt>
<pdfrwt beam="1">  1        2 0.25127494E+00 0.22975060E+04</pdfrwt>
<pdfrwt beam="2">  1       -2 0.12430180E+00 0.22975060E+04</pdfrwt>
<totfact> 0.47117633E+00</totfact>
</mgrwt>
</event>
<event>
 6    1  0.1817112E-005  0.2355164E+04  0.7818608E-02  0.8456483E-01
         -2   -1    0    0    0  501 -0.00000000000E+00  0.00000000000E+00  0.88087407812E+03  0.88087407812E+03  0.00000000000E+00 0. -1.
          2   -1    0    0  501    0  0.00000000000E+00 -0.00000000000E+00 -0.15742315678E+04  0.15742315678E+04  0.00000000000E+00 0.  1.
         23    2    1    2    0    0  0.34263326808E+03 -0.36761290479E+03  0.76077750141E+03  0.91658513047E+03  0.93856755715E+02 0.  0.
         13    1    3    3    0    0  0.30122599447E+03 -0.32902630284E+03  0.61135870040E+03  0.75680570047E+03  0.00000000000E+00 0.  1.
        -13    1    3    3    0    0  0.41407273605E+02 -0.38586601944E+02  0.14941880101E+03  0.15977943000E+03  0.00000000000E+00 0. -1.
         22    1    1    2    0    0 -0.34263326808E+03  0.36761290479E+03 -0.14541349911E+04  0.15385205154E+04  0.00000000000E+00 0.  1.
<mgrwt>
<rscale>  0 0.23551644E+04</rscale>
<asrwt>0</asrwt>
<pdfrwt beam="1">  1        2 0.24218947E+00 0.23551644E+04</pdfrwt>
<pdfrwt beam="2">  1       -2 0.13551909E+00 0.23551644E+04</pdfrwt>
<totfact> 0.40656449E+00</totfact>
</mgrwt>
</event>
<event>
 6    1  0.1817112E-005  0.2748838E+04  0.7818608E-02  0.8319330E-01
         -2   -1    0    0    0  501 -0.00000000000E+00  0.00000000000E+00  0.52410768869E+03  0.52410768869E+03  0.00000000000E+00 0.  1.
          2   -1    0    0  501    0  0.00000000000E+00 -0.00000000000E+00 -0.36042748956E+04  0.36042748956E+04  0.00000000000E+00 0. -1.
         23    2    1    2    0    0  0.97561748759E+03  0.96943523957E+02 -0.98595829439E+02  0.98975304134E+03  0.93072102883E+02 0.  0.
         11    1    3    3    0    0  0.33509791820E+03 -0.10817880050E+02 -0.29547869787E+02  0.33657201000E+03  0.00000000000E+00 0.  1.
        -11    1    3    3    0    0  0.64051956939E+03  0.10776140401E+03 -0.69047959652E+02  0.65318103134E+03  0.00000000000E+00 0. -1.
         22    1    1    2    0    0 -0.97561748759E+03 -0.96943523957E+02 -0.29815713775E+04  0.31386295430E+04  0.00000000000E+00 0. -1.
<mgrwt>
<rscale>  0 0.27488384E+04</rscale>
<asrwt>0</asrwt>
<pdfrwt beam="1">  1        2 0.55450385E+00 0.27488384E+04</pdfrwt>
<pdfrwt beam="2">  1       -2 0.80631949E-01 0.27488384E+04</pdfrwt>
<totfact> 0.81361308E-01</totfact>
</mgrwt>
</event>
<event>
 6    1  0.1817112E-005  0.1393505E+04  0.7818608E-02  0.8958533E-01
          2   -1    0    0  501    0  0.00000000000E+00  0.00000000000E+00  0.58047984424E+03  0.58047984424E+03  0.00000000000E+00 0.  1.
         -2   -1    0    0    0  501 -0.00000000000E+00 -0.00000000000E+00 -0.83631555456E+03  0.83631555456E+03  0.00000000000E+00 0. -1.
         23    2    1    2    0    0  0.11030565088E+03  0.16584597054E+03 -0.80414576303E+03  0.83342918751E+03  0.91003185918E+02 0.  0.
         13    1    3    3    0    0  0.31532790295E+02 -0.25434457043E+01 -0.15460834765E+03  0.15781168253E+03  0.00000000000E+00 0. -1.
        -13    1    3    3    0    0  0.78772860585E+02  0.16838941624E+03 -0.64953741537E+03  0.67561750498E+03  0.00000000000E+00 0.  1.
         22    1    1    2    0    0 -0.11030565088E+03 -0.16584597054E+03  0.54831005271E+03  0.58336621128E+03  0.00000000000E+00 0.  1.
<mgrwt>
<rscale>  0 0.13935054E+04</rscale>
<asrwt>0</asrwt>
<pdfrwt beam="1">  1        2 0.89304591E-01 0.13935054E+04</pdfrwt>
<pdfrwt beam="2">  1       -2 0.12866393E+00 0.13935054E+04</pdfrwt>
<totfact> 0.22398273E+01</totfact>
</mgrwt>
</event>
<event>
 6    1  0.1817112E-005  0.3017159E+04  0.7818608E-02  0.8238848E-01
         -2   -1    0    0    0  501 -0.00000000000E+00  0.00000000000E+00  0.96321224206E+03  0.96321224206E+03  0.00000000000E+00 0.  1.
          2   -1    0    0  501    0  0.00000000000E+00 -0.00000000000E+00 -0.23627316625E+04  0.23627316625E+04  0.00000000000E+00 0. -1.
         23    2    1    2    0    0  0.97746452806E+03 -0.30768744033E+03  0.51800476219E+03  0.11517756830E+04  0.90276385699E+02 0.  0.
         11    1    3    3    0    0  0.14695594893E+03 -0.50806079123E+02  0.43896201793E+02  0.16156789635E+03  0.00000000000E+00 0.  1.
        -11    1    3    3    0    0  0.83050857913E+03 -0.25688136121E+03  0.47410856039E+03  0.99020778667E+03  0.00000000000E+00 0. -1.
         22    1    1    2    0    0 -0.97746452806E+03  0.30768744033E+03 -0.19175241826E+04  0.21741682215E+04  0.00000000000E+00 0. -1.
<mgrwt>
<rscale>  0 0.30171590E+04</rscale>
<asrwt>0</asrwt>
<pdfrwt beam="1">  1        2 0.36349717E+00 0.30171590E+04</pdfrwt>
<pdfrwt beam="2">  1       -2 0.14818650E+00 0.30171590E+04</pdfrwt>
<totfact> 0.11043408E+00</totfact>
</mgrwt>
</event>
<event>
 6    1  0.2701209E-005  0.2923985E+04  0.7818608E-02  0.8265777E-01
         -2   -1    0    0    0  501 -0.00000000000E+00  0.00000000000E+00  0.12528550894E+04  0.12528550894E+04  0.00000000000E+00 0.  1.
          2   -1    0    0  501    0  0.00000000000E+00 -0.00000000000E+00 -0.17060404421E+04  0.17060404421E+04  0.00000000000E+00 0. -1.
         23    2    1    2    0    0  0.49555879509E+03  0.17656230223E+03  0.11519258179E+04  0.12697730859E+04  0.92939946470E+02 0.  0.
         11    1    3    3    0    0  0.36878442592E+03  0.13616671869E+03  0.94800917275E+03  0.10262868603E+04  0.00000000000E+00 0. -1.
        -11    1    3    3    0    0  0.12677436917E+03  0.40395583538E+02  0.20391664519E+03  0.24348622555E+03  0.00000000000E+00 0.  1.
         22    1    1    2    0    0 -0.49555879509E+03 -0.17656230223E+03 -0.16051111707E+04  0.16891224456E+04  0.00000000000E+00 0. -1.
<mgrwt>
<rscale>  0 0.29239846E+04</rscale>
<asrwt>0</asrwt>
<pdfrwt beam="1">  1        2 0.26246776E+00 0.29239846E+04</pdfrwt>
<pdfrwt beam="2">  1       -2 0.19274694E+00 0.29239846E+04</pdfrwt>
<totfact> 0.12455115E+00</totfact>
</mgrwt>
</event>
<event>
 6    1  0.1817112E-005  0.9071802E+03  0.7818608E-02  0.9416650E-01
         -1   -1    0    0    0  501 -0.00000000000E+00  0.00000000000E+00  0.17938386066E+03  0.17938386066E+03  0.00000000000E+00 0.  1.
          1   -1    0    0  501    0  0.00000000000E+00 -0.00000000000E+00 -0.11469480924E+04  0.11469480924E+04  0.00000000000E+00 0. -1.
         23    2    1    2    0    0 -0.30741489264E+03  0.31658320811E+03 -0.36600490964E+03  0.58027400499E+03  0.89607383140E+02 0.  0.
         13    1    3    3    0    0 -0.22977349029E+03  0.18302247511E+03 -0.26559123991E+03  0.39601993630E+03  0.00000000000E+00 0. -1.
        -13    1    3    3    0    0 -0.77641402358E+02  0.13356073300E+03 -0.10041366973E+03  0.18425406869E+03  0.00000000000E+00 0.  1.
         22    1    1    2    0    0  0.30741489264E+03 -0.31658320811E+03 -0.60155932213E+03  0.74605794810E+03  0.00000000000E+00 0. -1.
<mgrwt>
<rscale>  0 0.90718020E+03</rscale>
<asrwt>0</asrwt>
<pdfrwt beam="1">  1        1 0.17645355E+00 0.90718020E+03</pdfrwt>
<pdfrwt beam="2">  1       -1 0.27597518E-01 0.90718020E+03</pdfrwt>
<totfact> 0.13890791E+02</totfact>
</mgrwt>
</event>
<event>
 6    1  0.1817112E-005  0.2473243E+04  0.7818608E-02  0.8412580E-01
          1   -1    0    0  501    0  0.00000000000E+00  0.00000000000E+00  0.15960888807E+04  0.15960888807E+04  0.00000000000E+00 0. -1.
         -1   -1    0    0    0  501 -0.00000000000E+00 -0.00000000000E+00 -0.95811287075E+03  0.95811287075E+03  0.00000000000E+00 0.  1.
         23    2    1    2    0    0 -0.70293006109E+03 -0.45204845815E+03  0.12583685177E+04  0.15133629824E+04  0.91201484330E+02 0.  0.
         13    1    3    3    0    0 -0.33515498629E+03 -0.26601807679E+03  0.67085582471E+03  0.79570221790E+03  0.00000000000E+00 0. -1.
        -13    1    3    3    0    0 -0.36777507480E+03 -0.18603038137E+03  0.58751269303E+03  0.71766076451E+03  0.00000000000E+00 0.  1.
         22    1    1    2    0    0  0.70293006109E+03  0.45204845815E+03 -0.62039250783E+03  0.10408387690E+04  0.00000000000E+00 0.  1.
<mgrwt>
<rscale>  0 0.24732435E+04</rscale>
<asrwt>0</asrwt>
<pdfrwt beam="1">  1        1 0.24555214E+00 0.24732435E+04</pdfrwt>
<pdfrwt beam="2">  1       -1 0.14740198E+00 0.24732435E+04</pdfrwt>
<totfact> 0.18283659E+00</totfact>
</mgrwt>
</event>
<event>
 6    1  0.1817112E-005  0.2760621E+04  0.7818608E-02  0.8315599E-01
         -2   -1    0    0    0  501 -0.00000000000E+00  0.00000000000E+00  0.10996793298E+04  0.10996793298E+04  0.00000000000E+00 0.  1.
          2   -1    0    0  501    0  0.00000000000E+00 -0.00000000000E+00 -0.17325568024E+04  0.17325568024E+04  0.00000000000E+00 0. -1.
         23    2    1    2    0    0  0.71541918800E+03  0.67471435883E+03  0.67462514426E+03  0.11961960429E+04  0.93283478020E+02 0.  0.
         13    1    3    3    0    0  0.42459006514E+03  0.43049878663E+03  0.36564661964E+03  0.70661402417E+03  0.00000000000E+00 0. -1.
        -13    1    3    3    0    0  0.29082912286E+03  0.24421557220E+03  0.30897852462E+03  0.48958201875E+03  0.00000000000E+00 0.  1.
         22    1    1    2    0    0 -0.71541918800E+03 -0.67471435883E+03 -0.13075026168E+04  0.16360400892E+04  0.00000000000E+00 0. -1.
<mgrwt>
<rscale>  0 0.27606209E+04</rscale>
<asrwt>0</asrwt>
<pdfrwt beam="1">  1        2 0.26654720E+00 0.27606209E+04</pdfrwt>
<pdfrwt beam="2">  1       -2 0.16918144E+00 0.27606209E+04</pdfrwt>
<totfact> 0.17740682E+00</totfact>
</mgrwt>
</event>
<event>
 6    1  0.1817112E-005  0.2638722E+04  0.7818608E-02  0.8355166E-01
          2   -1    0    0  501    0  0.00000000000E+00  0.00000000000E+00  0.20227192531E+04  0.20227192531E+04  0.00000000000E+00 0. -1.
         -2   -1    0    0    0  501 -0.00000000000E+00 -0.00000000000E+00 -0.86058072335E+03  0.86058072335E+03  0.00000000000E+00 0.  1.
         23    2    1    2    0    0  0.35196629516E+02 -0.62048778940E+03  0.18514967802E+04  0.19551519834E+04  0.91296504146E+02 0.  0.
         13    1    3    3    0    0 -0.16828601195E+00 -0.23247691425E+03  0.82753728511E+03  0.85957169697E+03  0.00000000000E+00 0.  1.
        -13    1    3    3    0    0  0.35364915527E+02 -0.38801087515E+03  0.10239594951E+04  0.10955802864E+04  0.00000000000E+00 0. -1.
         22    1    1    2    0    0 -0.35196629516E+02  0.62048778940E+03 -0.68935825044E+03  0.92814799303E+03  0.00000000000E+00 0.  1.
<mgrwt>
<rscale>  0 0.26387218E+04</rscale>
<asrwt>0</asrwt>
<pdfrwt beam="1">  1        2 0.31118758E+00 0.26387218E+04</pdfrwt>
<pdfrwt beam="2">  1       -2 0.13239704E+00 0.26387218E+04</pdfrwt>
<totfact> 0.23724208E+00</totfact>
</mgrwt>
</event>
<event>
 6    1  0.1817112E-005  0.3970043E+04  0.7818608E-02  0.8010617E-01
          2   -1    0    0  501    0  0.00000000000E+00  0.00000000000E+00  0.17242024112E+04  0.17242024112E+04  0.00000000000E+00 0. -1.
         -2   -1    0    0    0  501 -0.00000000000E+00 -0.00000000000E+00 -0.22852941376E+04  0.22852941376E+04  0.00000000000E+00 0.  1.
         23    2    1    2    0    0 -0.11047105546E+04  0.10360267857E+04 -0.15751304875E+04  0.21868579342E+04  0.87032532966E+02 0.  0.
         13    1    3    3    0    0 -0.33922829832E+03  0.37121899400E+03 -0.54161098430E+03  0.73906822296E+03  0.00000000000E+00 0. -1.
        -13    1    3    3    0    0 -0.76548225633E+03  0.66480779168E+03 -0.10335195032E+04  0.14477897113E+04  0.00000000000E+00 0.  1.
         22    1    1    2    0    0  0.11047105546E+04 -0.10360267857E+04  0.10140387611E+04  0.18226386145E+04  0.00000000000E+00 0. -1.
<mgrwt>
<rscale>  0 0.39700427E+04</rscale>
<asrwt>0</asrwt>
<pdfrwt beam="1">  1        2 0.26526191E+00 0.39700427E+04</pdfrwt>
<pdfrwt beam="2">  1       -2 0.35158371E+00 0.39700427E+04</pdfrwt>
<totfact> 0.11427943E-01</totfact>
</mgrwt>
</event>
<event>
 6    1  0.1817112E-005  0.3008612E+04  0.7818608E-02  0.8241276E-01
         -2   -1    0    0    0  501 -0.00000000000E+00  0.00000000000E+00  0.76927988729E+03  0.76927988729E+03  0.00000000000E+00 0.  1.
          2   -1    0    0  501    0  0.00000000000E+00 -0.00000000000E+00 -0.29416306339E+04  0.29416306339E+04  0.00000000000E+00 0. -1.
         23    2    1    2    0    0 -0.45892567935E+03  0.13265841893E+04 -0.17494238013E+04  0.22448595018E+04  0.92044312458E+02 0.  0.
         11    1    3    3    0    0 -0.20056381605E+03  0.71495622999E+03 -0.90354239698E+03  0.11695200376E+04  0.00000000000E+00 0.  1.
        -11    1    3    3    0    0 -0.25836186330E+03  0.61162795934E+03 -0.84588140436E+03  0.10753394642E+04  0.00000000000E+00 0. -1.
         22    1    1    2    0    0  0.45892567935E+03 -0.13265841893E+04 -0.42292694532E+03  0.14660510195E+04  0.00000000000E+00 0.  1.
<mgrwt>
<rscale>  0 0.30086125E+04</rscale>
<asrwt>0</asrwt>
<pdfrwt beam="1">  1        2 0.45255855E+00 0.30086125E+04</pdfrwt>
<pdfrwt beam="2">  1       -2 0.11835075E+00 0.30086125E+04</pdfrwt>
<totfact> 0.88963445E-01</totfact>
</mgrwt>
</event>
<event>
 6    1  0.1817112E-005  0.1907234E+04  0.7818608E-02  0.8651264E-01
          2   -1    0    0  501    0  0.00000000000E+00  0.00000000000E+00  0.14377877797E+04  0.14377877797E+04  0.00000000000E+00 0. -1.
         -2   -1    0    0    0  501 -0.00000000000E+00 -0.00000000000E+00 -0.63248916961E+03  0.63248916961E+03  0.00000000000E+00 0.  1.
         23    2    1    2    0    0  0.36744661038E+03 -0.82403094889E+03  0.75257493340E+02  0.90967191384E+03  0.88290907251E+02 0.  0.
         13    1    3    3    0    0  0.31256636712E+03 -0.66728096251E+03  0.92750345640E+02  0.74267371261E+03  0.00000000000E+00 0. -1.
        -13    1    3    3    0    0  0.54880243258E+02 -0.15674998638E+03 -0.17492852300E+02  0.16699820122E+03  0.00000000000E+00 0.  1.
         22    1    1    2    0    0 -0.36744661038E+03  0.82403094889E+03  0.73004111677E+03  0.11606050355E+04  0.00000000000E+00 0. -1.
<mgrwt>
<rscale>  0 0.19072338E+04</rscale>
<asrwt>0</asrwt>
<pdfrwt beam="1">  1        2 0.22119812E+00 0.19072338E+04</pdfrwt>
<pdfrwt beam="2">  1       -2 0.97306027E-01 0.19072338E+04</pdfrwt>
<totfact> 0.11355727E+01</totfact>
</mgrwt>
</event>
<event>
 6    1  0.1817112E-005  0.1437161E+04  0.7818608E-02  0.8927350E-01
          2   -1    0    0  501    0  0.00000000000E+00  0.00000000000E+00  0.12486022325E+04  0.12486022325E+04  0.00000000000E+00 0. -1.
         -2   -1    0    0    0  501 -0.00000000000E+00 -0.00000000000E+00 -0.41354871507E+03  0.41354871507E+03  0.00000000000E+00 0.  1.
         23    2    1    2    0    0  0.86239281166E+02  0.26947010851E+03  0.11794842991E+04  0.12164112068E+04  0.91769598725E+02 0.  0.
         13    1    3    3    0    0  0.66759434529E+02  0.20664252396E+03  0.71373687160E+03  0.74604173924E+03  0.00000000000E+00 0.  1.
        -13    1    3    3    0    0  0.19479846637E+02  0.62827584554E+02  0.46574742753E+03  0.47036946761E+03  0.00000000000E+00 0. -1.
         22    1    1    2    0    0 -0.86239281166E+02 -0.26947010851E+03 -0.34443078175E+03  0.44573974068E+03  0.00000000000E+00 0.  1.
<mgrwt>
<rscale>  0 0.14371609E+04</rscale>
<asrwt>0</asrwt>
<pdfrwt beam="1">  1        2 0.19209265E+00 0.14371609E+04</pdfrwt>
<pdfrwt beam="2">  1       -2 0.63622880E-01 0.14371609E+04</pdfrwt>
<totfact> 0.39322030E+01</totfact>
</mgrwt>
</event>
<event>
 6    1  0.1817112E-005  0.3714147E+04  0.7818608E-02  0.8064834E-01
          2   -1    0    0  501    0  0.00000000000E+00  0.00000000000E+00  0.15823057345E+04  0.15823057345E+04  0.00000000000E+00 0.  1.
         -2   -1    0    0    0  501 -0.00000000000E+00 -0.00000000000E+00 -0.21795543732E+04  0.21795543732E+04  0.00000000000E+00 0. -1.
         23    2    1    2    0    0  0.15971566653E+04 -0.93087015073E+03 -0.13208577510E+03  0.18556058905E+04  0.91640154120E+02 0.  0.
         13    1    3    3    0    0  0.23646611827E+03 -0.17660666086E+03 -0.21509000029E+02  0.29592021701E+03  0.00000000000E+00 0.  1.
        -13    1    3    3    0    0  0.13606905470E+04 -0.75426348987E+03 -0.11057677507E+03  0.15596856735E+04  0.00000000000E+00 0. -1.
         22    1    1    2    0    0 -0.15971566653E+04  0.93087015073E+03 -0.46516286368E+03  0.19062542172E+04  0.00000000000E+00 0. -1.
<mgrwt>
<rscale>  0 0.37141467E+04</rscale>
<asrwt>0</asrwt>
<pdfrwt beam="1">  1        2 0.24343165E+00 0.37141467E+04</pdfrwt>
<pdfrwt beam="2">  1       -2 0.33531606E+00 0.37141467E+04</pdfrwt>
<totfact> 0.17715683E-01</totfact>
</mgrwt>
</event>
<event>
 6    1  0.1817112E-005  0.3437914E+04  0.7818608E-02  0.8128663E-01
          2   -1    0    0  501    0  0.00000000000E+00  0.00000000000E+00  0.14247959466E+04  0.14247959466E+04  0.00000000000E+00 0. -1.
         -2   -1    0    0    0  501 -0.00000000000E+00 -0.00000000000E+00 -0.20738502274E+04  0.20738502274E+04  0.00000000000E+00 0.  1.
         23    2    1    2    0    0  0.88742927619E+03  0.14470837133E+04 -0.59222460753E+03  0.18001728580E+04  0.91161064293E+02 0.  0.
         13    1    3    3    0    0  0.46892763834E+02  0.11403149929E+03 -0.29312552984E+02  0.12673334168E+03  0.00000000000E+00 0. -1.
        -13    1    3    3    0    0  0.84053651235E+03  0.13330522140E+04 -0.56291205454E+03  0.16734395164E+04  0.00000000000E+00 0.  1.
         22    1    1    2    0    0 -0.88742927619E+03 -0.14470837133E+04 -0.56829673267E+02  0.16984733160E+04  0.00000000000E+00 0.  1.
<mgrwt>
<rscale>  0 0.34379141E+04</rscale>
<asrwt>0</asrwt>
<pdfrwt beam="1">  1        2 0.21919938E+00 0.34379141E+04</pdfrwt>
<pdfrwt beam="2">  1       -2 0.31905388E+00 0.34379141E+04</pdfrwt>
<totfact> 0.28065778E-01</totfact>
</mgrwt>
</event>
<event>
 6    1  0.1817112E-005  0.1276149E+04  0.7818608E-02  0.9048696E-01
          1   -1    0    0  501    0  0.00000000000E+00  0.00000000000E+00  0.40950818766E+04  0.40950818766E+04  0.00000000000E+00 0. -1.
         -1   -1    0    0    0  501 -0.00000000000E+00 -0.00000000000E+00 -0.99421502461E+02  0.99421502461E+02  0.00000000000E+00 0.  1.
         23    2    1    2    0    0  0.38101839549E+03  0.50442468939E+03  0.18110996810E+04  0.19203167757E+04  0.88967294529E+02 0.  0.
         11    1    3    3    0    0  0.12212774861E+03  0.23227998972E+03  0.77588220992E+03  0.81906189282E+03  0.00000000000E+00 0.  1.
        -11    1    3    3    0    0  0.25889064688E+03  0.27214469967E+03  0.10352174711E+04  0.11012548828E+04  0.00000000000E+00 0. -1.
         22    1    1    2    0    0 -0.38101839549E+03 -0.50442468939E+03  0.21845606932E+04  0.22741866034E+04  0.00000000000E+00 0.  1.
<mgrwt>
<rscale>  0 0.12761492E+04</rscale>
<asrwt>0</asrwt>
<pdfrwt beam="1">  1        1 0.63001246E+00 0.12761492E+04</pdfrwt>
<pdfrwt beam="2">  1       -1 0.15295619E-01 0.12761492E+04</pdfrwt>
<totfact> 0.25568344E+00</totfact>
</mgrwt>
</event>
<event>
 6    1  0.1817112E-005  0.8514054E+03  0.7818608E-02  0.9488453E-01
          2   -1    0    0  501    0  0.00000000000E+00  0.00000000000E+00  0.26010634543E+04  0.26010634543E+04  0.00000000000E+00 0. -1.
         -2   -1    0    0    0  501 -0.00000000000E+00 -0.00000000000E+00 -0.69672571934E+02  0.69672571934E+02  0.00000000000E+00 0.  1.
         23    2    1    2    0    0 -0.94179431245E+01 -0.83953239167E+02  0.25733869694E+04  0.25763934836E+04  0.91356685472E+02 0.  0.
         13    1    3    3    0    0 -0.56297161057E-01  0.17465108842E+02  0.18131561055E+03  0.18215483476E+03  0.00000000000E+00 0. -1.
        -13    1    3    3    0    0 -0.93616459634E+01 -0.10141834801E+03  0.23920713588E+04  0.23942386488E+04  0.00000000000E+00 0.  1.
         22    1    1    2    0    0  0.94179431245E+01  0.83953239167E+02 -0.41996087061E+02  0.94342542618E+02  0.00000000000E+00 0.  1.
<mgrwt>
<rscale>  0 0.85140538E+03</rscale>
<asrwt>0</asrwt>
<pdfrwt beam="1">  1        2 0.40016353E+00 0.85140538E+03</pdfrwt>
<pdfrwt beam="2">  1       -2 0.10718859E-01 0.85140538E+03</pdfrwt>
<totfact> 0.19196391E+02</totfact>
</mgrwt>
</event>
<event>
 6    1  0.1817112E-005  0.2343695E+04  0.7818608E-02  0.8460889E-01
          2   -1    0    0  501    0  0.00000000000E+00  0.00000000000E+00  0.36856270213E+04  0.36856270213E+04  0.00000000000E+00 0. -1.
         -2   -1    0    0    0  501 -0.00000000000E+00 -0.00000000000E+00 -0.37258953940E+03  0.37258953940E+03  0.00000000000E+00 0.  1.
         23    2    1    2    0    0 -0.47527275361E+03 -0.10239190104E+04  0.21921621775E+04  0.24674130599E+04  0.90872798903E+02 0.  0.
         13    1    3    3    0    0 -0.15062379568E+03 -0.36296817389E+03  0.67716633208E+03  0.78293528748E+03  0.00000000000E+00 0.  1.
        -13    1    3    3    0    0 -0.32464895793E+03 -0.66095083648E+03  0.15149958454E+04  0.16844777724E+04  0.00000000000E+00 0. -1.
         22    1    1    2    0    0  0.47527275361E+03  0.10239190104E+04  0.11208753044E+04  0.15908035008E+04  0.00000000000E+00 0. -1.
<mgrwt>
<rscale>  0 0.23436946E+04</rscale>
<asrwt>0</asrwt>
<pdfrwt beam="1">  1        2 0.56701952E+00 0.23436946E+04</pdfrwt>
<pdfrwt beam="2">  1       -2 0.57321470E-01 0.23436946E+04</pdfrwt>
<totfact> 0.15459196E+00</totfact>
</mgrwt>
</event>
<event>
 6    1  0.1817112E-005  0.1724754E+04  0.7818608E-02  0.8747371E-01
         -2   -1    0    0    0  501 -0.00000000000E+00  0.00000000000E+00  0.26478870428E+03  0.26478870428E+03  0.00000000000E+00 0.  1.
          2   -1    0    0  501    0  0.00000000000E+00 -0.00000000000E+00 -0.28086311971E+04  0.28086311971E+04  0.00000000000E+00 0. -1.
         23    2    1    2    0    0 -0.15441911832E+03  0.68634139896E+03 -0.21568204879E+04  0.22704903824E+04  0.91335534278E+02 0.  0.
         11    1    3    3    0    0 -0.11456649738E+03  0.61043456465E+03 -0.18258531173E+04  0.19285993482E+04  0.00000000000E+00 0. -1.
        -11    1    3    3    0    0 -0.39852620933E+02  0.75906834316E+02 -0.33096737055E+03  0.34189103419E+03  0.00000000000E+00 0.  1.
         22    1    1    2    0    0  0.15441911832E+03 -0.68634139896E+03 -0.38702200491E+03  0.80292951890E+03  0.00000000000E+00 0.  1.
<mgrwt>
<rscale>  0 0.17247537E+04</rscale>
<asrwt>0</asrwt>
<pdfrwt beam="1">  1        2 0.43209710E+00 0.17247537E+04</pdfrwt>
<pdfrwt beam="2">  1       -2 0.40736724E-01 0.17247537E+04</pdfrwt>
<totfact> 0.12420941E+01</totfact>
</mgrwt>
</event>
<event>
 6    1  0.1817112E-005  0.3084189E+04  0.7818608E-02  0.8220090E-01
         -2   -1    0    0    0  501 -0.00000000000E+00  0.00000000000E+00  0.51118705128E+03  0.51118705128E+03  0.00000000000E+00 0.  1.
          2   -1    0    0  501    0  0.00000000000E+00 -0.00000000000E+00 -0.46520265546E+04  0.46520265546E+04  0.00000000000E+00 0. -1.
         23    2    1    2    0    0  0.10575119703E+04  0.60125791379E+03 -0.48913757894E+03  0.13142176861E+04  0.89832672349E+02 0.  0.
         13    1    3    3    0    0  0.70493332517E+03  0.44345773802E+03 -0.31330785407E+03  0.88980198346E+03  0.00000000000E+00 0. -1.
        -13    1    3    3    0    0  0.35257864512E+03  0.15780017578E+03 -0.17582972487E+03  0.42441570260E+03  0.00000000000E+00 0.  1.
         22    1    1    2    0    0 -0.10575119703E+04 -0.60125791379E+03 -0.36517019243E+04  0.38489959198E+04  0.00000000000E+00 0. -1.
<mgrwt>
<rscale>  0 0.30841892E+04</rscale>
<asrwt>0</asrwt>
<pdfrwt beam="1">  1        2 0.71569636E+00 0.30841892E+04</pdfrwt>
<pdfrwt beam="2">  1       -2 0.78644165E-01 0.30841892E+04</pdfrwt>
<totfact> 0.10519623E-01</totfact>
</mgrwt>
</event>
<event>
 6    1  0.1817112E-005  0.4063103E+04  0.7818608E-02  0.7991936E-01
         -2   -1    0    0    0  501 -0.00000000000E+00  0.00000000000E+00  0.14750396419E+04  0.14750396419E+04  0.00000000000E+00 0.  1.
          2   -1    0    0  501    0  0.00000000000E+00 -0.00000000000E+00 -0.27980271113E+04  0.27980271113E+04  0.00000000000E+00 0. -1.
         23    2    1    2    0    0 -0.16847388935E+04  0.52357278570E+03 -0.17190042351E+04  0.24649453857E+04  0.92231194211E+02 0.  0.
         11    1    3    3    0    0 -0.64799696316E+03  0.16376517218E+03 -0.61367257722E+03  0.90736603856E+03  0.00000000000E+00 0. -1.
        -11    1    3    3    0    0 -0.10367419303E+04  0.35980761352E+03 -0.11053316579E+04  0.15575793472E+04  0.00000000000E+00 0.  1.
         22    1    1    2    0    0  0.16847388935E+04 -0.52357278570E+03  0.39601676572E+03  0.18081213676E+04  0.00000000000E+00 0.  1.
<mgrwt>
<rscale>  0 0.40631027E+04</rscale>
<asrwt>0</asrwt>
<pdfrwt beam="1">  1        2 0.43046571E+00 0.40631027E+04</pdfrwt>
<pdfrwt beam="2">  1       -2 0.22692918E+00 0.40631027E+04</pdfrwt>
<totfact> 0.16261392E-01</totfact>
</mgrwt>
</event>
<event>
 6    1  0.1817112E-005  0.2467991E+04  0.7818608E-02  0.8414479E-01
          2   -1    0    0  501    0  0.00000000000E+00  0.00000000000E+00  0.75014152621E+03  0.75014152621E+03  0.00000000000E+00 0. -1.
         -2   -1    0    0    0  501 -0.00000000000E+00 -0.00000000000E+00 -0.20299427845E+04  0.20299427845E+04  0.00000000000E+00 0.  1.
         23    2    1    2    0    0 -0.40215995337E+03  0.11442441755E+04 -0.88694663861E+03  0.15051874077E+04  0.88811212043E+02 0.  0.
         13    1    3    3    0    0 -0.11201056556E+03  0.22519772634E+03 -0.16138023224E+03  0.29883768521E+03  0.00000000000E+00 0. -1.
        -13    1    3    3    0    0 -0.29014938781E+03  0.91904644911E+03 -0.72556640638E+03  0.12063497225E+04  0.00000000000E+00 0.  1.
         22    1    1    2    0    0  0.40215995337E+03 -0.11442441755E+04 -0.39285461971E+03  0.12748969030E+04  0.00000000000E+00 0. -1.
<mgrwt>
<rscale>  0 0.24679906E+04</rscale>
<asrwt>0</asrwt>
<pdfrwt beam="1">  1        2 0.11540639E+00 0.24679906E+04</pdfrwt>
<pdfrwt beam="2">  1       -2 0.31229889E+00 0.24679906E+04</pdfrwt>
<totfact> 0.89577633E-01</totfact>
</mgrwt>
</event>
<event>
 6    1  0.1817112E-005  0.1988500E+04  0.7818608E-02  0.8612016E-01
         -2   -1    0    0    0  501 -0.00000000000E+00  0.00000000000E+00  0.41838670138E+03  0.41838670138E+03  0.00000000000E+00 0.  1.
          2   -1    0    0  501    0  0.00000000000E+00 -0.00000000000E+00 -0.23627261340E+04  0.23627261340E+04  0.00000000000E+00 0. -1.
         23    2    1    2    0    0  0.49491958144E+03  0.81645805390E+03 -0.13458648562E+04  0.16542938772E+04  0.11741752451E+03 0.  0.
         11    1    3    3    0    0  0.36223304037E+03  0.54515530867E+03 -0.99961601886E+03  0.11948385963E+04  0.00000000000E+00 0.  1.
        -11    1    3    3    0    0  0.13268654107E+03  0.27130274523E+03 -0.34624883736E+03  0.45945528087E+03  0.00000000000E+00 0. -1.
         22    1    1    2    0    0 -0.49491958144E+03 -0.81645805390E+03 -0.59847457636E+03  0.11268189581E+04  0.00000000000E+00 0.  1.
<mgrwt>
<rscale>  0 0.19885001E+04</rscale>
<asrwt>0</asrwt>
<pdfrwt beam="1">  1        2 0.36349632E+00 0.19885001E+04</pdfrwt>
<pdfrwt beam="2">  1       -2 0.64367186E-01 0.19885001E+04</pdfrwt>
<totfact> 0.86598951E+00</totfact>
</mgrwt>
</event>
<event>
 6    1  0.1817112E-005  0.1229945E+04  0.7818608E-02  0.9087042E-01
          2   -1    0    0  501    0  0.00000000000E+00  0.00000000000E+00  0.10370398909E+04  0.10370398909E+04  0.00000000000E+00 0. -1.
         -2   -1    0    0    0  501 -0.00000000000E+00 -0.00000000000E+00 -0.36468348115E+03  0.36468348115E+03  0.00000000000E+00 0.  1.
         23    2    1    2    0    0 -0.16483443856E+01  0.43521178703E+03  0.82911912414E+03  0.93913655296E+03  0.71602559253E+02 0.  0.
         13    1    3    3    0    0 -0.30820100763E+02  0.31175733132E+03  0.61709440511E+03  0.69206070331E+03  0.00000000000E+00 0.  1.
        -13    1    3    3    0    0  0.29171756377E+02  0.12345445571E+03  0.21202471902E+03  0.24707584965E+03  0.00000000000E+00 0. -1.
         22    1    1    2    0    0  0.16483443856E+01 -0.43521178703E+03 -0.15676271435E+03  0.46258681912E+03  0.00000000000E+00 0.  1.
<mgrwt>
<rscale>  0 0.12299452E+04</rscale>
<asrwt>0</asrwt>
<pdfrwt beam="1">  1        2 0.15954460E+00 0.12299452E+04</pdfrwt>
<pdfrwt beam="2">  1       -2 0.56105151E-01 0.12299452E+04</pdfrwt>
<totfact> 0.70065997E+01</totfact>
</mgrwt>
</event>
<event>
 6    1  0.1817112E-005  0.6397742E+04  0.7818608E-02  0.7642952E-01
          1   -1    0    0  501    0  0.00000000000E+00  0.00000000000E+00  0.24149743942E+04  0.24149743942E+04  0.00000000000E+00 0. -1.
         -1   -1    0    0    0  501 -0.00000000000E+00 -0.00000000000E+00 -0.42372193729E+04  0.42372193729E+04  0.00000000000E+00 0.  1.
         23    2    1    2    0    0  0.25668500706E+04  0.16299125518E+04 -0.19423329595E+04  0.36092091574E+04  0.91647174424E+02 0.  0.
         13    1    3    3    0    0  0.24591807449E+04  0.15550652091E+04 -0.18366783081E+04  0.34408116700E+04  0.00000000000E+00 0. -1.
        -13    1    3    3    0    0  0.10766932572E+03  0.74847342737E+02 -0.10565465134E+03  0.16839748741E+03  0.00000000000E+00 0.  1.
         22    1    1    2    0    0 -0.25668500706E+04 -0.16299125518E+04  0.12008798079E+03  0.30429846097E+04  0.00000000000E+00 0. -1.
<mgrwt>
<rscale>  0 0.63977422E+04</rscale>
<asrwt>0</asrwt>
<pdfrwt beam="1">  1        1 0.37153452E+00 0.63977422E+04</pdfrwt>
<pdfrwt beam="2">  1       -1 0.65187990E+00 0.63977422E+04</pdfrwt>
<totfact> 0.29754512E-04</totfact>
</mgrwt>
</event>
<event>
 6    1  0.1817112E-005  0.3658751E+04  0.7818608E-02  0.8077165E-01
          2   -1    0    0  501    0  0.00000000000E+00  0.00000000000E+00  0.18066501514E+04  0.18066501514E+04  0.00000000000E+00 0. -1.
         -2   -1    0    0    0  501 -0.00000000000E+00 -0.00000000000E+00 -0.18523863851E+04  0.18523863851E+04  0.00000000000E+00 0.  1.
         23    2    1    2    0    0 -0.15130374730E+04  0.81611935624E+03  0.59940488711E+03  0.18228610916E+04  0.90571200470E+02 0.  0.
         13    1    3    3    0    0 -0.12489825754E+04  0.66153300625E+03  0.45733153105E+03  0.14855085060E+04  0.00000000000E+00 0.  1.
        -13    1    3    3    0    0 -0.26405489759E+03  0.15458634999E+03  0.14207335606E+03  0.33735258565E+03  0.00000000000E+00 0. -1.
         22    1    1    2    0    0  0.15130374730E+04 -0.81611935624E+03 -0.64514112080E+03  0.18361754448E+04  0.00000000000E+00 0.  1.
<mgrwt>
<rscale>  0 0.36587507E+04</rscale>
<asrwt>0</asrwt>
<pdfrwt beam="1">  1        2 0.27794618E+00 0.36587507E+04</pdfrwt>
<pdfrwt beam="2">  1       -2 0.28498252E+00 0.36587507E+04</pdfrwt>
<totfact> 0.27249510E-01</totfact>
</mgrwt>
</event>
<event>
 6    1  0.1817112E-005  0.1315103E+04  0.7818608E-02  0.9017673E-01
         -2   -1    0    0    0  501 -0.00000000000E+00  0.00000000000E+00  0.38964161738E+03  0.38964161738E+03  0.00000000000E+00 0.  1.
          2   -1    0    0  501    0  0.00000000000E+00 -0.00000000000E+00 -0.11096716296E+04  0.11096716296E+04  0.00000000000E+00 0. -1.
         23    2    1    2    0    0  0.58794793266E+03 -0.19931495477E+03 -0.59766125347E+03  0.86655473392E+03  0.91153224090E+02 0.  0.
         11    1    3    3    0    0  0.18884013948E+03 -0.74752997107E+02 -0.25489976907E+03  0.32591793619E+03  0.00000000000E+00 0. -1.
        -11    1    3    3    0    0  0.39910779318E+03 -0.12456195766E+03 -0.34276148440E+03  0.54063679773E+03  0.00000000000E+00 0.  1.
         22    1    1    2    0    0 -0.58794793266E+03  0.19931495477E+03 -0.12236875872E+03  0.63275851304E+03  0.00000000000E+00 0.  1.
<mgrwt>
<rscale>  0 0.13151034E+04</rscale>
<asrwt>0</asrwt>
<pdfrwt beam="1">  1        2 0.17071871E+00 0.13151034E+04</pdfrwt>
<pdfrwt beam="2">  1       -2 0.59944864E-01 0.13151034E+04</pdfrwt>
<totfact> 0.54603226E+01</totfact>
</mgrwt>
</event>
<event>
 6    1  0.1817112E-005  0.3820454E+04  0.7818608E-02  0.8041780E-01
         -2   -1    0    0    0  501 -0.00000000000E+00  0.00000000000E+00  0.10025594573E+04  0.10025594573E+04  0.00000000000E+00 0.  1.
          2   -1    0    0  501    0  0.00000000000E+00 -0.00000000000E+00 -0.36396512413E+04  0.36396512413E+04  0.00000000000E+00 0. -1.
         23    2    1    2    0    0 -0.40665164382E+03 -0.14977422035E+04  0.31971148604E+02  0.15547369406E+04  0.87106444379E+02 0.  0.
         11    1    3    3    0    0 -0.21521876848E+03 -0.82243647617E+03  0.60164144278E+02  0.85225618208E+03  0.00000000000E+00 0.  1.
        -11    1    3    3    0    0 -0.19143287534E+03 -0.67530572732E+03 -0.28192995673E+02  0.70248075854E+03  0.00000000000E+00 0. -1.
         22    1    1    2    0    0  0.40665164382E+03  0.14977422035E+04 -0.26690629327E+04  0.30874737580E+04  0.00000000000E+00 0. -1.
<mgrwt>
<rscale>  0 0.38204538E+04</rscale>
<asrwt>0</asrwt>
<pdfrwt beam="1">  1        2 0.55994635E+00 0.38204538E+04</pdfrwt>
<pdfrwt beam="2">  1       -2 0.15423991E+00 0.38204538E+04</pdfrwt>
<totfact> 0.14359149E-01</totfact>
</mgrwt>
</event>
<event>
 6    1  0.1817112E-005  0.1910880E+04  0.7818608E-02  0.8649459E-01
          2   -1    0    0  501    0  0.00000000000E+00  0.00000000000E+00  0.14923110667E+04  0.14923110667E+04  0.00000000000E+00 0. -1.
         -2   -1    0    0    0  501 -0.00000000000E+00 -0.00000000000E+00 -0.61171284661E+03  0.61171284661E+03  0.00000000000E+00 0.  1.
         23    2    1    2    0    0  0.65057364977E+03  0.55804323495E+03 -0.18272423004E+02  0.86199864832E+03  0.89718796321E+02 0.  0.
         11    1    3    3    0    0  0.42919242166E+03  0.40760229073E+03  0.16236415039E+02  0.59212277730E+03  0.00000000000E+00 0.  1.
        -11    1    3    3    0    0  0.22138122811E+03  0.15044094421E+03 -0.34508838043E+02  0.26987587102E+03  0.00000000000E+00 0. -1.
         22    1    1    2    0    0 -0.65057364977E+03 -0.55804323495E+03  0.89887064309E+03  0.12420252650E+04  0.00000000000E+00 0. -1.
<mgrwt>
<rscale>  0 0.19108803E+04</rscale>
<asrwt>0</asrwt>
<pdfrwt beam="1">  1        2 0.22958632E+00 0.19108803E+04</pdfrwt>
<pdfrwt beam="2">  1       -2 0.94109669E-01 0.19108803E+04</pdfrwt>
<totfact> 0.11431635E+01</totfact>
</mgrwt>
</event>
<event>
 6    1  0.1817112E-005  0.1875246E+04  0.7818608E-02  0.8667277E-01
         -2   -1    0    0    0  501 -0.00000000000E+00  0.00000000000E+00  0.72864572578E+03  0.72864572578E+03  0.00000000000E+00 0.  1.
          2   -1    0    0  501    0  0.00000000000E+00 -0.00000000000E+00 -0.12065349266E+04  0.12065349266E+04  0.00000000000E+00 0. -1.
         23    2    1    2    0    0 -0.20057624649E+02 -0.36431384979E+03 -0.11285564059E+04  0.11891949278E+04  0.86128540150E+02 0.  0.
         13    1    3    3    0    0 -0.39163215196E+02 -0.16564635420E+03 -0.61807815470E+03  0.64108741791E+03  0.00000000000E+00 0. -1.
        -13    1    3    3    0    0  0.19105590547E+02 -0.19866749559E+03 -0.51047825124E+03  0.54810750988E+03  0.00000000000E+00 0.  1.
         22    1    1    2    0    0  0.20057624649E+02  0.36431384979E+03  0.65066720513E+03  0.74598572458E+03  0.00000000000E+00 0.  1.
<mgrwt>
<rscale>  0 0.18752456E+04</rscale>
<asrwt>0</asrwt>
<pdfrwt beam="1">  1        2 0.18562076E+00 0.18752456E+04</pdfrwt>
<pdfrwt beam="2">  1       -2 0.11209934E+00 0.18752456E+04</pdfrwt>
<totfact> 0.11056196E+01</totfact>
</mgrwt>
</event>
<event>
 6    1  0.1817112E-005  0.1464676E+04  0.7818608E-02  0.8908289E-01
          2   -1    0    0  501    0  0.00000000000E+00  0.00000000000E+00  0.97390033162E+03  0.97390033162E+03  0.00000000000E+00 0. -1.
         -2   -1    0    0    0  501 -0.00000000000E+00 -0.00000000000E+00 -0.55069158793E+03  0.55069158793E+03  0.00000000000E+00 0.  1.
         23    2    1    2    0    0 -0.22641041576E+03 -0.14061755909E+03  0.91923482700E+03  0.96149614651E+03  0.91908641016E+02 0.  0.
         13    1    3    3    0    0 -0.66642010050E+02 -0.46284432320E+02  0.44349864725E+03  0.45085968581E+03  0.00000000000E+00 0.  1.
        -13    1    3    3    0    0 -0.15976840571E+03 -0.94333126770E+02  0.47573617975E+03  0.51063646070E+03  0.00000000000E+00 0. -1.
         22    1    1    2    0    0  0.22641041576E+03  0.14061755909E+03 -0.49602608331E+03  0.56309577304E+03  0.00000000000E+00 0.  1.
<mgrwt>
<rscale>  0 0.14646757E+04</rscale>
<asrwt>0</asrwt>
<pdfrwt beam="1">  1        2 0.14983082E+00 0.14646757E+04</pdfrwt>
<pdfrwt beam="2">  1       -2 0.84721783E-01 0.14646757E+04</pdfrwt>
<totfact> 0.30804879E+01</totfact>
</mgrwt>
</event>
<event>
 6    1  0.1817112E-005  0.2507735E+04  0.7818608E-02  0.8400235E-01
         -2   -1    0    0    0  501 -0.00000000000E+00  0.00000000000E+00  0.47734443900E+03  0.47734443900E+03  0.00000000000E+00 0.  1.
          2   -1    0    0  501    0  0.00000000000E+00 -0.00000000000E+00 -0.32936031218E+04  0.32936031218E+04  0.00000000000E+00 0. -1.
         23    2    1    2    0    0  0.35243854901E+03 -0.10720177199E+04 -0.59350070298E+03  0.12781403161E+04  0.89244946893E+02 0.  0.
         13    1    3    3    0    0  0.18171045892E+03 -0.67254902841E+03 -0.34062702171E+03  0.77547898387E+03  0.00000000000E+00 0. -1.
        -13    1    3    3    0    0  0.17072809009E+03 -0.39946869147E+03 -0.25287368127E+03  0.50266133220E+03  0.00000000000E+00 0.  1.
         22    1    1    2    0    0 -0.35243854901E+03  0.10720177199E+04 -0.22227579798E+04  0.24928072448E+04  0.00000000000E+00 0. -1.
<mgrwt>
<rscale>  0 0.25077345E+04</rscale>
<asrwt>0</asrwt>
<pdfrwt beam="1">  1        2 0.50670818E+00 0.25077345E+04</pdfrwt>
<pdfrwt beam="2">  1       -2 0.73437604E-01 0.25077345E+04</pdfrwt>
<totfact> 0.16785075E+00</totfact>
</mgrwt>
</event>
<event>
 6    1  0.1817112E-005  0.3106857E+04  0.7818608E-02  0.8213859E-01
         -2   -1    0    0    0  501 -0.00000000000E+00  0.00000000000E+00  0.74355447998E+03  0.74355447998E+03  0.00000000000E+00 0.  1.
          2   -1    0    0  501    0  0.00000000000E+00 -0.00000000000E+00 -0.32454106536E+04  0.32454106536E+04  0.00000000000E+00 0. -1.
         23    2    1    2    0    0  0.28655996162E+03 -0.13779394758E+04 -0.20925086286E+04  0.25232232657E+04  0.85026333746E+02 0.  0.
         13    1    3    3    0    0  0.24673440624E+03 -0.12327636800E+04 -0.18221418997E+04  0.22137717273E+04  0.00000000000E+00 0. -1.
        -13    1    3    3    0    0  0.39825555380E+02 -0.14517579582E+03 -0.27036672889E+03  0.30945153844E+03  0.00000000000E+00 0.  1.
         22    1    1    2    0    0 -0.28655996162E+03  0.13779394758E+04 -0.40934754507E+03  0.14657418679E+04  0.00000000000E+00 0.  1.
<mgrwt>
<rscale>  0 0.31068567E+04</rscale>
<asrwt>0</asrwt>
<pdfrwt beam="1">  1        2 0.49929394E+00 0.31068567E+04</pdfrwt>
<pdfrwt beam="2">  1       -2 0.11439300E+00 0.31068567E+04</pdfrwt>
<totfact> 0.61312348E-01</totfact>
</mgrwt>
</event>
<event>
 6    1  0.1817112E-005  0.2232696E+04  0.7818608E-02  0.8504941E-01
          2   -1    0    0  501    0  0.00000000000E+00  0.00000000000E+00  0.38838741096E+04  0.38838741096E+04  0.00000000000E+00 0. -1.
         -2   -1    0    0    0  501 -0.00000000000E+00 -0.00000000000E+00 -0.32087375887E+03  0.32087375887E+03  0.00000000000E+00 0.  1.
         23    2    1    2    0    0 -0.61547773404E+03  0.45410299611E+03  0.33110016229E+04  0.33994369155E+04  0.91745427951E+02 0.  0.
         11    1    3    3    0    0 -0.13103861647E+03  0.53465704315E+02  0.58034901725E+03  0.59735641151E+03  0.00000000000E+00 0.  1.
        -11    1    3    3    0    0 -0.48443911757E+03  0.40063729180E+03  0.27306526056E+04  0.28020805040E+04  0.00000000000E+00 0. -1.
         22    1    1    2    0    0  0.61547773404E+03 -0.45410299611E+03  0.25199872790E+03  0.80531095301E+03  0.00000000000E+00 0.  1.
<mgrwt>
<rscale>  0 0.22326964E+04</rscale>
<asrwt>0</asrwt>
<pdfrwt beam="1">  1        2 0.59751906E+00 0.22326964E+04</pdfrwt>
<pdfrwt beam="2">  1       -2 0.49365196E-01 0.22326964E+04</pdfrwt>
<totfact> 0.15071257E+00</totfact>
</mgrwt>
</event>
<event>
 6    1  0.1817112E-005  0.3497100E+04  0.7818608E-02  0.8114478E-01
          2   -1    0    0  501    0  0.00000000000E+00  0.00000000000E+00  0.14675069060E+04  0.14675069060E+04  0.00000000000E+00 0. -1.
         -2   -1    0    0    0  501 -0.00000000000E+00 -0.00000000000E+00 -0.20834158855E+04  0.20834158855E+04  0.00000000000E+00 0.  1.
         23    2    1    2    0    0  0.14046156352E+03  0.12925058214E+04 -0.14935929401E+04  0.19822832906E+04  0.91249241315E+02 0.  0.
         11    1    3    3    0    0  0.18413143902E+01  0.16141620934E+03 -0.14814458931E+03  0.21910135193E+03  0.00000000000E+00 0. -1.
        -11    1    3    3    0    0  0.13862024913E+03  0.11310896121E+04 -0.13454483508E+04  0.17631819386E+04  0.00000000000E+00 0.  1.
         22    1    1    2    0    0 -0.14046156352E+03 -0.12925058214E+04  0.87768396062E+03  0.15686395010E+04  0.00000000000E+00 0. -1.
<mgrwt>
<rscale>  0 0.34971001E+04</rscale>
<asrwt>0</asrwt>
<pdfrwt beam="1">  1        2 0.22577029E+00 0.34971001E+04</pdfrwt>
<pdfrwt beam="2">  1       -2 0.32052552E+00 0.34971001E+04</pdfrwt>
<totfact> 0.25862982E-01</totfact>
</mgrwt>
</event>
<event>
 6    1  0.1817112E-005  0.1097509E+04  0.7818608E-02  0.9207624E-01
          2   -1    0    0  501    0  0.00000000000E+00  0.00000000000E+00  0.19164504774E+04  0.19164504774E+04  0.00000000000E+00 0. -1.
         -2   -1    0    0    0  501 -0.00000000000E+00 -0.00000000000E+00 -0.15712968438E+03  0.15712968438E+03  0.00000000000E+00 0.  1.
         23    2    1    2    0    0 -0.36084894874E+03 -0.17911995944E+03  0.19236778384E+03  0.45566865101E+03  0.91283249125E+02 0.  0.
         13    1    3    3    0    0 -0.13806489295E+03 -0.10989409799E+03  0.11160750682E+03  0.20879382897E+03  0.00000000000E+00 0. -1.
        -13    1    3    3    0    0 -0.22278405580E+03 -0.69225861448E+02  0.80760277023E+02  0.24687482204E+03  0.00000000000E+00 0.  1.
         22    1    1    2    0    0  0.36084894874E+03  0.17911995944E+03  0.15669530091E+04  0.16179115107E+04  0.00000000000E+00 0. -1.
<mgrwt>
<rscale>  0 0.10975086E+04</rscale>
<asrwt>0</asrwt>
<pdfrwt beam="1">  1        2 0.29483852E+00 0.10975086E+04</pdfrwt>
<pdfrwt beam="2">  1       -2 0.24173799E-01 0.10975086E+04</pdfrwt>
<totfact> 0.11273510E+02</totfact>
</mgrwt>
</event>
<event>
 6    1  0.1817112E-005  0.2355339E+04  0.7818608E-02  0.8456416E-01
         -1   -1    0    0    0  501 -0.00000000000E+00  0.00000000000E+00  0.89737661732E+03  0.89737661732E+03  0.00000000000E+00 0.  1.
          1   -1    0    0  501    0  0.00000000000E+00 -0.00000000000E+00 -0.15455108432E+04  0.15455108432E+04  0.00000000000E+00 0. -1.
         23    2    1    2    0    0 -0.46446709737E+03 -0.89575176062E+03  0.30173482191E+03  0.10571197639E+04  0.91418768219E+02 0.  0.
         11    1    3    3    0    0 -0.34184931941E+03 -0.71633561277E+03  0.20851604081E+03  0.82065620486E+03  0.00000000000E+00 0. -1.
        -11    1    3    3    0    0 -0.12261777796E+03 -0.17941614785E+03  0.93218781099E+02  0.23646355899E+03  0.00000000000E+00 0.  1.
         22    1    1    2    0    0  0.46446709737E+03  0.89575176062E+03 -0.94986904778E+03  0.13857676967E+04  0.00000000000E+00 0. -1.
<mgrwt>
<rscale>  0 0.23553389E+04</rscale>
<asrwt>0</asrwt>
<pdfrwt beam="1">  1        1 0.23777090E+00 0.23553389E+04</pdfrwt>
<pdfrwt beam="2">  1       -1 0.13805794E+00 0.23553389E+04</pdfrwt>
<totfact> 0.23793190E+00</totfact>
</mgrwt>
</event>
<event>
 6    1  0.1817112E-005  0.1315423E+04  0.7818608E-02  0.9017423E-01
          2   -1    0    0  501    0  0.00000000000E+00  0.00000000000E+00  0.26954357978E+04  0.26954357978E+04  0.00000000000E+00 0. -1.
         -2   -1    0    0    0  501 -0.00000000000E+00 -0.00000000000E+00 -0.16048786673E+03  0.16048786673E+03  0.00000000000E+00 0.  1.
         23    2    1    2    0    0  0.36795958898E+03 -0.24766172067E+03  0.23184248794E+04  0.23623521713E+04  0.94251115662E+02 0.  0.
         13    1    3    3    0    0  0.26900262596E+03 -0.16597044768E+03  0.14159881218E+04  0.14508380211E+04  0.00000000000E+00 0. -1.
        -13    1    3    3    0    0  0.98956963018E+02 -0.81691272988E+02  0.90243675763E+03  0.91151415026E+03  0.00000000000E+00 0.  1.
         22    1    1    2    0    0 -0.36795958898E+03  0.24766172067E+03  0.21652305165E+03  0.49357149321E+03  0.00000000000E+00 0.  1.
<mgrwt>
<rscale>  0 0.13154235E+04</rscale>
<asrwt>0</asrwt>
<pdfrwt beam="1">  1        2 0.41468240E+00 0.13154235E+04</pdfrwt>
<pdfrwt beam="2">  1       -2 0.24690443E-01 0.13154235E+04</pdfrwt>
<totfact> 0.38655327E+01</totfact>
</mgrwt>
</event>
<event>
 6    1  0.1817112E-005  0.1090377E+04  0.7818608E-02  0.9214623E-01
         -2   -1    0    0    0  501 -0.00000000000E+00  0.00000000000E+00  0.20026343641E+03  0.20026343641E+03  0.00000000000E+00 0. -1.
          2   -1    0    0  501    0  0.00000000000E+00 -0.00000000000E+00 -0.14841965029E+04  0.14841965029E+04  0.00000000000E+00 0.  1.
         23    2    1    2    0    0  0.47155486852E+03  0.39187242819E+02 -0.24291248230E+03  0.54094627925E+03  0.98573672692E+02 0.  0.
         11    1    3    3    0    0  0.30901544406E+03  0.62222492871E+02 -0.19191405579E+03  0.36904361273E+03  0.00000000000E+00 0. -1.
        -11    1    3    3    0    0  0.16253942447E+03 -0.23035250052E+02 -0.50998426513E+02  0.17190266653E+03  0.00000000000E+00 0.  1.
         22    1    1    2    0    0 -0.47155486852E+03 -0.39187242819E+02 -0.10410205842E+04  0.11435136600E+04  0.00000000000E+00 0.  1.
<mgrwt>
<rscale>  0 0.10903766E+04</rscale>
<asrwt>0</asrwt>
<pdfrwt beam="1">  1        2 0.22833794E+00 0.10903766E+04</pdfrwt>
<pdfrwt beam="2">  1       -2 0.30809757E-01 0.10903766E+04</pdfrwt>
<totfact> 0.12547877E+02</totfact>
</mgrwt>
</event>
<event>
 6    1  0.4165465E-005  0.3287265E+04  0.7818608E-02  0.8166143E-01
         -2   -1    0    0    0  501 -0.00000000000E+00  0.00000000000E+00  0.16809182033E+04  0.16809182033E+04  0.00000000000E+00 0.  1.
          2   -1    0    0  501    0  0.00000000000E+00 -0.00000000000E+00 -0.16071742234E+04  0.16071742234E+04  0.00000000000E+00 0. -1.
         23    2    1    2    0    0 -0.51971098056E+03  0.77785569537E+01  0.15953297081E+04  0.16801797619E+04  0.88131410280E+02 0.  0.
         13    1    3    3    0    0 -0.11631400824E+03  0.38756056622E+02  0.37316934665E+03  0.39279300110E+03  0.00000000000E+00 0. -1.
        -13    1    3    3    0    0 -0.40339697232E+03 -0.30977499668E+02  0.12221603615E+04  0.12873867608E+04  0.00000000000E+00 0.  1.
         22    1    1    2    0    0  0.51971098056E+03 -0.77785569537E+01 -0.15215857282E+04  0.16079126647E+04  0.00000000000E+00 0. -1.
<mgrwt>
<rscale>  0 0.32872654E+04</rscale>
<asrwt>0</asrwt>
<pdfrwt beam="1">  1        2 0.24725757E+00 0.32872654E+04</pdfrwt>
<pdfrwt beam="2">  1       -2 0.25860280E+00 0.32872654E+04</pdfrwt>
<totfact> 0.52567754E-01</totfact>
</mgrwt>
</event>
<event>
 6    1  0.1817112E-005  0.2937391E+04  0.7818608E-02  0.8261839E-01
          1   -1    0    0  501    0  0.00000000000E+00  0.00000000000E+00  0.10533612023E+04  0.10533612023E+04  0.00000000000E+00 0. -1.
         -1   -1    0    0    0  501 -0.00000000000E+00 -0.00000000000E+00 -0.20477939401E+04  0.20477939401E+04  0.00000000000E+00 0.  1.
         23    2    1    2    0    0 -0.40171603094E+03  0.14003550319E+04 -0.68357535661E+03  0.16115235449E+04  0.85807242441E+02 0.  0.
         13    1    3    3    0    0 -0.15976230681E+03  0.44857643773E+03 -0.25316766686E+03  0.53929461587E+03  0.00000000000E+00 0.  1.
        -13    1    3    3    0    0 -0.24195372413E+03  0.95177859417E+03 -0.43040768974E+03  0.10722289291E+04  0.00000000000E+00 0. -1.
         22    1    1    2    0    0  0.40171603094E+03 -0.14003550319E+04 -0.31085738116E+03  0.14896315975E+04  0.00000000000E+00 0. -1.
<mgrwt>
<rscale>  0 0.29373911E+04</rscale>
<asrwt>0</asrwt>
<pdfrwt beam="1">  1        1 0.16205557E+00 0.29373911E+04</pdfrwt>
<pdfrwt beam="2">  1       -1 0.31504522E+00 0.29373911E+04</pdfrwt>
<totfact> 0.31030708E-01</totfact>
</mgrwt>
</event>
<event>
 6    1  0.1817112E-005  0.2138178E+04  0.7818608E-02  0.8544610E-01
         -2   -1    0    0    0  501 -0.00000000000E+00  0.00000000000E+00  0.66881054723E+03  0.66881054723E+03  0.00000000000E+00 0.  1.
          2   -1    0    0  501    0  0.00000000000E+00 -0.00000000000E+00 -0.17089305915E+04  0.17089305915E+04  0.00000000000E+00 0. -1.
         23    2    1    2    0    0 -0.43442324425E+03 -0.90764641027E+03 -0.12554684945E+03  0.10179655359E+04  0.89141795737E+02 0.  0.
         13    1    3    3    0    0 -0.10327747351E+03 -0.24578346460E+03 -0.70914680278E+02  0.27587069414E+03  0.00000000000E+00 0. -1.
        -13    1    3    3    0    0 -0.33114577074E+03 -0.66186294567E+03 -0.54632169171E+02  0.74209484181E+03  0.00000000000E+00 0.  1.
         22    1    1    2    0    0  0.43442324425E+03  0.90764641027E+03 -0.91457319479E+03  0.13597756028E+04  0.00000000000E+00 0. -1.
<mgrwt>
<rscale>  0 0.21381775E+04</rscale>
<asrwt>0</asrwt>
<pdfrwt beam="1">  1        2 0.26291240E+00 0.21381775E+04</pdfrwt>
<pdfrwt beam="2">  1       -2 0.10289393E+00 0.21381775E+04</pdfrwt>
<totfact> 0.68736025E+00</totfact>
</mgrwt>
</event>
<event>
 6    1  0.1817112E-005  0.3557244E+04  0.7818608E-02  0.8100356E-01
         -1   -1    0    0    0  501 -0.00000000000E+00  0.00000000000E+00  0.25497566011E+04  0.25497566011E+04  0.00000000000E+00 0.  1.
          1   -1    0    0  501    0  0.00000000000E+00 -0.00000000000E+00 -0.12407054130E+04  0.12407054130E+04  0.00000000000E+00 0. -1.
         23    2    1    2    0    0  0.69171845985E+02  0.14863972706E+04  0.16908736153E+04  0.22542491525E+04  0.91782722346E+02 0.  0.
         13    1    3    3    0    0  0.77034384653E+02  0.10632363106E+04  0.11628133034E+04  0.15775108644E+04  0.00000000000E+00 0. -1.
        -13    1    3    3    0    0 -0.78625386680E+01  0.42316095999E+03  0.52806031186E+03  0.67673828807E+03  0.00000000000E+00 0.  1.
         22    1    1    2    0    0 -0.69171845985E+02 -0.14863972706E+04 -0.38182242720E+03  0.15362128616E+04  0.00000000000E+00 0. -1.
<mgrwt>
<rscale>  0 0.35572443E+04</rscale>
<asrwt>0</asrwt>
<pdfrwt beam="1">  1        1 0.19087776E+00 0.35572443E+04</pdfrwt>
<pdfrwt beam="2">  1       -1 0.39227024E+00 0.35572443E+04</pdfrwt>
<totfact> 0.65403804E-02</totfact>
</mgrwt>
</event>
<event>
 6    1  0.1817112E-005  0.7448596E+03  0.7818608E-02  0.9643449E-01
         -1   -1    0    0    0  501 -0.00000000000E+00  0.00000000000E+00  0.25976034725E+03  0.25976034725E+03  0.00000000000E+00 0.  1.
          1   -1    0    0  501    0  0.00000000000E+00 -0.00000000000E+00 -0.53396897891E+03  0.53396897891E+03  0.00000000000E+00 0. -1.
         23    2    1    2    0    0 -0.28833488823E+03  0.18341165394E+03  0.31859086927E+01  0.35358778802E+03  0.90759744675E+02 0.  0.
         13    1    3    3    0    0 -0.16481226196E+03  0.94640743478E+02  0.46049317063E+02  0.19555176199E+03  0.00000000000E+00 0.  1.
        -13    1    3    3    0    0 -0.12352262627E+03  0.88770910462E+02 -0.42863408371E+02  0.15803602603E+03  0.00000000000E+00 0. -1.
         22    1    1    2    0    0  0.28833488823E+03 -0.18341165394E+03 -0.27739454035E+03  0.44014153813E+03  0.00000000000E+00 0. -1.
<mgrwt>
<rscale>  0 0.74485963E+03</rscale>
<asrwt>0</asrwt>
<pdfrwt beam="1">  1        1 0.82149074E-01 0.74485963E+03</pdfrwt>
<pdfrwt beam="2">  1       -1 0.39963130E-01 0.74485963E+03</pdfrwt>
<totfact> 0.24971190E+02</totfact>
</mgrwt>
</event>
<event>
 6    1  0.1817112E-005  0.3835050E+04  0.7818608E-02  0.8038675E-01
          2   -1    0    0  501    0  0.00000000000E+00  0.00000000000E+00  0.17660529637E+04  0.17660529637E+04  0.00000000000E+00 0. -1.
         -2   -1    0    0    0  501 -0.00000000000E+00 -0.00000000000E+00 -0.20819884001E+04  0.20819884001E+04  0.00000000000E+00 0.  1.
         23    2    1    2    0    0 -0.57460175062E+03  0.49985633577E+03  0.16065590044E+04  0.17801902079E+04  0.89564577645E+02 0.  0.
         11    1    3    3    0    0 -0.44590653164E+03  0.39269493811E+03  0.11612616119E+04  0.13044425938E+04  0.00000000000E+00 0.  1.
        -11    1    3    3    0    0 -0.12869521899E+03  0.10716139766E+03  0.44529739250E+03  0.47574761409E+03  0.00000000000E+00 0. -1.
         22    1    1    2    0    0  0.57460175062E+03 -0.49985633577E+03 -0.19224944408E+04  0.20678511559E+04  0.00000000000E+00 0.  1.
<mgrwt>
<rscale>  0 0.38350498E+04</rscale>
<asrwt>0</asrwt>
<pdfrwt beam="1">  1        2 0.27170046E+00 0.38350498E+04</pdfrwt>
<pdfrwt beam="2">  1       -2 0.32030591E+00 0.38350498E+04</pdfrwt>
<totfact> 0.17174668E-01</totfact>
</mgrwt>
</event>
<event>
 6    1  0.1817112E-005  0.1872159E+04  0.7818608E-02  0.8668840E-01
          2   -1    0    0  501    0  0.00000000000E+00  0.00000000000E+00  0.11714347863E+04  0.11714347863E+04  0.00000000000E+00 0. -1.
         -2   -1    0    0    0  501 -0.00000000000E+00 -0.00000000000E+00 -0.74800973495E+03  0.74800973495E+03  0.00000000000E+00 0.  1.
         23    2    1    2    0    0 -0.71794133012E+03  0.48335721100E+03 -0.14730121738E+03  0.88271773915E+03  0.91755171206E+02 0.  0.
         11    1    3    3    0    0 -0.50983290102E+03  0.38447695151E+03 -0.13008642959E+03  0.65167061647E+03  0.00000000000E+00 0. -1.
        -11    1    3    3    0    0 -0.20810842910E+03  0.98880259490E+02 -0.17214787791E+02  0.23104712268E+03  0.00000000000E+00 0.  1.
         22    1    1    2    0    0  0.71794133012E+03 -0.48335721100E+03  0.57072626876E+03  0.10367267821E+04  0.00000000000E+00 0. -1.
<mgrwt>
<rscale>  0 0.18721588E+04</rscale>
<asrwt>0</asrwt>
<pdfrwt beam="1">  1        2 0.18022074E+00 0.18721588E+04</pdfrwt>
<pdfrwt beam="2">  1       -2 0.11507842E+00 0.18721588E+04</pdfrwt>
<totfact> 0.10889592E+01</totfact>
</mgrwt>
</event>
<event>
 6    1  0.1817112E-005  0.1552889E+04  0.7818608E-02  0.8850024E-01
         -2   -1    0    0    0  501 -0.00000000000E+00  0.00000000000E+00  0.20503365034E+03  0.20503365034E+03  0.00000000000E+00 0.  1.
          2   -1    0    0  501    0  0.00000000000E+00 -0.00000000000E+00 -0.29403276038E+04  0.29403276038E+04  0.00000000000E+00 0. -1.
         23    2    1    2    0    0 -0.24072842990E+03 -0.67034326191E+03 -0.19849631451E+04  0.21108050267E+04  0.90049473166E+02 0.  0.
         11    1    3    3    0    0 -0.40901185013E+02 -0.23907344373E+03 -0.65731061751E+03  0.70063276138E+03  0.00000000000E+00 0. -1.
        -11    1    3    3    0    0 -0.19982724489E+03 -0.43126981818E+03 -0.13276525276E+04  0.14101722653E+04  0.00000000000E+00 0.  1.
         22    1    1    2    0    0  0.24072842990E+03  0.67034326191E+03 -0.75033080838E+03  0.10345562274E+04  0.00000000000E+00 0.  1.
<mgrwt>
<rscale>  0 0.15528891E+04</rscale>
<asrwt>0</asrwt>
<pdfrwt beam="1">  1        2 0.45235807E+00 0.15528891E+04</pdfrwt>
<pdfrwt beam="2">  1       -2 0.31543640E-01 0.15528891E+04</pdfrwt>
<totfact> 0.17140906E+01</totfact>
</mgrwt>
</event>
<event>
 6    1  0.1817112E-005  0.2190655E+04  0.7818608E-02  0.8522328E-01
          2   -1    0    0  501    0  0.00000000000E+00  0.00000000000E+00  0.21220849385E+04  0.21220849385E+04  0.00000000000E+00 0. -1.
         -2   -1    0    0    0  501 -0.00000000000E+00 -0.00000000000E+00 -0.56536022046E+03  0.56536022046E+03  0.00000000000E+00 0.  1.
         23    2    1    2    0    0  0.33454091821E+03  0.96788055177E+03  0.12502189003E+04  0.16184941756E+04  0.88123262230E+02 0.  0.
         13    1    3    3    0    0  0.23017024696E+02  0.75451922994E+02  0.63078220688E+02  0.10100315854E+03  0.00000000000E+00 0. -1.
        -13    1    3    3    0    0  0.31152389351E+03  0.89242862878E+03  0.11871406796E+04  0.15174910171E+04  0.00000000000E+00 0.  1.
         22    1    1    2    0    0 -0.33454091821E+03 -0.96788055177E+03  0.30650581771E+03  0.10689509833E+04  0.00000000000E+00 0. -1.
<mgrwt>
<rscale>  0 0.21906551E+04</rscale>
<asrwt>0</asrwt>
<pdfrwt beam="1">  1        2 0.32647460E+00 0.21906551E+04</pdfrwt>
<pdfrwt beam="2">  1       -2 0.86978497E-01 0.21906551E+04</pdfrwt>
<totfact> 0.59714157E+00</totfact>
</mgrwt>
</event>
<event>
 6    1  0.1817112E-005  0.4686813E+04  0.7818608E-02  0.7878723E-01
          2   -1    0    0  501    0  0.00000000000E+00  0.00000000000E+00  0.26018649177E+04  0.26018649177E+04  0.00000000000E+00 0. -1.
         -2   -1    0    0    0  501 -0.00000000000E+00 -0.00000000000E+00 -0.21106224598E+04  0.21106224598E+04  0.00000000000E+00 0.  1.
         23    2    1    2    0    0  0.21109184065E+04 -0.90195034832E+03  0.71501404726E+03  0.24060692293E+04  0.91831904293E+02 0.  0.
         11    1    3    3    0    0  0.85403586027E+03 -0.32250964256E+03  0.26080925105E+03  0.94942676685E+03  0.00000000000E+00 0. -1.
        -11    1    3    3    0    0  0.12568825462E+04 -0.57944070576E+03  0.45420479620E+03  0.14566424625E+04  0.00000000000E+00 0.  1.
         22    1    1    2    0    0 -0.21109184065E+04  0.90195034832E+03 -0.22377158937E+03  0.23064181481E+04  0.00000000000E+00 0.  1.
<mgrwt>
<rscale>  0 0.46868132E+04</rscale>
<asrwt>0</asrwt>
<pdfrwt beam="1">  1        2 0.40028691E+00 0.46868132E+04</pdfrwt>
<pdfrwt beam="2">  1       -2 0.32471115E+00 0.46868132E+04</pdfrwt>
<totfact> 0.50724176E-02</totfact>
</mgrwt>
</event>
<event>
 6    1  0.1817112E-005  0.2330275E+04  0.7818608E-02  0.8466079E-01
          2   -1    0    0  501    0  0.00000000000E+00  0.00000000000E+00  0.22808572426E+04  0.22808572426E+04  0.00000000000E+00 0. -1.
         -2   -1    0    0    0  501 -0.00000000000E+00 -0.00000000000E+00 -0.59519065042E+03  0.59519065042E+03  0.00000000000E+00 0.  1.
         23    2    1    2    0    0 -0.18283922368E+03  0.23163842051E+03  0.22329305404E+04  0.22542888009E+04  0.93555652581E+02 0.  0.
         13    1    3    3    0    0 -0.18269400896E+03  0.23758197185E+03  0.21059257915E+04  0.21271449724E+04  0.00000000000E+00 0. -1.
        -13    1    3    3    0    0 -0.14521471727E+00 -0.59435513454E+01  0.12700474892E+03  0.12714382855E+03  0.00000000000E+00 0.  1.
         22    1    1    2    0    0  0.18283922368E+03 -0.23163842051E+03 -0.54726394823E+03  0.62175909209E+03  0.00000000000E+00 0.  1.
<mgrwt>
<rscale>  0 0.23302746E+04</rscale>
<asrwt>0</asrwt>
<pdfrwt beam="1">  1        2 0.35090111E+00 0.23302746E+04</pdfrwt>
<pdfrwt beam="2">  1       -2 0.91567794E-01 0.23302746E+04</pdfrwt>
<totfact> 0.42680718E+00</totfact>
</mgrwt>
</event>
<event>
 6    1  0.3691829E-005  0.3168865E+04  0.7818608E-02  0.8197089E-01
         -2   -1    0    0    0  501 -0.00000000000E+00  0.00000000000E+00  0.11919901652E+04  0.11919901652E+04  0.00000000000E+00 0.  1.
          2   -1    0    0  501    0  0.00000000000E+00 -0.00000000000E+00 -0.21060800613E+04  0.21060800613E+04  0.00000000000E+00 0. -1.
         23    2    1    2    0    0 -0.16181737666E+03 -0.68622388087E+03 -0.19326625555E+04  0.20592892368E+04  0.91648946635E+02 0.  0.
         11    1    3    3    0    0 -0.10671576035E+03 -0.33787021837E+03 -0.10771925094E+04  0.11339701232E+04  0.00000000000E+00 0. -1.
        -11    1    3    3    0    0 -0.55101616308E+02 -0.34835366250E+03 -0.85547004606E+03  0.92531911360E+03  0.00000000000E+00 0.  1.
         22    1    1    2    0    0  0.16181737666E+03  0.68622388087E+03  0.10185726594E+04  0.12387809897E+04  0.00000000000E+00 0.  1.
<mgrwt>
<rscale>  0 0.31688652E+04</rscale>
<asrwt>0</asrwt>
<pdfrwt beam="1">  1        2 0.32401232E+00 0.31688652E+04</pdfrwt>
<pdfrwt beam="2">  1       -2 0.18338310E+00 0.31688652E+04</pdfrwt>
<totfact> 0.84593400E-01</totfact>
</mgrwt>
</event>
<event>
 6    1  0.1817112E-005  0.1069280E+04  0.7818608E-02  0.9235662E-01
          1   -1    0    0  501    0  0.00000000000E+00  0.00000000000E+00  0.15016558221E+04  0.15016558221E+04  0.00000000000E+00 0. -1.
         -1   -1    0    0    0  501 -0.00000000000E+00 -0.00000000000E+00 -0.19034994350E+03  0.19034994350E+03  0.00000000000E+00 0.  1.
         23    2    1    2    0    0 -0.44706066468E+02  0.68544011002E+02  0.14902551400E+04  0.14952324139E+04  0.90347525564E+02 0.  0.
         11    1    3    3    0    0 -0.19096423192E+02  0.49012929601E+02  0.13613068198E+04  0.13623227218E+04  0.00000000000E+00 0. -1.
        -11    1    3    3    0    0 -0.25609643276E+02  0.19531081400E+02  0.12894832019E+03  0.13290969208E+03  0.00000000000E+00 0.  1.
         22    1    1    2    0    0  0.44706066468E+02 -0.68544011002E+02 -0.17894926136E+03  0.19677335176E+03  0.00000000000E+00 0.  1.
<mgrwt>
<rscale>  0 0.10692803E+04</rscale>
<asrwt>0</asrwt>
<pdfrwt beam="1">  1        1 0.23102397E+00 0.10692803E+04</pdfrwt>
<pdfrwt beam="2">  1       -1 0.29284608E-01 0.10692803E+04</pdfrwt>
<totfact> 0.69331297E+01</totfact>
</mgrwt>
</event>
<event>
 6    1  0.1817112E-005  0.2327366E+04  0.7818608E-02  0.8467209E-01
          2   -1    0    0  501    0  0.00000000000E+00  0.00000000000E+00  0.41886721645E+04  0.41886721645E+04  0.00000000000E+00 0.  1.
         -2   -1    0    0    0  501 -0.00000000000E+00 -0.00000000000E+00 -0.32329045449E+03  0.32329045449E+03  0.00000000000E+00 0. -1.
         23    2    1    2    0    0  0.62747694011E+03 -0.27085070003E+03  0.11417793216E+03  0.69900875158E+03  0.92136976917E+02 0.  0.
         13    1    3    3    0    0  0.26490942264E+03 -0.15287736936E+03  0.21397931954E+02  0.30660457231E+03  0.00000000000E+00 0. -1.
        -13    1    3    3    0    0  0.36256751747E+03 -0.11797333067E+03  0.92780000209E+02  0.39240417927E+03  0.00000000000E+00 0.  1.
         22    1    1    2    0    0 -0.62747694011E+03  0.27085070003E+03  0.37512037778E+04  0.38129538674E+04  0.00000000000E+00 0.  1.
<mgrwt>
<rscale>  0 0.23273657E+04</rscale>
<asrwt>0</asrwt>
<pdfrwt beam="1">  1        2 0.64441106E+00 0.23273657E+04</pdfrwt>
<pdfrwt beam="2">  1       -2 0.49736996E-01 0.23273657E+04</pdfrwt>
<totfact> 0.82859634E-01</totfact>
</mgrwt>
</event>
<event>
 6    1  0.2350153E-005  0.2478681E+04  0.7818608E-02  0.8410620E-01
         -2   -1    0    0    0  501 -0.00000000000E+00  0.00000000000E+00  0.64025156862E+03  0.64025156862E+03  0.00000000000E+00 0.  1.
          2   -1    0    0  501    0  0.00000000000E+00 -0.00000000000E+00 -0.23990015466E+04  0.23990015466E+04  0.00000000000E+00 0. -1.
         23    2    1    2    0    0 -0.65238189261E+03  0.16247431015E+02  0.40886072622E+03  0.77553884930E+03  0.91800329543E+02 0.  0.
         13    1    3    3    0    0 -0.39285532823E+03  0.22989181059E+02  0.19504715637E+03  0.43921202690E+03  0.00000000000E+00 0. -1.
        -13    1    3    3    0    0 -0.25952656438E+03 -0.67417500441E+01  0.21381356985E+03  0.33632682240E+03  0.00000000000E+00 0.  1.
         22    1    1    2    0    0  0.65238189261E+03 -0.16247431015E+02 -0.21676107042E+04  0.22637142660E+04  0.00000000000E+00 0. -1.
<mgrwt>
<rscale>  0 0.24786807E+04</rscale>
<asrwt>0</asrwt>
<pdfrwt beam="1">  1        2 0.36907716E+00 0.24786807E+04</pdfrwt>
<pdfrwt beam="2">  1       -2 0.98500241E-01 0.24786807E+04</pdfrwt>
<totfact> 0.30441231E+00</totfact>
</mgrwt>
</event>
<event>
 6    1  0.1817112E-005  0.1502876E+04  0.7818608E-02  0.8882543E-01
         -2   -1    0    0    0  501 -0.00000000000E+00  0.00000000000E+00  0.59615099227E+03  0.59615099227E+03  0.00000000000E+00 0.  1.
          2   -1    0    0  501    0  0.00000000000E+00 -0.00000000000E+00 -0.94717414252E+03  0.94717414252E+03  0.00000000000E+00 0. -1.
         23    2    1    2    0    0 -0.27463270236E+03  0.69581455444E+03 -0.14456334917E+03  0.76730537677E+03  0.90983316727E+02 0.  0.
         13    1    3    3    0    0 -0.99425078293E+02  0.34748987274E+03 -0.98982877947E+02  0.37474280243E+03  0.00000000000E+00 0.  1.
        -13    1    3    3    0    0 -0.17520762406E+03  0.34832468171E+03 -0.45580471220E+02  0.39256257434E+03  0.00000000000E+00 0. -1.
         22    1    1    2    0    0  0.27463270236E+03 -0.69581455444E+03 -0.20645980109E+03  0.77601975802E+03  0.00000000000E+00 0.  1.
<mgrwt>
<rscale>  0 0.15028757E+04</rscale>
<asrwt>0</asrwt>
<pdfrwt beam="1">  1        2 0.14571910E+00 0.15028757E+04</pdfrwt>
<pdfrwt beam="2">  1       -2 0.91715537E-01 0.15028757E+04</pdfrwt>
<totfact> 0.26651946E+01</totfact>
</mgrwt>
</event>
<event>
 6    1  0.1817112E-005  0.1108555E+04  0.7818608E-02  0.9196893E-01
          2   -1    0    0  501    0  0.00000000000E+00  0.00000000000E+00  0.22089091656E+04  0.22089091656E+04  0.00000000000E+00 0. -1.
         -2   -1    0    0    0  501 -0.00000000000E+00 -0.00000000000E+00 -0.13908387636E+03  0.13908387636E+03  0.00000000000E+00 0.  1.
         23    2    1    2    0    0  0.41684819890E+03 -0.51942697913E+02  0.28863290431E+03  0.51793654639E+03  0.92134943683E+02 0.  0.
         11    1    3    3    0    0  0.29369486744E+03  0.11622645335E+01  0.17304891558E+03  0.34088700943E+03  0.00000000000E+00 0. -1.
        -11    1    3    3    0    0  0.12315333147E+03 -0.53104962446E+02  0.11558398873E+03  0.17704953696E+03  0.00000000000E+00 0.  1.
         22    1    1    2    0    0 -0.41684819890E+03  0.51942697913E+02  0.17811923849E+04  0.18300564956E+04  0.00000000000E+00 0. -1.
<mgrwt>
<rscale>  0 0.11085552E+04</rscale>
<asrwt>0</asrwt>
<pdfrwt beam="1">  1        2 0.33983215E+00 0.11085552E+04</pdfrwt>
<pdfrwt beam="2">  1       -2 0.21397521E-01 0.11085552E+04</pdfrwt>
<totfact> 0.96511726E+01</totfact>
</mgrwt>
</event>
<event>
 6    1  0.1817112E-005  0.4239520E+04  0.7818608E-02  0.7957897E-01
         -2   -1    0    0    0  501 -0.00000000000E+00  0.00000000000E+00  0.16112187058E+04  0.16112187058E+04  0.00000000000E+00 0.  1.
          2   -1    0    0  501    0  0.00000000000E+00 -0.00000000000E+00 -0.27888098220E+04  0.27888098220E+04  0.00000000000E+00 0. -1.
         23    2    1    2    0    0 -0.80674330070E+03 -0.19591683893E+04 -0.59933066970E+03  0.22037679161E+04  0.90665568570E+02 0.  0.
         11    1    3    3    0    0 -0.50988121003E+03 -0.13439005491E+04 -0.42002547570E+03  0.14974875407E+04  0.00000000000E+00 0. -1.
        -11    1    3    3    0    0 -0.29686209067E+03 -0.61526784020E+03 -0.17930519400E+03  0.70628037539E+03  0.00000000000E+00 0.  1.
         22    1    1    2    0    0  0.80674330070E+03  0.19591683893E+04 -0.57826044654E+03  0.21962606118E+04  0.00000000000E+00 0. -1.
<mgrwt>
<rscale>  0 0.42395200E+04</rscale>
<asrwt>0</asrwt>
<pdfrwt beam="1">  1        2 0.42904766E+00 0.42395200E+04</pdfrwt>
<pdfrwt beam="2">  1       -2 0.24787980E+00 0.42395200E+04</pdfrwt>
<totfact> 0.12033037E-01</totfact>
</mgrwt>
</event>
<event>
 6    1  0.1817112E-005  0.1257666E+04  0.7818608E-02  0.9063827E-01
          2   -1    0    0  501    0  0.00000000000E+00  0.00000000000E+00  0.29398043476E+04  0.29398043476E+04  0.00000000000E+00 0. -1.
         -2   -1    0    0    0  501 -0.00000000000E+00 -0.00000000000E+00 -0.13450917069E+03  0.13450917069E+03  0.00000000000E+00 0.  1.
         23    2    1    2    0    0  0.36830363774E+03  0.39165782450E+03  0.62617525419E+03  0.82985209990E+03  0.86692777538E+02 0.  0.
         13    1    3    3    0    0  0.34588471519E+03  0.34418160259E+03  0.53096422195E+03  0.72112427275E+03  0.00000000000E+00 0. -1.
        -13    1    3    3    0    0  0.22418922555E+02  0.47476221910E+02  0.95211032240E+02  0.10872782714E+03  0.00000000000E+00 0.  1.
         22    1    1    2    0    0 -0.36830363774E+03 -0.39165782450E+03  0.21791199227E+04  0.22444614184E+04  0.00000000000E+00 0. -1.
<mgrwt>
<rscale>  0 0.12576655E+04</rscale>
<asrwt>0</asrwt>
<pdfrwt beam="1">  1        2 0.45227754E+00 0.12576655E+04</pdfrwt>
<pdfrwt beam="2">  1       -2 0.20693721E-01 0.12576655E+04</pdfrwt>
<totfact> 0.37997823E+01</totfact>
</mgrwt>
</event>
<event>
 6    1  0.1817112E-005  0.5681849E+03  0.7818608E-02  0.9973703E-01
          2   -1    0    0  501    0  0.00000000000E+00  0.00000000000E+00  0.41963178167E+03  0.41963178167E+03  0.00000000000E+00 0.  1.
         -2   -1    0    0    0  501 -0.00000000000E+00 -0.00000000000E+00 -0.19233173816E+03  0.19233173816E+03  0.00000000000E+00 0. -1.
         23    2    1    2    0    0  0.10773303245E+03  0.20711902146E+03 -0.42904261247E+02  0.25487100852E+03  0.92810344347E+02 0.  0.
         13    1    3    3    0    0  0.47131217372E+02  0.74744638620E+02  0.28326367187E+02  0.92792756891E+02  0.00000000000E+00 0.  1.
        -13    1    3    3    0    0  0.60601815078E+02  0.13237438284E+03 -0.71230628434E+02  0.16207825163E+03  0.00000000000E+00 0. -1.
         22    1    1    2    0    0 -0.10773303245E+03 -0.20711902146E+03  0.27020430475E+03  0.35709251132E+03  0.00000000000E+00 0.  1.
<mgrwt>
<rscale>  0 0.56818486E+03</rscale>
<asrwt>0</asrwt>
<pdfrwt beam="1">  1        2 0.64558736E-01 0.56818486E+03</pdfrwt>
<pdfrwt beam="2">  1       -2 0.29589498E-01 0.56818486E+03</pdfrwt>
<totfact> 0.79582988E+02</totfact>
</mgrwt>
</event>
<event>
 6    1  0.1817112E-005  0.2285209E+04  0.7818608E-02  0.8483776E-01
         -2   -1    0    0    0  501 -0.00000000000E+00  0.00000000000E+00  0.47065131134E+03  0.47065131134E+03  0.00000000000E+00 0.  1.
          2   -1    0    0  501    0  0.00000000000E+00 -0.00000000000E+00 -0.27739117836E+04  0.27739117836E+04  0.00000000000E+00 0. -1.
         23    2    1    2    0    0  0.77533553337E+03  0.12612744856E+03 -0.23276262779E+04  0.24586578747E+04  0.10050439291E+03 0.  0.
         11    1    3    3    0    0  0.60681497221E+03  0.83564832805E+02 -0.16827835425E+04  0.17908009221E+04  0.00000000000E+00 0. -1.
        -11    1    3    3    0    0  0.16852056117E+03  0.42562615756E+02 -0.64484273536E+03  0.66785695260E+03  0.00000000000E+00 0.  1.
         22    1    1    2    0    0 -0.77533553337E+03 -0.12612744856E+03  0.24365805653E+02  0.78590522016E+03  0.00000000000E+00 0.  1.
<mgrwt>
<rscale>  0 0.22852092E+04</rscale>
<asrwt>0</asrwt>
<pdfrwt beam="1">  1        2 0.42675567E+00 0.22852092E+04</pdfrwt>
<pdfrwt beam="2">  1       -2 0.72407892E-01 0.22852092E+04</pdfrwt>
<totfact> 0.37580093E+00</totfact>
</mgrwt>
</event>
<event>
 6    1  0.1817112E-005  0.2535925E+04  0.7818608E-02  0.8390298E-01
         -1   -1    0    0    0  501 -0.00000000000E+00  0.00000000000E+00  0.27463071807E+04  0.27463071807E+04  0.00000000000E+00 0.  1.
          1   -1    0    0  501    0  0.00000000000E+00 -0.00000000000E+00 -0.58541489136E+03  0.58541489136E+03  0.00000000000E+00 0. -1.
         23    2    1    2    0    0  0.59211200021E+03  0.70727552993E+03  0.22216612580E+04  0.24073151467E+04  0.92477966757E+02 0.  0.
         13    1    3    3    0    0  0.11544230651E+03  0.87532757948E+02  0.37014572605E+03  0.39748807323E+03  0.00000000000E+00 0. -1.
        -13    1    3    3    0    0  0.47666969370E+03  0.61974277198E+03  0.18515155319E+04  0.20098270735E+04  0.00000000000E+00 0.  1.
         22    1    1    2    0    0 -0.59211200021E+03 -0.70727552993E+03 -0.60768968671E+02  0.92440692532E+03  0.00000000000E+00 0. -1.
<mgrwt>
<rscale>  0 0.25359252E+04</rscale>
<asrwt>0</asrwt>
<pdfrwt beam="1">  1        1 0.90063831E-01 0.25359252E+04</pdfrwt>
<pdfrwt beam="2">  1       -1 0.42250879E+00 0.25359252E+04</pdfrwt>
<totfact> 0.15741428E-01</totfact>
</mgrwt>
</event>
<event>
 6    1  0.1817112E-005  0.5077537E+04  0.7818608E-02  0.7816656E-01
          2   -1    0    0  501    0  0.00000000000E+00  0.00000000000E+00  0.23099265228E+04  0.23099265228E+04  0.00000000000E+00 0. -1.
         -2   -1    0    0    0  501 -0.00000000000E+00 -0.00000000000E+00 -0.27902818488E+04  0.27902818488E+04  0.00000000000E+00 0.  1.
         23    2    1    2    0    0  0.17152741813E+04 -0.35255706906E+03  0.16049699362E+04  0.23771506320E+04  0.91949047700E+02 0.  0.
         11    1    3    3    0    0  0.14484441795E+04 -0.31706547051E+03  0.13204366379E+04  0.19854656805E+04  0.00000000000E+00 0. -1.
        -11    1    3    3    0    0  0.26683000176E+03 -0.35491598550E+02  0.28453329838E+03  0.39168495158E+03  0.00000000000E+00 0.  1.
         22    1    1    2    0    0 -0.17152741813E+04  0.35255706906E+03 -0.20853252622E+04  0.27230577396E+04  0.00000000000E+00 0.  1.
<mgrwt>
<rscale>  0 0.50775372E+04</rscale>
<asrwt>0</asrwt>
<pdfrwt beam="1">  1        2 0.35537331E+00 0.50775372E+04</pdfrwt>
<pdfrwt beam="2">  1       -2 0.42927413E+00 0.50775372E+04</pdfrwt>
<totfact> 0.15443881E-02</totfact>
</mgrwt>
</event>
<event>
 6    1  0.1817112E-005  0.1516889E+04  0.7818608E-02  0.8873299E-01
          1   -1    0    0  501    0  0.00000000000E+00  0.00000000000E+00  0.18457300886E+04  0.18457300886E+04  0.00000000000E+00 0.  1.
         -1   -1    0    0    0  501 -0.00000000000E+00 -0.00000000000E+00 -0.31165897070E+03  0.31165897070E+03  0.00000000000E+00 0. -1.
         23    2    1    2    0    0 -0.51733039983E+03 -0.54638266071E+03  0.67098931703E+03  0.10123672475E+04  0.92173888485E+02 0.  0.
         11    1    3    3    0    0 -0.48358531920E+02 -0.90865565960E+02  0.71398399442E+02  0.12527102670E+03  0.00000000000E+00 0.  1.
        -11    1    3    3    0    0 -0.46897186791E+03 -0.45551709475E+03  0.59959091759E+03  0.88709622080E+03  0.00000000000E+00 0. -1.
         22    1    1    2    0    0  0.51733039983E+03  0.54638266071E+03  0.86308180087E+03  0.11450218118E+04  0.00000000000E+00 0.  1.
<mgrwt>
<rscale>  0 0.15168894E+04</rscale>
<asrwt>0</asrwt>
<pdfrwt beam="1">  1        1 0.28395847E+00 0.15168894E+04</pdfrwt>
<pdfrwt beam="2">  1       -1 0.47947535E-01 0.15168894E+04</pdfrwt>
<totfact> 0.15928772E+01</totfact>
</mgrwt>
</event>
<event>
 6    1  0.1817112E-005  0.4597195E+04  0.7818608E-02  0.7893838E-01
         -2   -1    0    0    0  501 -0.00000000000E+00  0.00000000000E+00  0.28799000915E+04  0.28799000915E+04  0.00000000000E+00 0.  1.
          2   -1    0    0  501    0  0.00000000000E+00 -0.00000000000E+00 -0.18346300950E+04  0.18346300950E+04  0.00000000000E+00 0. -1.
         23    2    1    2    0    0  0.60233187505E+03  0.20582737962E+04 -0.32246397082E+03  0.21709125043E+04  0.97894743846E+02 0.  0.
         11    1    3    3    0    0  0.76226645451E+02  0.18329514403E+03 -0.48424978591E+02  0.20433450480E+03  0.00000000000E+00 0.  1.
        -11    1    3    3    0    0  0.52610522960E+03  0.18749786522E+04 -0.27403899223E+03  0.19665779995E+04  0.00000000000E+00 0. -1.
         22    1    1    2    0    0 -0.60233187505E+03 -0.20582737962E+04  0.13677339673E+04  0.25436176822E+04  0.00000000000E+00 0.  1.
<mgrwt>
<rscale>  0 0.45971954E+04</rscale>
<asrwt>0</asrwt>
<pdfrwt beam="1">  1        2 0.28225078E+00 0.45971954E+04</pdfrwt>
<pdfrwt beam="2">  1       -2 0.44306155E+00 0.45971954E+04</pdfrwt>
<totfact> 0.23974039E-02</totfact>
</mgrwt>
</event>
<event>
 6    1  0.1817112E-005  0.8640357E+03  0.7818608E-02  0.9471690E-01
          2   -1    0    0  501    0  0.00000000000E+00  0.00000000000E+00  0.14947456732E+04  0.14947456732E+04  0.00000000000E+00 0.  1.
         -2   -1    0    0    0  501 -0.00000000000E+00 -0.00000000000E+00 -0.12486365201E+03  0.12486365201E+03  0.00000000000E+00 0. -1.
         23    2    1    2    0    0 -0.24838278364E+03 -0.32726016979E+02  0.13408882825E+04  0.13674077466E+04  0.95171213300E+02 0.  0.
         11    1    3    3    0    0 -0.17181138367E+03  0.15043439197E+02  0.74356224328E+03  0.76330221162E+03  0.00000000000E+00 0. -1.
        -11    1    3    3    0    0 -0.76571399965E+02 -0.47769456176E+02  0.59732603923E+03  0.60410553496E+03  0.00000000000E+00 0.  1.
         22    1    1    2    0    0  0.24838278364E+03  0.32726016979E+02  0.28993738702E+02  0.25220157866E+03  0.00000000000E+00 0. -1.
<mgrwt>
<rscale>  0 0.86403566E+03</rscale>
<asrwt>0</asrwt>
<pdfrwt beam="1">  1        2 0.22996086E+00 0.86403566E+03</pdfrwt>
<pdfrwt beam="2">  1       -2 0.19209794E-01 0.86403566E+03</pdfrwt>
<totfact> 0.29448338E+02</totfact>
</mgrwt>
</event>
<event>
 6    1  0.1817112E-005  0.1958778E+04  0.7818608E-02  0.8626140E-01
         -2   -1    0    0    0  501 -0.00000000000E+00  0.00000000000E+00  0.20825982881E+04  0.20825982881E+04  0.00000000000E+00 0. -1.
          2   -1    0    0  501    0  0.00000000000E+00 -0.00000000000E+00 -0.46057979573E+03  0.46057979573E+03  0.00000000000E+00 0.  1.
         23    2    1    2    0    0  0.52009656461E+03  0.72543054697E+03  0.13289208181E+04  0.16036802596E+04  0.94920595012E+02 0.  0.
         13    1    3    3    0    0  0.16396670491E+03  0.22372329614E+03  0.33736551379E+03  0.43675242810E+03  0.00000000000E+00 0. -1.
        -13    1    3    3    0    0  0.35612985970E+03  0.50170725083E+03  0.99155530428E+03  0.11669278315E+04  0.00000000000E+00 0.  1.
         22    1    1    2    0    0 -0.52009656461E+03 -0.72543054697E+03  0.29309767427E+03  0.93949782419E+03  0.00000000000E+00 0.  1.
<mgrwt>
<rscale>  0 0.19587779E+04</rscale>
<asrwt>0</asrwt>
<pdfrwt beam="1">  1        2 0.70858431E-01 0.19587779E+04</pdfrwt>
<pdfrwt beam="2">  1       -2 0.32039973E+00 0.19587779E+04</pdfrwt>
<totfact> 0.15055534E+00</totfact>
</mgrwt>
</event>
<event>
 6    1  0.1817112E-005  0.1809479E+04  0.7818608E-02  0.8701275E-01
         -2   -1    0    0    0  501 -0.00000000000E+00  0.00000000000E+00  0.11436631873E+04  0.11436631873E+04  0.00000000000E+00 0.  1.
          2   -1    0    0  501    0  0.00000000000E+00 -0.00000000000E+00 -0.71572943868E+03  0.71572943868E+03  0.00000000000E+00 0. -1.
         23    2    1    2    0    0  0.64194616914E+03 -0.52074753433E+03  0.58665487064E+03  0.10176888342E+04  0.90850137355E+02 0.  0.
         13    1    3    3    0    0  0.25211374629E+03 -0.26252764286E+03  0.25813933232E+03  0.44622642147E+03  0.00000000000E+00 0.  1.
        -13    1    3    3    0    0  0.38983242285E+03 -0.25821989148E+03  0.32851553832E+03  0.57146241274E+03  0.00000000000E+00 0. -1.
         22    1    1    2    0    0 -0.64194616914E+03  0.52074753433E+03 -0.15872112198E+03  0.84170379181E+03  0.00000000000E+00 0. -1.
<mgrwt>
<rscale>  0 0.18094788E+04</rscale>
<asrwt>0</asrwt>
<pdfrwt beam="1">  1        2 0.11011222E+00 0.18094788E+04</pdfrwt>
<pdfrwt beam="2">  1       -2 0.17594818E+00 0.18094788E+04</pdfrwt>
<totfact> 0.72652749E+00</totfact>
</mgrwt>
</event>
<event>
 6    1  0.1817112E-005  0.5784312E+03  0.7818608E-02  0.9951193E-01
          2   -1    0    0  501    0  0.00000000000E+00  0.00000000000E+00  0.21632777454E+03  0.21632777454E+03  0.00000000000E+00 0. -1.
         -2   -1    0    0    0  501 -0.00000000000E+00 -0.00000000000E+00 -0.38666171071E+03  0.38666171071E+03  0.00000000000E+00 0.  1.
         23    2    1    2    0    0  0.17134452494E+03 -0.12371525067E+03  0.10764638833E+03  0.25379402381E+03  0.90328578669E+02 0.  0.
         13    1    3    3    0    0  0.63602989638E+01  0.36656049738E+01  0.30768597390E+02  0.31632209029E+02  0.00000000000E+00 0. -1.
        -13    1    3    3    0    0  0.16498422598E+03 -0.12738085564E+03  0.76877790943E+02  0.22216181478E+03  0.00000000000E+00 0.  1.
         22    1    1    2    0    0 -0.17134452494E+03  0.12371525067E+03 -0.27798032450E+03  0.34919546143E+03  0.00000000000E+00 0.  1.
<mgrwt>
<rscale>  0 0.57843121E+03</rscale>
<asrwt>0</asrwt>
<pdfrwt beam="1">  1        2 0.33281197E-01 0.57843121E+03</pdfrwt>
<pdfrwt beam="2">  1       -2 0.59486416E-01 0.57843121E+03</pdfrwt>
<totfact> 0.42140878E+02</totfact>
</mgrwt>
</event>
<event>
 6    1  0.1817112E-005  0.2677505E+04  0.7818608E-02  0.8342341E-01
         -2   -1    0    0    0  501 -0.00000000000E+00  0.00000000000E+00  0.13361756109E+04  0.13361756109E+04  0.00000000000E+00 0.  1.
          2   -1    0    0  501    0  0.00000000000E+00 -0.00000000000E+00 -0.13413342626E+04  0.13413342626E+04  0.00000000000E+00 0. -1.
         23    2    1    2    0    0  0.85779714698E+03  0.38066481431E+03 -0.95538780561E+03  0.13419736174E+04  0.86056286879E+02 0.  0.
         11    1    3    3    0    0  0.50803345330E+03  0.18290767965E+03 -0.52304189641E+03  0.75174865104E+03  0.00000000000E+00 0. -1.
        -11    1    3    3    0    0  0.34976369368E+03  0.19775713467E+03 -0.43234590920E+03  0.59022496637E+03  0.00000000000E+00 0.  1.
         22    1    1    2    0    0 -0.85779714698E+03 -0.38066481431E+03  0.95022915395E+03  0.13355362561E+04  0.00000000000E+00 0.  1.
<mgrwt>
<rscale>  0 0.26775049E+04</rscale>
<asrwt>0</asrwt>
<pdfrwt beam="1">  1        2 0.20635912E+00 0.26775049E+04</pdfrwt>
<pdfrwt beam="2">  1       -2 0.20556548E+00 0.26775049E+04</pdfrwt>
<totfact> 0.16817012E+00</totfact>
</mgrwt>
</event>
<event>
 6    1  0.2138386E-005  0.3898453E+04  0.7818608E-02  0.8025351E-01
          2   -1    0    0  501    0  0.00000000000E+00  0.00000000000E+00  0.18754801649E+04  0.18754801649E+04  0.00000000000E+00 0. -1.
         -2   -1    0    0    0  501 -0.00000000000E+00 -0.00000000000E+00 -0.20258730293E+04  0.20258730293E+04  0.00000000000E+00 0.  1.
         23    2    1    2    0    0 -0.34344739973E+03 -0.18389430175E+04  0.46886148193E+03  0.19307838644E+04  0.91802525200E+02 0.  0.
         11    1    3    3    0    0 -0.16695728082E+03 -0.11332618200E+04  0.27804467508E+03  0.11787560934E+04  0.00000000000E+00 0. -1.
        -11    1    3    3    0    0 -0.17649011892E+03 -0.70568119753E+03  0.19081680685E+03  0.75202777102E+03  0.00000000000E+00 0.  1.
         22    1    1    2    0    0  0.34344739973E+03  0.18389430175E+04 -0.61925434637E+03  0.19705693298E+04  0.00000000000E+00 0. -1.
<mgrwt>
<rscale>  0 0.38984534E+04</rscale>
<asrwt>0</asrwt>
<pdfrwt beam="1">  1        2 0.28853541E+00 0.38984534E+04</pdfrwt>
<pdfrwt beam="2">  1       -2 0.31167277E+00 0.38984534E+04</pdfrwt>
<totfact> 0.16793689E-01</totfact>
</mgrwt>
</event>
<event>
 6    1  0.1817112E-005  0.1187075E+04  0.7818608E-02  0.9124245E-01
          1   -1    0    0  501    0  0.00000000000E+00  0.00000000000E+00  0.16340328059E+04  0.16340328059E+04  0.00000000000E+00 0. -1.
         -1   -1    0    0    0  501 -0.00000000000E+00 -0.00000000000E+00 -0.21559348703E+03  0.21559348703E+03  0.00000000000E+00 0.  1.
         23    2    1    2    0    0  0.26510755307E+03 -0.51906143856E+03  0.85701985115E+03  0.10403682312E+04  0.90422561444E+02 0.  0.
         11    1    3    3    0    0  0.13632829594E+03 -0.17099526384E+03  0.31652651038E+03  0.38472563770E+03  0.00000000000E+00 0. -1.
        -11    1    3    3    0    0  0.12877925713E+03 -0.34806617472E+03  0.54049334077E+03  0.65564259354E+03  0.00000000000E+00 0.  1.
         22    1    1    2    0    0 -0.26510755307E+03  0.51906143856E+03  0.56141946776E+03  0.80925806173E+03  0.00000000000E+00 0. -1.
<mgrwt>
<rscale>  0 0.11870751E+04</rscale>
<asrwt>0</asrwt>
<pdfrwt beam="1">  1        1 0.25138965E+00 0.11870751E+04</pdfrwt>
<pdfrwt beam="2">  1       -1 0.33168230E-01 0.11870751E+04</pdfrwt>
<totfact> 0.44756004E+01</totfact>
</mgrwt>
</event>
<event>
 6    1  0.1817112E-005  0.2198702E+04  0.7818608E-02  0.8518969E-01
         -2   -1    0    0    0  501 -0.00000000000E+00  0.00000000000E+00  0.28292974210E+04  0.28292974210E+04  0.00000000000E+00 0.  1.
          2   -1    0    0  501    0  0.00000000000E+00 -0.00000000000E+00 -0.42716332481E+03  0.42716332481E+03  0.00000000000E+00 0. -1.
         23    2    1    2    0    0 -0.45269915676E+03  0.94874433255E+03  0.73695148640E+03  0.12872260064E+04  0.93813448418E+02 0.  0.
         11    1    3    3    0    0 -0.25835630746E+03  0.43821780191E+03  0.33723367543E+03  0.61033546133E+03  0.00000000000E+00 0. -1.
        -11    1    3    3    0    0 -0.19434284930E+03  0.51052653064E+03  0.39971781097E+03  0.67689054504E+03  0.00000000000E+00 0.  1.
         22    1    1    2    0    0  0.45269915676E+03 -0.94874433255E+03  0.16651826098E+04  0.19692347394E+04  0.00000000000E+00 0.  1.
<mgrwt>
<rscale>  0 0.21987015E+04</rscale>
<asrwt>0</asrwt>
<pdfrwt beam="1">  1        2 0.65717437E-01 0.21987015E+04</pdfrwt>
<pdfrwt beam="2">  1       -2 0.43527651E+00 0.21987015E+04</pdfrwt>
<totfact> 0.29337930E-01</totfact>
</mgrwt>
</event>
<event>
 6    1  0.1817112E-005  0.1622910E+04  0.7818608E-02  0.8806596E-01
         -1   -1    0    0    0  501 -0.00000000000E+00  0.00000000000E+00  0.37595181319E+03  0.37595181319E+03  0.00000000000E+00 0. -1.
          1   -1    0    0  501    0  0.00000000000E+00 -0.00000000000E+00 -0.17514464435E+04  0.17514464435E+04  0.00000000000E+00 0.  1.
         23    2    1    2    0    0 -0.39023551464E+03  0.64663628437E+03 -0.10694273947E+04  0.13124753193E+04  0.92164364483E+02 0.  0.
         11    1    3    3    0    0 -0.31664728441E+03  0.57907439705E+03 -0.95027400228E+03  0.11569845891E+04  0.00000000000E+00 0. -1.
        -11    1    3    3    0    0 -0.73588230229E+02  0.67561887313E+02 -0.11915339239E+03  0.15549073015E+03  0.00000000000E+00 0.  1.
         22    1    1    2    0    0  0.39023551464E+03 -0.64663628437E+03 -0.30606723560E+03  0.81492293737E+03  0.00000000000E+00 0. -1.
<mgrwt>
<rscale>  0 0.16229103E+04</rscale>
<asrwt>0</asrwt>
<pdfrwt beam="1">  1        1 0.26945330E+00 0.16229103E+04</pdfrwt>
<pdfrwt beam="2">  1       -1 0.57838741E-01 0.16229103E+04</pdfrwt>
<totfact> 0.12749816E+01</totfact>
</mgrwt>
</event>
<event>
 6    1  0.1817112E-005  0.1262865E+04  0.7818608E-02  0.9059543E-01
          2   -1    0    0  501    0  0.00000000000E+00  0.00000000000E+00  0.23836364968E+04  0.23836364968E+04  0.00000000000E+00 0. -1.
         -2   -1    0    0    0  501 -0.00000000000E+00 -0.00000000000E+00 -0.16726838546E+03  0.16726838546E+03  0.00000000000E+00 0.  1.
         23    2    1    2    0    0  0.59980627663E+03  0.63112192246E+02  0.75953084598E+03  0.97415964729E+03  0.91373924745E+02 0.  0.
         11    1    3    3    0    0  0.53512568232E+03  0.80556820680E+02  0.65020044515E+03  0.84593706392E+03  0.00000000000E+00 0.  1.
        -11    1    3    3    0    0  0.64680594305E+02 -0.17444628434E+02  0.10933040083E+03  0.12822258337E+03  0.00000000000E+00 0. -1.
         22    1    1    2    0    0 -0.59980627663E+03 -0.63112192246E+02  0.14568372654E+04  0.15767452350E+04  0.00000000000E+00 0. -1.
<mgrwt>
<rscale>  0 0.12628650E+04</rscale>
<asrwt>0</asrwt>
<pdfrwt beam="1">  1        2 0.36671328E+00 0.12628650E+04</pdfrwt>
<pdfrwt beam="2">  1       -2 0.25733599E-01 0.12628650E+04</pdfrwt>
<totfact> 0.54550002E+01</totfact>
</mgrwt>
</event>
<event>
 6    1  0.1817112E-005  0.3012834E+04  0.7818608E-02  0.8240076E-01
         -1   -1    0    0    0  501 -0.00000000000E+00  0.00000000000E+00  0.18677487541E+04  0.18677487541E+04  0.00000000000E+00 0.  1.
          1   -1    0    0  501    0  0.00000000000E+00 -0.00000000000E+00 -0.12149877889E+04  0.12149877889E+04  0.00000000000E+00 0. -1.
         23    2    1    2    0    0 -0.28859511776E+02 -0.75681869827E+03  0.16574036315E+04  0.18245973215E+04  0.92526615101E+02 0.  0.
         13    1    3    3    0    0 -0.57011192184E+02 -0.64256335806E+03  0.13848273145E+04  0.15277056772E+04  0.00000000000E+00 0.  1.
        -13    1    3    3    0    0  0.28151680409E+02 -0.11425534021E+03  0.27257631708E+03  0.29689164439E+03  0.00000000000E+00 0. -1.
         22    1    1    2    0    0  0.28859511776E+02  0.75681869827E+03 -0.10046426664E+04  0.12581392215E+04  0.00000000000E+00 0. -1.
<mgrwt>
<rscale>  0 0.30128338E+04</rscale>
<asrwt>0</asrwt>
<pdfrwt beam="1">  1        1 0.18692120E+00 0.30128338E+04</pdfrwt>
<pdfrwt beam="2">  1       -1 0.28734596E+00 0.30128338E+04</pdfrwt>
<totfact> 0.35329893E-01</totfact>
</mgrwt>
</event>
<event>
 6    1  0.1817112E-005  0.2259970E+04  0.7818608E-02  0.8493874E-01
         -2   -1    0    0    0  501 -0.00000000000E+00  0.00000000000E+00  0.39343425119E+03  0.39343425119E+03  0.00000000000E+00 0.  1.
          2   -1    0    0  501    0  0.00000000000E+00 -0.00000000000E+00 -0.32454381131E+04  0.32454381131E+04  0.00000000000E+00 0. -1.
         23    2    1    2    0    0 -0.99198747484E+03 -0.59444596457E+02 -0.56857480729E+03  0.11485669497E+04  0.91410700873E+02 0.  0.
         13    1    3    3    0    0 -0.64260108650E+03 -0.70790992908E+02 -0.33486454208E+03  0.72806715528E+03  0.00000000000E+00 0.  1.
        -13    1    3    3    0    0 -0.34938638834E+03  0.11346396451E+02 -0.23371026521E+03  0.42049979445E+03  0.00000000000E+00 0. -1.
         22    1    1    2    0    0  0.99198747484E+03  0.59444596457E+02 -0.22834290547E+04  0.24903054146E+04  0.00000000000E+00 0. -1.
<mgrwt>
<rscale>  0 0.22599704E+04</rscale>
<asrwt>0</asrwt>
<pdfrwt beam="1">  1        2 0.49929816E+00 0.22599704E+04</pdfrwt>
<pdfrwt beam="2">  1       -2 0.60528347E-01 0.22599704E+04</pdfrwt>
<totfact> 0.28047052E+00</totfact>
</mgrwt>
</event>
<event>
 6    1  0.1817112E-005  0.1470214E+04  0.7818608E-02  0.8904505E-01
         -2   -1    0    0    0  501 -0.00000000000E+00  0.00000000000E+00  0.33614845896E+03  0.33614845896E+03  0.00000000000E+00 0. -1.
          2   -1    0    0  501    0  0.00000000000E+00 -0.00000000000E+00 -0.16075713192E+04  0.16075713192E+04  0.00000000000E+00 0.  1.
         23    2    1    2    0    0  0.55997523356E+03 -0.40895644471E+03 -0.32651294944E+03  0.77168207595E+03  0.89804700949E+02 0.  0.
         11    1    3    3    0    0  0.24399971281E+03 -0.15745730460E+03 -0.91683650504E+02  0.30452348743E+03  0.00000000000E+00 0. -1.
        -11    1    3    3    0    0  0.31597552075E+03 -0.25149914011E+03 -0.23482929894E+03  0.46715858852E+03  0.00000000000E+00 0.  1.
         22    1    1    2    0    0 -0.55997523356E+03  0.40895644471E+03 -0.94490991075E+03  0.11720377022E+04  0.00000000000E+00 0.  1.
<mgrwt>
<rscale>  0 0.14702144E+04</rscale>
<asrwt>0</asrwt>
<pdfrwt beam="1">  1        2 0.24731866E+00 0.14702144E+04</pdfrwt>
<pdfrwt beam="2">  1       -2 0.51715148E-01 0.14702144E+04</pdfrwt>
<totfact> 0.37758565E+01</totfact>
</mgrwt>
</event>
<event>
 6    1  0.1817112E-005  0.2265960E+04  0.7818608E-02  0.8491465E-01
         -2   -1    0    0    0  501 -0.00000000000E+00  0.00000000000E+00  0.71301975340E+03  0.71301975340E+03  0.00000000000E+00 0.  1.
          2   -1    0    0  501    0  0.00000000000E+00 -0.00000000000E+00 -0.18002916596E+04  0.18002916596E+04  0.00000000000E+00 0. -1.
         23    2    1    2    0    0 -0.13574064926E+03 -0.22371734135E+03 -0.17650740605E+04  0.17867505187E+04  0.92282198780E+02 0.  0.
         13    1    3    3    0    0 -0.70657720657E+02 -0.16009639138E+03 -0.89639755141E+03  0.91331918747E+03  0.00000000000E+00 0.  1.
        -13    1    3    3    0    0 -0.65082928607E+02 -0.63620949969E+02 -0.86867650910E+03  0.87343133120E+03  0.00000000000E+00 0. -1.
         22    1    1    2    0    0  0.13574064926E+03  0.22371734135E+03  0.67780215434E+03  0.72656089429E+03  0.00000000000E+00 0.  1.
<mgrwt>
<rscale>  0 0.22659599E+04</rscale>
<asrwt>0</asrwt>
<pdfrwt beam="1">  1        2 0.27696794E+00 0.22659599E+04</pdfrwt>
<pdfrwt beam="2">  1       -2 0.10969535E+00 0.22659599E+04</pdfrwt>
<totfact> 0.51871587E+00</totfact>
</mgrwt>
</event>
<event>
 6    1  0.1817112E-005  0.1172326E+04  0.7818608E-02  0.9137430E-01
          2   -1    0    0  501    0  0.00000000000E+00  0.00000000000E+00  0.17414916501E+04  0.17414916501E+04  0.00000000000E+00 0. -1.
         -2   -1    0    0    0  501 -0.00000000000E+00 -0.00000000000E+00 -0.19729480139E+03  0.19729480139E+03  0.00000000000E+00 0.  1.
         23    2    1    2    0    0 -0.14440038161E+03 -0.33557856298E+03  0.15273383469E+04  0.15730698246E+04  0.91223927074E+02 0.  0.
         13    1    3    3    0    0 -0.10068358236E+03 -0.29457337439E+03  0.13642159278E+04  0.13992840149E+04  0.00000000000E+00 0. -1.
        -13    1    3    3    0    0 -0.43716799248E+02 -0.41005188590E+02  0.16312241905E+03  0.17378580962E+03  0.00000000000E+00 0.  1.
         22    1    1    2    0    0  0.14440038161E+03  0.33557856298E+03  0.16858501816E+02  0.36571662695E+03  0.00000000000E+00 0.  1.
<mgrwt>
<rscale>  0 0.11723263E+04</rscale>
<asrwt>0</asrwt>
<pdfrwt beam="1">  1        2 0.26792178E+00 0.11723263E+04</pdfrwt>
<pdfrwt beam="2">  1       -2 0.30353048E-01 0.11723263E+04</pdfrwt>
<totfact> 0.92224992E+01</totfact>
</mgrwt>
</event>
<event>
 6    1  0.1817112E-005  0.2074209E+04  0.7818608E-02  0.8572690E-01
          2   -1    0    0  501    0  0.00000000000E+00  0.00000000000E+00  0.42958057656E+03  0.42958057656E+03  0.00000000000E+00 0. -1.
         -2   -1    0    0    0  501 -0.00000000000E+00 -0.00000000000E+00 -0.25038051979E+04  0.25038051979E+04  0.00000000000E+00 0.  1.
         23    2    1    2    0    0  0.47357696327E+03 -0.17462413365E+03 -0.23171233629E+04  0.23732353243E+04  0.91741472682E+02 0.  0.
         11    1    3    3    0    0  0.22728339982E+03 -0.67490137438E+02 -0.12880627937E+04  0.13097016542E+04  0.00000000000E+00 0. -1.
        -11    1    3    3    0    0  0.24629356345E+03 -0.10713399621E+03 -0.10290605691E+04  0.10635336701E+04  0.00000000000E+00 0.  1.
         22    1    1    2    0    0 -0.47357696327E+03  0.17462413365E+03  0.24289874148E+03  0.56015045015E+03  0.00000000000E+00 0. -1.
<mgrwt>
<rscale>  0 0.20742093E+04</rscale>
<asrwt>0</asrwt>
<pdfrwt beam="1">  1        2 0.66089319E-01 0.20742093E+04</pdfrwt>
<pdfrwt beam="2">  1       -2 0.38520081E+00 0.20742093E+04</pdfrwt>
<totfact> 0.62906881E-01</totfact>
</mgrwt>
</event>
<event>
 6    1  0.1817112E-005  0.1098701E+04  0.7818608E-02  0.9206458E-01
          2   -1    0    0  501    0  0.00000000000E+00  0.00000000000E+00  0.12494391499E+04  0.12494391499E+04  0.00000000000E+00 0. -1.
         -2   -1    0    0    0  501 -0.00000000000E+00 -0.00000000000E+00 -0.24153733118E+03  0.24153733118E+03  0.00000000000E+00 0.  1.
         23    2    1    2    0    0 -0.20856583412E+03  0.47681600655E+03  0.28425156409E+03  0.59961633935E+03  0.88812113308E+02 0.  0.
         13    1    3    3    0    0 -0.14198653876E+03  0.21460450032E+03  0.13263331275E+03  0.28949415261E+03  0.00000000000E+00 0. -1.
        -13    1    3    3    0    0 -0.66579295359E+02  0.26221150623E+03  0.15161825134E+03  0.31012218674E+03  0.00000000000E+00 0.  1.
         22    1    1    2    0    0  0.20856583412E+03 -0.47681600655E+03  0.72365025466E+03  0.89136014177E+03  0.00000000000E+00 0. -1.
<mgrwt>
<rscale>  0 0.10987014E+04</rscale>
<asrwt>0</asrwt>
<pdfrwt beam="1">  1        2 0.19222140E+00 0.10987014E+04</pdfrwt>
<pdfrwt beam="2">  1       -2 0.37159590E-01 0.10987014E+04</pdfrwt>
<totfact> 0.11987650E+02</totfact>
</mgrwt>
</event>
<event>
 6    1  0.1817112E-005  0.3426645E+04  0.7818608E-02  0.8131397E-01
          2   -1    0    0  501    0  0.00000000000E+00  0.00000000000E+00  0.33063939393E+04  0.33063939393E+04  0.00000000000E+00 0. -1.
         -2   -1    0    0    0  501 -0.00000000000E+00 -0.00000000000E+00 -0.88781759805E+03  0.88781759805E+03  0.00000000000E+00 0.  1.
         23    2    1    2    0    0  0.14375540442E+04 -0.37161898769E+03  0.16674178680E+03  0.14969126732E+04  0.91007834188E+02 0.  0.
         13    1    3    3    0    0  0.13205794635E+04 -0.32531798071E+03  0.17262210230E+03  0.13709705680E+04  0.00000000000E+00 0.  1.
        -13    1    3    3    0    0  0.11697458061E+03 -0.46301006985E+02 -0.58803154926E+01  0.12594210522E+03  0.00000000000E+00 0. -1.
         22    1    1    2    0    0 -0.14375540442E+04  0.37161898769E+03  0.22518345544E+04  0.26972988641E+04  0.00000000000E+00 0. -1.
<mgrwt>
<rscale>  0 0.34266454E+04</rscale>
<asrwt>0</asrwt>
<pdfrwt beam="1">  1        2 0.50867598E+00 0.34266454E+04</pdfrwt>
<pdfrwt beam="2">  1       -2 0.13658732E+00 0.34266454E+04</pdfrwt>
<totfact> 0.34866394E-01</totfact>
</mgrwt>
</event>
<event>
 6    1  0.1817112E-005  0.1771284E+04  0.7818608E-02  0.8721721E-01
          2   -1    0    0  501    0  0.00000000000E+00  0.00000000000E+00  0.10722731410E+04  0.10722731410E+04  0.00000000000E+00 0.  1.
         -2   -1    0    0    0  501 -0.00000000000E+00 -0.00000000000E+00 -0.73149432677E+03  0.73149432677E+03  0.00000000000E+00 0. -1.
         23    2    1    2    0    0 -0.17542624641E+03 -0.77767342680E+03 -0.21670440803E+03  0.83096848043E+03  0.89428677362E+02 0.  0.
         13    1    3    3    0    0 -0.14493113919E+03 -0.44532758297E+03 -0.11848965228E+03  0.48307503451E+03  0.00000000000E+00 0.  1.
        -13    1    3    3    0    0 -0.30495107216E+02 -0.33234584382E+03 -0.98214755755E+02  0.34789344593E+03  0.00000000000E+00 0. -1.
         22    1    1    2    0    0  0.17542624641E+03  0.77767342680E+03  0.55748322229E+03  0.97279898736E+03  0.00000000000E+00 0.  1.
<mgrwt>
<rscale>  0 0.17712840E+04</rscale>
<asrwt>0</asrwt>
<pdfrwt beam="1">  1        2 0.16496510E+00 0.17712840E+04</pdfrwt>
<pdfrwt beam="2">  1       -2 0.11253759E+00 0.17712840E+04</pdfrwt>
<totfact> 0.13334564E+01</totfact>
</mgrwt>
</event>
<event>
 6    1  0.1817112E-005  0.4933566E+04  0.7818608E-02  0.7838838E-01
         -2   -1    0    0    0  501 -0.00000000000E+00  0.00000000000E+00  0.18616150459E+04  0.18616150459E+04  0.00000000000E+00 0.  1.
          2   -1    0    0  501    0  0.00000000000E+00 -0.00000000000E+00 -0.32686766149E+04  0.32686766149E+04  0.00000000000E+00 0. -1.
         23    2    1    2    0    0  0.17549884447E+03  0.22703354381E+04  0.28055354153E+03  0.22959896995E+04  0.87381717939E+02 0.  0.
         13    1    3    3    0    0  0.90504446955E+02  0.12605649417E+04  0.19887929003E+03  0.12793623408E+04  0.00000000000E+00 0.  1.
        -13    1    3    3    0    0  0.84994397512E+02  0.10097704964E+04  0.81674251505E+02  0.10166273587E+04  0.00000000000E+00 0. -1.
         22    1    1    2    0    0 -0.17549884447E+03 -0.22703354381E+04 -0.16876151105E+04  0.28343019612E+04  0.00000000000E+00 0. -1.
<mgrwt>
<rscale>  0 0.49335657E+04</rscale>
<asrwt>0</asrwt>
<pdfrwt beam="1">  1        2 0.50287333E+00 0.49335657E+04</pdfrwt>
<pdfrwt beam="2">  1       -2 0.28640231E+00 0.49335657E+04</pdfrwt>
<totfact> 0.32880308E-02</totfact>
</mgrwt>
</event>
<event>
 6    1  0.1817112E-005  0.2123684E+04  0.7818608E-02  0.8550882E-01
         -2   -1    0    0    0  501 -0.00000000000E+00  0.00000000000E+00  0.71623033699E+03  0.71623033699E+03  0.00000000000E+00 0.  1.
          2   -1    0    0  501    0  0.00000000000E+00 -0.00000000000E+00 -0.15742260839E+04  0.15742260839E+04  0.00000000000E+00 0. -1.
         23    2    1    2    0    0 -0.54506950530E+03  0.72676260967E+03  0.15899653974E+03  0.92680031778E+03  0.91620265095E+02 0.  0.
         11    1    3    3    0    0 -0.31061165900E+03  0.47455496156E+03  0.72803899827E+02  0.57182376838E+03  0.00000000000E+00 0. -1.
        -11    1    3    3    0    0 -0.23445784630E+03  0.25220764811E+03  0.86192639909E+02  0.35497654941E+03  0.00000000000E+00 0.  1.
         22    1    1    2    0    0  0.54506950530E+03 -0.72676260967E+03 -0.10169922866E+04  0.13636561031E+04  0.00000000000E+00 0. -1.
<mgrwt>
<rscale>  0 0.21236840E+04</rscale>
<asrwt>0</asrwt>
<pdfrwt beam="1">  1        2 0.24218863E+00 0.21236840E+04</pdfrwt>
<pdfrwt beam="2">  1       -2 0.11018928E+00 0.21236840E+04</pdfrwt>
<totfact> 0.69389988E+00</totfact>
</mgrwt>
</event>
<event>
 6    1  0.1817112E-005  0.4049132E+04  0.7818608E-02  0.7994708E-01
          2   -1    0    0  501    0  0.00000000000E+00  0.00000000000E+00  0.29259936977E+04  0.29259936977E+04  0.00000000000E+00 0. -1.
         -2   -1    0    0    0  501 -0.00000000000E+00 -0.00000000000E+00 -0.14008462502E+04  0.14008462502E+04  0.00000000000E+00 0.  1.
         23    2    1    2    0    0 -0.15351016957E+04 -0.80288012201E+02 -0.64292505038E+03  0.16691112678E+04  0.97961333355E+02 0.  0.
         13    1    3    3    0    0 -0.42158744877E+03 -0.21373291379E+02 -0.22453524157E+03  0.47813059853E+03  0.00000000000E+00 0. -1.
        -13    1    3    3    0    0 -0.11135142469E+04 -0.58914720821E+02 -0.41838980881E+03  0.11909806693E+04  0.00000000000E+00 0.  1.
         22    1    1    2    0    0  0.15351016957E+04  0.80288012201E+02  0.21680724978E+04  0.26577286801E+04  0.00000000000E+00 0. -1.
<mgrwt>
<rscale>  0 0.40491319E+04</rscale>
<asrwt>0</asrwt>
<pdfrwt beam="1">  1        2 0.45015287E+00 0.40491319E+04</pdfrwt>
<pdfrwt beam="2">  1       -2 0.21551481E+00 0.40491319E+04</pdfrwt>
<totfact> 0.16050497E-01</totfact>
</mgrwt>
</event>
<event>
 6    1  0.1817112E-005  0.3047309E+04  0.7818608E-02  0.8230349E-01
         -2   -1    0    0    0  501 -0.00000000000E+00  0.00000000000E+00  0.65925893985E+03  0.65925893985E+03  0.00000000000E+00 0. -1.
          2   -1    0    0  501    0  0.00000000000E+00 -0.00000000000E+00 -0.35214137502E+04  0.35214137502E+04  0.00000000000E+00 0.  1.
         23    2    1    2    0    0 -0.13765198365E+04  0.25547539156E+03 -0.22524100136E+04  0.26536287310E+04  0.91214233171E+02 0.  0.
         11    1    3    3    0    0 -0.67594005436E+03  0.17183025100E+03 -0.11210890582E+04  0.13203261978E+04  0.00000000000E+00 0. -1.
        -11    1    3    3    0    0 -0.70057978213E+03  0.83645140553E+02 -0.11313209554E+04  0.13333025331E+04  0.00000000000E+00 0.  1.
         22    1    1    2    0    0  0.13765198365E+04 -0.25547539156E+03 -0.60974479675E+03  0.15270439591E+04  0.00000000000E+00 0. -1.
<mgrwt>
<rscale>  0 0.30473093E+04</rscale>
<asrwt>0</asrwt>
<pdfrwt beam="1">  1        2 0.54175596E+00 0.30473093E+04</pdfrwt>
<pdfrwt beam="2">  1       -2 0.10142445E+00 0.30473093E+04</pdfrwt>
<totfact> 0.53430296E-01</totfact>
</mgrwt>
</event>
<event>
 6    1  0.1817112E-005  0.1510722E+04  0.7818608E-02  0.8877354E-01
         -2   -1    0    0    0  501 -0.00000000000E+00  0.00000000000E+00  0.60030425998E+03  0.60030425998E+03  0.00000000000E+00 0.  1.
          2   -1    0    0  501    0  0.00000000000E+00 -0.00000000000E+00 -0.95046880548E+03  0.95046880548E+03  0.00000000000E+00 0. -1.
         23    2    1    2    0    0  0.23538021112E+03  0.40837702864E+03 -0.77799675421E+03  0.91420724787E+03  0.91215685009E+02 0.  0.
         11    1    3    3    0    0  0.20740653251E+02  0.41691368835E+01 -0.50170086912E+02  0.54448085553E+02  0.00000000000E+00 0. -1.
        -11    1    3    3    0    0  0.21463955787E+03  0.40420789176E+03 -0.72782666730E+03  0.85975916232E+03  0.00000000000E+00 0.  1.
         22    1    1    2    0    0 -0.23538021112E+03 -0.40837702864E+03  0.42783220871E+03  0.63656581759E+03  0.00000000000E+00 0.  1.
<mgrwt>
<rscale>  0 0.15107223E+04</rscale>
<asrwt>0</asrwt>
<pdfrwt beam="1">  1        2 0.14622597E+00 0.15107223E+04</pdfrwt>
<pdfrwt beam="2">  1       -2 0.92354502E-01 0.15107223E+04</pdfrwt>
<totfact> 0.26079391E+01</totfact>
</mgrwt>
</event>
<event>
 6    1  0.1817112E-005  0.6522947E+03  0.7818608E-02  0.9802483E-01
          2   -1    0    0  501    0  0.00000000000E+00  0.00000000000E+00  0.35100955540E+03  0.35100955540E+03  0.00000000000E+00 0. -1.
         -2   -1    0    0    0  501 -0.00000000000E+00 -0.00000000000E+00 -0.30304613653E+03  0.30304613653E+03  0.00000000000E+00 0.  1.
         23    2    1    2    0    0  0.51251339974E+01 -0.15248118860E+03 -0.25747914914E+03  0.31262935693E+03  0.90359408431E+02 0.  0.
         11    1    3    3    0    0 -0.12234836943E+02 -0.15381044824E+03 -0.20018182649E+03  0.25274514611E+03  0.00000000000E+00 0. -1.
        -11    1    3    3    0    0  0.17359970941E+02  0.13292596397E+01 -0.57297322652E+02  0.59884210818E+02  0.00000000000E+00 0.  1.
         22    1    1    2    0    0 -0.51251339974E+01  0.15248118860E+03  0.30544256802E+03  0.34142633500E+03  0.00000000000E+00 0. -1.
<mgrwt>
<rscale>  0 0.65229469E+03</rscale>
<asrwt>0</asrwt>
<pdfrwt beam="1">  1        2 0.54001470E-01 0.65229469E+03</pdfrwt>
<pdfrwt beam="2">  1       -2 0.46622483E-01 0.65229469E+03</pdfrwt>
<totfact> 0.40537072E+02</totfact>
</mgrwt>
</event>
<event>
 6    1  0.1817112E-005  0.2317685E+04  0.7818608E-02  0.8470981E-01
          1   -1    0    0  501    0  0.00000000000E+00  0.00000000000E+00  0.29566964547E+04  0.29566964547E+04  0.00000000000E+00 0. -1.
         -1   -1    0    0    0  501 -0.00000000000E+00 -0.00000000000E+00 -0.45419463432E+03  0.45419463432E+03  0.00000000000E+00 0.  1.
         23    2    1    2    0    0  0.68809169993E+03 -0.50123368791E+03  0.99919269041E+02  0.86194850172E+03  0.90917335386E+02 0.  0.
         13    1    3    3    0    0  0.46908573820E+03 -0.29656419376E+03  0.41209686713E+02  0.55649796862E+03  0.00000000000E+00 0. -1.
        -13    1    3    3    0    0  0.21900596173E+03 -0.20466949415E+03  0.58709582328E+02  0.30545053309E+03  0.00000000000E+00 0.  1.
         22    1    1    2    0    0 -0.68809169993E+03  0.50123368791E+03  0.24025825513E+04  0.25489425873E+04  0.00000000000E+00 0. -1.
<mgrwt>
<rscale>  0 0.23176848E+04</rscale>
<asrwt>0</asrwt>
<pdfrwt beam="1">  1        1 0.45487637E+00 0.23176848E+04</pdfrwt>
<pdfrwt beam="2">  1       -1 0.69876099E-01 0.23176848E+04</pdfrwt>
<totfact> 0.12017654E+00</totfact>
</mgrwt>
</event>
<event>
 6    1  0.1817112E-005  0.2982970E+04  0.7818608E-02  0.8248611E-01
         -2   -1    0    0    0  501 -0.00000000000E+00  0.00000000000E+00  0.11483900846E+04  0.11483900846E+04  0.00000000000E+00 0.  1.
          2   -1    0    0  501    0  0.00000000000E+00 -0.00000000000E+00 -0.19370835075E+04  0.19370835075E+04  0.00000000000E+00 0. -1.
         23    2    1    2    0    0  0.35532119340E+03  0.57844033045E+02 -0.18903416866E+04  0.19264964657E+04  0.91639825356E+02 0.  0.
         11    1    3    3    0    0  0.16194250496E+03  0.19265493416E+02 -0.62720217816E+03  0.64805794991E+03  0.00000000000E+00 0.  1.
        -11    1    3    3    0    0  0.19337868844E+03  0.38578539629E+02 -0.12631395084E+04  0.12784385158E+04  0.00000000000E+00 0. -1.
         22    1    1    2    0    0 -0.35532119340E+03 -0.57844033045E+02  0.11016482637E+04  0.11589771264E+04  0.00000000000E+00 0.  1.
<mgrwt>
<rscale>  0 0.29829700E+04</rscale>
<asrwt>0</asrwt>
<pdfrwt beam="1">  1        2 0.29801285E+00 0.29829700E+04</pdfrwt>
<pdfrwt beam="2">  1       -2 0.17667540E+00 0.29829700E+04</pdfrwt>
<totfact> 0.11872770E+00</totfact>
</mgrwt>
</event>
<event>
 6    1  0.1817112E-005  0.1184908E+04  0.7818608E-02  0.9126170E-01
          2   -1    0    0  501    0  0.00000000000E+00  0.00000000000E+00  0.13879712127E+04  0.13879712127E+04  0.00000000000E+00 0.  1.
         -2   -1    0    0    0  501 -0.00000000000E+00 -0.00000000000E+00 -0.25288842247E+03  0.25288842247E+03  0.00000000000E+00 0. -1.
         23    2    1    2    0    0 -0.11829712574E+03  0.19170328474E+02  0.13694083112E+04  0.13776673838E+04  0.91250129599E+02 0.  0.
         13    1    3    3    0    0  0.24481149031E+01  0.28365817265E+02  0.20229071524E+03  0.20428447403E+03  0.00000000000E+00 0. -1.
        -13    1    3    3    0    0 -0.12074524064E+03 -0.91954887909E+01  0.11671175959E+04  0.11733829097E+04  0.00000000000E+00 0.  1.
         22    1    1    2    0    0  0.11829712574E+03 -0.19170328474E+02 -0.23432552092E+03  0.26319225142E+03  0.00000000000E+00 0. -1.
<mgrwt>
<rscale>  0 0.11849082E+04</rscale>
<asrwt>0</asrwt>
<pdfrwt beam="1">  1        2 0.21353403E+00 0.11849082E+04</pdfrwt>
<pdfrwt beam="2">  1       -2 0.38905912E-01 0.11849082E+04</pdfrwt>
<totfact> 0.90611632E+01</totfact>
</mgrwt>
</event>
<event>
 6    1  0.1817112E-005  0.1470448E+04  0.7818608E-02  0.8904346E-01
         -1   -1    0    0    0  501 -0.00000000000E+00  0.00000000000E+00  0.34818803361E+03  0.34818803361E+03  0.00000000000E+00 0.  1.
          1   -1    0    0  501    0  0.00000000000E+00 -0.00000000000E+00 -0.15524780419E+04  0.15524780419E+04  0.00000000000E+00 0. -1.
         23    2    1    2    0    0 -0.37641790927E+03  0.62155802979E+03 -0.48744440181E+03  0.87993474438E+03  0.93049893644E+02 0.  0.
         11    1    3    3    0    0 -0.24484149680E+03  0.31606606282E+03 -0.25697594582E+03  0.47527018774E+03  0.00000000000E+00 0. -1.
        -11    1    3    3    0    0 -0.13157641247E+03  0.30549196696E+03 -0.23046845599E+03  0.40466455664E+03  0.00000000000E+00 0.  1.
         22    1    1    2    0    0  0.37641790927E+03 -0.62155802979E+03 -0.71684560648E+03  0.10207313311E+04  0.00000000000E+00 0. -1.
<mgrwt>
<rscale>  0 0.14704479E+04</rscale>
<asrwt>0</asrwt>
<pdfrwt beam="1">  1        1 0.23884278E+00 0.14704479E+04</pdfrwt>
<pdfrwt beam="2">  1       -1 0.53567390E-01 0.14704479E+04</pdfrwt>
<totfact> 0.20515123E+01</totfact>
</mgrwt>
</event>
<event>
 6    1  0.1817112E-005  0.2868523E+04  0.7818608E-02  0.8282305E-01
         -2   -1    0    0    0  501 -0.00000000000E+00  0.00000000000E+00  0.21435233740E+04  0.21435233740E+04  0.00000000000E+00 0.  1.
          2   -1    0    0  501    0  0.00000000000E+00 -0.00000000000E+00 -0.95968454230E+03  0.95968454230E+03  0.00000000000E+00 0. -1.
         23    2    1    2    0    0 -0.57956554419E+03  0.63881095817E+03 -0.64517027181E+03  0.10810185184E+04  0.91546147931E+02 0.  0.
         11    1    3    3    0    0 -0.46160989712E+03  0.49112880463E+03 -0.45714413735E+03  0.81441510434E+03  0.00000000000E+00 0. -1.
        -11    1    3    3    0    0 -0.11795564707E+03  0.14768215354E+03 -0.18802613445E+03  0.26660341406E+03  0.00000000000E+00 0.  1.
         22    1    1    2    0    0  0.57956554419E+03 -0.63881095817E+03  0.18290091035E+04  0.20221893979E+04  0.00000000000E+00 0.  1.
<mgrwt>
<rscale>  0 0.28685231E+04</rscale>
<asrwt>0</asrwt>
<pdfrwt beam="1">  1        2 0.14764378E+00 0.28685231E+04</pdfrwt>
<pdfrwt beam="2">  1       -2 0.32977283E+00 0.28685231E+04</pdfrwt>
<totfact> 0.48210526E-01</totfact>
</mgrwt>
</event>
<event>
 6    1  0.1817112E-005  0.2368634E+04  0.7818608E-02  0.8451341E-01
         -2   -1    0    0    0  501 -0.00000000000E+00  0.00000000000E+00  0.10690641909E+04  0.10690641909E+04  0.00000000000E+00 0.  1.
          2   -1    0    0  501    0  0.00000000000E+00 -0.00000000000E+00 -0.13119946316E+04  0.13119946316E+04  0.00000000000E+00 0. -1.
         23    2    1    2    0    0  0.11687665170E+04 -0.90300583525E+02  0.36761148182E+02  0.11759045786E+04  0.85034282551E+02 0.  0.
         11    1    3    3    0    0  0.61309159749E+03 -0.48184309626E+02 -0.23198050334E+02  0.61541951882E+03  0.00000000000E+00 0.  1.
        -11    1    3    3    0    0  0.55567491955E+03 -0.42116273898E+02  0.59959198516E+02  0.56048505977E+03  0.00000000000E+00 0. -1.
         22    1    1    2    0    0 -0.11687665170E+04  0.90300583525E+02 -0.27969158880E+03  0.12051542439E+04  0.00000000000E+00 0. -1.
<mgrwt>
<rscale>  0 0.23686338E+04</rscale>
<asrwt>0</asrwt>
<pdfrwt beam="1">  1        2 0.20184533E+00 0.23686338E+04</pdfrwt>
<pdfrwt beam="2">  1       -2 0.16447141E+00 0.23686338E+04</pdfrwt>
<totfact> 0.34258645E+00</totfact>
</mgrwt>
</event>
<event>
 6    1  0.1817112E-005  0.1535369E+04  0.7818608E-02  0.8861268E-01
          2   -1    0    0  501    0  0.00000000000E+00  0.00000000000E+00  0.21390209201E+04  0.21390209201E+04  0.00000000000E+00 0. -1.
         -2   -1    0    0    0  501 -0.00000000000E+00 -0.00000000000E+00 -0.27551829818E+03  0.27551829818E+03  0.00000000000E+00 0.  1.
         23    2    1    2    0    0  0.64808844876E+03  0.37744985248E+03  0.69356315455E+03  0.10248466674E+04  0.82424594981E+02 0.  0.
         11    1    3    3    0    0  0.37710077253E+03  0.25780560530E+03  0.45178131425E+03  0.64247574170E+03  0.00000000000E+00 0.  1.
        -11    1    3    3    0    0  0.27098767623E+03  0.11964424717E+03  0.24178184030E+03  0.38237092574E+03  0.00000000000E+00 0. -1.
         22    1    1    2    0    0 -0.64808844876E+03 -0.37744985248E+03  0.11699394673E+04  0.13896925508E+04  0.00000000000E+00 0.  1.
<mgrwt>
<rscale>  0 0.15353689E+04</rscale>
<asrwt>0</asrwt>
<pdfrwt beam="1">  1        2 0.32908013E+00 0.15353689E+04</pdfrwt>
<pdfrwt beam="2">  1       -2 0.42387432E-01 0.15353689E+04</pdfrwt>
<totfact> 0.28427185E+01</totfact>
</mgrwt>
</event>
<event>
 6    1  0.1817112E-005  0.3071558E+04  0.7818608E-02  0.8223587E-01
          2   -1    0    0  501    0  0.00000000000E+00  0.00000000000E+00  0.12831986284E+04  0.12831986284E+04  0.00000000000E+00 0. -1.
         -2   -1    0    0    0  501 -0.00000000000E+00 -0.00000000000E+00 -0.18380760963E+04  0.18380760963E+04  0.00000000000E+00 0.  1.
         23    2    1    2    0    0  0.82890401393E+03 -0.11037492045E+04  0.40341318546E+03  0.14408982350E+04  0.90007526112E+02 0.  0.
         11    1    3    3    0    0  0.68585214000E+03 -0.87837510353E+03  0.29519425420E+03  0.11528554238E+04  0.00000000000E+00 0. -1.
        -11    1    3    3    0    0  0.14305187393E+03 -0.22537410099E+03  0.10821893126E+03  0.28804281126E+03  0.00000000000E+00 0.  1.
         22    1    1    2    0    0 -0.82890401393E+03  0.11037492045E+04 -0.95829065337E+03  0.16803764897E+04  0.00000000000E+00 0. -1.
<mgrwt>
<rscale>  0 0.30715577E+04</rscale>
<asrwt>0</asrwt>
<pdfrwt beam="1">  1        2 0.19741517E+00 0.30715577E+04</pdfrwt>
<pdfrwt beam="2">  1       -2 0.28278094E+00 0.30715577E+04</pdfrwt>
<totfact> 0.58277044E-01</totfact>
</mgrwt>
</event>
<event>
 6    1  0.1817112E-005  0.3460918E+04  0.7818608E-02  0.8123115E-01
         -2   -1    0    0    0  501 -0.00000000000E+00  0.00000000000E+00  0.15156431675E+04  0.15156431675E+04  0.00000000000E+00 0. -1.
          2   -1    0    0  501    0  0.00000000000E+00 -0.00000000000E+00 -0.19757217312E+04  0.19757217312E+04  0.00000000000E+00 0.  1.
         23    2    1    2    0    0 -0.56925425164E+02  0.35798428575E+03 -0.19359093549E+04  0.19716709238E+04  0.91367108039E+02 0.  0.
         11    1    3    3    0    0 -0.41983600553E+02  0.12000334190E+03 -0.88251884564E+03  0.89162937238E+03  0.00000000000E+00 0. -1.
        -11    1    3    3    0    0 -0.14941824611E+02  0.23798094385E+03 -0.10533905093E+04  0.10800415514E+04  0.00000000000E+00 0.  1.
         22    1    1    2    0    0  0.56925425164E+02 -0.35798428575E+03  0.14758307912E+04  0.15196939748E+04  0.00000000000E+00 0. -1.
<mgrwt>
<rscale>  0 0.34609185E+04</rscale>
<asrwt>0</asrwt>
<pdfrwt beam="1">  1        2 0.30395719E+00 0.34609185E+04</pdfrwt>
<pdfrwt beam="2">  1       -2 0.23317587E+00 0.34609185E+04</pdfrwt>
<totfact> 0.46408896E-01</totfact>
</mgrwt>
</event>
<event>
 6    1  0.1817112E-005  0.1353689E+04  0.7818608E-02  0.8988040E-01
         -2   -1    0    0    0  501 -0.00000000000E+00  0.00000000000E+00  0.64627148360E+03  0.64627148360E+03  0.00000000000E+00 0.  1.
          2   -1    0    0  501    0  0.00000000000E+00 -0.00000000000E+00 -0.70886370475E+03  0.70886370475E+03  0.00000000000E+00 0. -1.
         23    2    1    2    0    0 -0.48089034628E+01 -0.17604164231E+03 -0.68270749819E+03  0.71049828109E+03  0.87775246913E+02 0.  0.
         11    1    3    3    0    0 -0.34509470847E+02 -0.59668208898E+02 -0.35131044361E+03  0.35800869615E+03  0.00000000000E+00 0. -1.
        -11    1    3    3    0    0  0.29700567384E+02 -0.11637343341E+03 -0.33139705458E+03  0.35248958494E+03  0.00000000000E+00 0.  1.
         22    1    1    2    0    0  0.48089034628E+01  0.17604164231E+03  0.62011527704E+03  0.64463690725E+03  0.00000000000E+00 0.  1.
<mgrwt>
<rscale>  0 0.13536889E+04</rscale>
<asrwt>0</asrwt>
<pdfrwt beam="1">  1        2 0.10905595E+00 0.13536889E+04</pdfrwt>
<pdfrwt beam="2">  1       -2 0.99426382E-01 0.13536889E+04</pdfrwt>
<totfact> 0.32979238E+01</totfact>
</mgrwt>
</event>
<event>
 6    1  0.1817112E-005  0.5397578E+04  0.7818608E-02  0.7769942E-01
          2   -1    0    0  501    0  0.00000000000E+00  0.00000000000E+00  0.27665152783E+04  0.27665152783E+04  0.00000000000E+00 0.  1.
         -2   -1    0    0    0  501 -0.00000000000E+00 -0.00000000000E+00 -0.26327202351E+04  0.26327202351E+04  0.00000000000E+00 0. -1.
         23    2    1    2    0    0  0.91288878865E+03 -0.52028510961E+03  0.25526938952E+04  0.27619766729E+04  0.90589643847E+02 0.  0.
         11    1    3    3    0    0  0.20869630953E+03 -0.12666837215E+03  0.49913286640E+03  0.55563715178E+03  0.00000000000E+00 0. -1.
        -11    1    3    3    0    0  0.70419247912E+03 -0.39361673746E+03  0.20535610288E+04  0.22063395212E+04  0.00000000000E+00 0.  1.
         22    1    1    2    0    0 -0.91288878865E+03  0.52028510961E+03 -0.24188988520E+04  0.26372588405E+04  0.00000000000E+00 0. -1.
<mgrwt>
<rscale>  0 0.53975775E+04</rscale>
<asrwt>0</asrwt>
<pdfrwt beam="1">  1        2 0.42561773E+00 0.53975775E+04</pdfrwt>
<pdfrwt beam="2">  1       -2 0.40503388E+00 0.53975775E+04</pdfrwt>
<totfact> 0.11770286E-02</totfact>
</mgrwt>
</event>
<event>
 6    1  0.1817112E-005  0.4939883E+04  0.7818608E-02  0.7837848E-01
          2   -1    0    0  501    0  0.00000000000E+00  0.00000000000E+00  0.25762858478E+04  0.25762858478E+04  0.00000000000E+00 0. -1.
         -2   -1    0    0    0  501 -0.00000000000E+00 -0.00000000000E+00 -0.23679869267E+04  0.23679869267E+04  0.00000000000E+00 0.  1.
         23    2    1    2    0    0 -0.73583170779E+03 -0.20752058629E+04 -0.10141571453E+04  0.24258751669E+04  0.91803784174E+02 0.  0.
         11    1    3    3    0    0 -0.14484622008E+03 -0.40410052035E+03 -0.15823690333E+03  0.45751128466E+03  0.00000000000E+00 0.  1.
        -11    1    3    3    0    0 -0.59098548771E+03 -0.16711053425E+04 -0.85592024194E+03  0.19683638823E+04  0.00000000000E+00 0. -1.
         22    1    1    2    0    0  0.73583170779E+03  0.20752058629E+04  0.12224560664E+04  0.25183976075E+04  0.00000000000E+00 0. -1.
<mgrwt>
<rscale>  0 0.49398831E+04</rscale>
<asrwt>0</asrwt>
<pdfrwt beam="1">  1        2 0.39635167E+00 0.49398831E+04</pdfrwt>
<pdfrwt beam="2">  1       -2 0.36430568E+00 0.49398831E+04</pdfrwt>
<totfact> 0.29023656E-02</totfact>
</mgrwt>
</event>
<event>
 6    1  0.1817112E-005  0.1629930E+04  0.7818608E-02  0.8802369E-01
         -2   -1    0    0    0  501 -0.00000000000E+00  0.00000000000E+00  0.46645689298E+03  0.46645689298E+03  0.00000000000E+00 0.  1.
          2   -1    0    0  501    0  0.00000000000E+00 -0.00000000000E+00 -0.14238563377E+04  0.14238563377E+04  0.00000000000E+00 0. -1.
         23    2    1    2    0    0 -0.15443205519E+03  0.48888223233E+03 -0.12110350149E+04  0.13183113958E+04  0.92108806264E+02 0.  0.
         11    1    3    3    0    0 -0.75829831367E+02  0.10986857767E+03 -0.33134426594E+03  0.35722582530E+03  0.00000000000E+00 0.  1.
        -11    1    3    3    0    0 -0.78602223822E+02  0.37901365466E+03 -0.87969074892E+03  0.96108557046E+03  0.00000000000E+00 0. -1.
         22    1    1    2    0    0  0.15443205519E+03 -0.48888223233E+03  0.25363557012E+03  0.57200183495E+03  0.00000000000E+00 0.  1.
<mgrwt>
<rscale>  0 0.16299296E+04</rscale>
<asrwt>0</asrwt>
<pdfrwt beam="1">  1        2 0.21905482E+00 0.16299296E+04</pdfrwt>
<pdfrwt beam="2">  1       -2 0.71762599E-01 0.16299296E+04</pdfrwt>
<totfact> 0.23615834E+01</totfact>
</mgrwt>
</event>
<event>
 6    1  0.1817112E-005  0.2293565E+04  0.7818608E-02  0.8480462E-01
          2   -1    0    0  501    0  0.00000000000E+00  0.00000000000E+00  0.17741809622E+04  0.17741809622E+04  0.00000000000E+00 0. -1.
         -2   -1    0    0    0  501 -0.00000000000E+00 -0.00000000000E+00 -0.74124943878E+03  0.74124943878E+03  0.00000000000E+00 0.  1.
         23    2    1    2    0    0 -0.53095350970E+03  0.53841651190E+03  0.14601924090E+04  0.16468937961E+04  0.91067747281E+02 0.  0.
         13    1    3    3    0    0 -0.41997177706E+03  0.37857269910E+03  0.11318598788E+04  0.12652273975E+04  0.00000000000E+00 0. -1.
        -13    1    3    3    0    0 -0.11098173264E+03  0.15984381280E+03  0.32833253019E+03  0.38166639864E+03  0.00000000000E+00 0.  1.
         22    1    1    2    0    0  0.53095350970E+03 -0.53841651190E+03 -0.42726088555E+03  0.86853660491E+03  0.00000000000E+00 0.  1.
<mgrwt>
<rscale>  0 0.22935655E+04</rscale>
<asrwt>0</asrwt>
<pdfrwt beam="1">  1        2 0.27295092E+00 0.22935655E+04</pdfrwt>
<pdfrwt beam="2">  1       -2 0.11403838E+00 0.22935655E+04</pdfrwt>
<totfact> 0.48692983E+00</totfact>
</mgrwt>
</event>
<event>
 6    1  0.1817112E-005  0.7805402E+03  0.7818608E-02  0.9588619E-01
          2   -1    0    0  501    0  0.00000000000E+00  0.00000000000E+00  0.43219389357E+03  0.43219389357E+03  0.00000000000E+00 0. -1.
         -2   -1    0    0    0  501 -0.00000000000E+00 -0.00000000000E+00 -0.35241301275E+03  0.35241301275E+03  0.00000000000E+00 0.  1.
         23    2    1    2    0    0 -0.16520267197E+03  0.18304911226E+03  0.33777759639E+03  0.42772988889E+03  0.89778911229E+02 0.  0.
         11    1    3    3    0    0 -0.12599765936E+03  0.12260470509E+03  0.16744026209E+03  0.24278295913E+03  0.00000000000E+00 0. -1.
        -11    1    3    3    0    0 -0.39205012607E+02  0.60444407178E+02  0.17033733430E+03  0.18494692976E+03  0.00000000000E+00 0.  1.
         22    1    1    2    0    0  0.16520267197E+03 -0.18304911226E+03 -0.25799671556E+03  0.35687701743E+03  0.00000000000E+00 0.  1.
<mgrwt>
<rscale>  0 0.78054020E+03</rscale>
<asrwt>0</asrwt>
<pdfrwt beam="1">  1        2 0.66491368E-01 0.78054020E+03</pdfrwt>
<pdfrwt beam="2">  1       -2 0.54217387E-01 0.78054020E+03</pdfrwt>
<totfact> 0.23513171E+02</totfact>
</mgrwt>
</event>
<event>
 6    1  0.1817112E-005  0.5032809E+03  0.7818608E-02  0.1012926E+00
         -2   -1    0    0    0  501 -0.00000000000E+00  0.00000000000E+00  0.43380377029E+02  0.43380377029E+02  0.00000000000E+00 0.  1.
          2   -1    0    0  501    0  0.00000000000E+00 -0.00000000000E+00 -0.14597134986E+04  0.14597134986E+04  0.00000000000E+00 0. -1.
         23    2    1    2    0    0  0.18537806136E+03  0.13622320330E+03 -0.49478151968E+03  0.55326276343E+03  0.91483039035E+02 0.  0.
         13    1    3    3    0    0  0.14601332862E+03  0.79025609152E+02 -0.26050969147E+03  0.30891785055E+03  0.00000000000E+00 0.  1.
        -13    1    3    3    0    0  0.39364732743E+02  0.57197594150E+02 -0.23427182821E+03  0.24434491288E+03  0.00000000000E+00 0. -1.
         22    1    1    2    0    0 -0.18537806136E+03 -0.13622320330E+03 -0.92155160194E+03  0.94983111225E+03  0.00000000000E+00 0.  1.
<mgrwt>
<rscale>  0 0.50328092E+03</rscale>
<asrwt>0</asrwt>
<pdfrwt beam="1">  1        2 0.22457128E+00 0.50328092E+03</pdfrwt>
<pdfrwt beam="2">  1       -2 0.66739048E-02 0.50328092E+03</pdfrwt>
<totfact> 0.17884343E+03</totfact>
</mgrwt>
</event>
<event>
 6    1  0.1817112E-005  0.6000484E+04  0.7818608E-02  0.7690342E-01
          2   -1    0    0  501    0  0.00000000000E+00  0.00000000000E+00  0.39814493787E+04  0.39814493787E+04  0.00000000000E+00 0. -1.
         -2   -1    0    0    0  501 -0.00000000000E+00 -0.00000000000E+00 -0.22608478630E+04  0.22608478630E+04  0.00000000000E+00 0.  1.
         23    2    1    2    0    0 -0.19998285663E+04 -0.12958425697E+04 -0.10346350308E+04  0.25995166160E+04  0.92166858314E+02 0.  0.
         13    1    3    3    0    0 -0.10095321702E+04 -0.67785421198E+03 -0.48257132127E+03  0.13082494470E+04  0.00000000000E+00 0. -1.
        -13    1    3    3    0    0 -0.99029639614E+03 -0.61798835772E+03 -0.55206370952E+03  0.12912671691E+04  0.00000000000E+00 0.  1.
         22    1    1    2    0    0  0.19998285663E+04  0.12958425697E+04  0.27552365465E+04  0.36427806258E+04  0.00000000000E+00 0.  1.
<mgrwt>
<rscale>  0 0.60004838E+04</rscale>
<asrwt>0</asrwt>
<pdfrwt beam="1">  1        2 0.61253067E+00 0.60004838E+04</pdfrwt>
<pdfrwt beam="2">  1       -2 0.34782275E+00 0.60004838E+04</pdfrwt>
<totfact> 0.38078240E-03</totfact>
</mgrwt>
</event>
<event>
 6    1  0.1817112E-005  0.2693943E+04  0.7818608E-02  0.8336973E-01
         -2   -1    0    0    0  501 -0.00000000000E+00  0.00000000000E+00  0.18371438730E+04  0.18371438730E+04  0.00000000000E+00 0.  1.
          2   -1    0    0  501    0  0.00000000000E+00 -0.00000000000E+00 -0.98758293090E+03  0.98758293090E+03  0.00000000000E+00 0. -1.
         23    2    1    2    0    0 -0.72147328488E+03 -0.10296949337E+04  0.92735013726E+03  0.15650258409E+04  0.92370170017E+02 0.  0.
         13    1    3    3    0    0 -0.29193002705E+03 -0.48536847923E+03  0.38772076385E+03  0.68639135487E+03  0.00000000000E+00 0. -1.
        -13    1    3    3    0    0 -0.42954325783E+03 -0.54432645450E+03  0.53962937341E+03  0.87863448604E+03  0.00000000000E+00 0.  1.
         22    1    1    2    0    0  0.72147328488E+03  0.10296949337E+04 -0.77789195138E+02  0.12597009630E+04  0.00000000000E+00 0. -1.
<mgrwt>
<rscale>  0 0.26939428E+04</rscale>
<asrwt>0</asrwt>
<pdfrwt beam="1">  1        2 0.15193584E+00 0.26939428E+04</pdfrwt>
<pdfrwt beam="2">  1       -2 0.28263752E+00 0.26939428E+04</pdfrwt>
<totfact> 0.91388772E-01</totfact>
</mgrwt>
</event>
<event>
 6    1  0.1817112E-005  0.2837434E+04  0.7818608E-02  0.8291740E-01
          1   -1    0    0  501    0  0.00000000000E+00  0.00000000000E+00  0.21999554566E+04  0.21999554566E+04  0.00000000000E+00 0. -1.
         -1   -1    0    0    0  501 -0.00000000000E+00 -0.00000000000E+00 -0.91490821333E+03  0.91490821333E+03  0.00000000000E+00 0.  1.
         23    2    1    2    0    0 -0.90730806530E+03 -0.10701829936E+04  0.86280569259E+03  0.16496717056E+04  0.92105961382E+02 0.  0.
         13    1    3    3    0    0 -0.47221071965E+03 -0.48581475066E+03  0.41523555785E+03  0.79461909379E+03  0.00000000000E+00 0. -1.
        -13    1    3    3    0    0 -0.43509734565E+03 -0.58436824291E+03  0.44757013474E+03  0.85505261185E+03  0.00000000000E+00 0.  1.
         22    1    1    2    0    0  0.90730806530E+03  0.10701829936E+04  0.42224155066E+03  0.14651919643E+04  0.00000000000E+00 0.  1.
<mgrwt>
<rscale>  0 0.28374336E+04</rscale>
<asrwt>0</asrwt>
<pdfrwt beam="1">  1        1 0.33845468E+00 0.28374336E+04</pdfrwt>
<pdfrwt beam="2">  1       -1 0.14075511E+00 0.28374336E+04</pdfrwt>
<totfact> 0.77686725E-01</totfact>
</mgrwt>
</event>
<event>
 6    1  0.1817112E-005  0.1458162E+04  0.7818608E-02  0.8912762E-01
          2   -1    0    0  501    0  0.00000000000E+00  0.00000000000E+00  0.82187440458E+03  0.82187440458E+03  0.00000000000E+00 0. -1.
         -2   -1    0    0    0  501 -0.00000000000E+00 -0.00000000000E+00 -0.64676432761E+03  0.64676432761E+03  0.00000000000E+00 0.  1.
         23    2    1    2    0    0 -0.17509891156E+03  0.70001206699E+03  0.17048143164E+03  0.74704470012E+03  0.91298097905E+02 0.  0.
         13    1    3    3    0    0 -0.14458206892E+03  0.50001739781E+03  0.15969336231E+03  0.54444774104E+03  0.00000000000E+00 0. -1.
        -13    1    3    3    0    0 -0.30516842643E+02  0.19999466919E+03  0.10788069329E+02  0.20259695908E+03  0.00000000000E+00 0.  1.
         22    1    1    2    0    0  0.17509891156E+03 -0.70001206699E+03  0.46286453356E+01  0.72159403207E+03  0.00000000000E+00 0.  1.
<mgrwt>
<rscale>  0 0.14581619E+04</rscale>
<asrwt>0</asrwt>
<pdfrwt beam="1">  1        2 0.12644222E+00 0.14581619E+04</pdfrwt>
<pdfrwt beam="2">  1       -2 0.99502204E-01 0.14581619E+04</pdfrwt>
<totfact> 0.26919214E+01</totfact>
</mgrwt>
</event>
<event>
 6    1  0.1817112E-005  0.2722148E+04  0.7818608E-02  0.8327854E-01
          2   -1    0    0  501    0  0.00000000000E+00  0.00000000000E+00  0.19237366342E+04  0.19237366342E+04  0.00000000000E+00 0. -1.
         -2   -1    0    0    0  501 -0.00000000000E+00 -0.00000000000E+00 -0.96298102529E+03  0.96298102529E+03  0.00000000000E+00 0.  1.
         23    2    1    2    0    0  0.43398044275E+03  0.61337617996E+03 -0.72033004897E+03  0.10453544819E+04  0.96546623188E+02 0.  0.
         11    1    3    3    0    0  0.10899603116E+03  0.97598714034E+02 -0.11329027038E+03  0.18504142551E+03  0.00000000000E+00 0.  1.
        -11    1    3    3    0    0  0.32498441159E+03  0.51577746592E+03 -0.60703977859E+03  0.86031305635E+03  0.00000000000E+00 0. -1.
         22    1    1    2    0    0 -0.43398044275E+03 -0.61337617996E+03  0.16810856579E+04  0.18413631777E+04  0.00000000000E+00 0. -1.
<mgrwt>
<rscale>  0 0.27221476E+04</rscale>
<asrwt>0</asrwt>
<pdfrwt beam="1">  1        2 0.29595948E+00 0.27221476E+04</pdfrwt>
<pdfrwt beam="2">  1       -2 0.14815093E+00 0.27221476E+04</pdfrwt>
<totfact> 0.19975537E+00</totfact>
</mgrwt>
</event>
<event>
 6    1  0.1817112E-005  0.1551837E+04  0.7818608E-02  0.8850695E-01
         -2   -1    0    0    0  501 -0.00000000000E+00  0.00000000000E+00  0.28681867729E+03  0.28681867729E+03  0.00000000000E+00 0.  1.
          2   -1    0    0  501    0  0.00000000000E+00 -0.00000000000E+00 -0.20990591829E+04  0.20990591829E+04  0.00000000000E+00 0. -1.
         23    2    1    2    0    0  0.53856552209E+03 -0.42979131037E+02 -0.59200316238E+02  0.55147061727E+03  0.93354898035E+02 0.  0.
         13    1    3    3    0    0  0.31571027816E+03 -0.71155487172E+02 -0.37528794161E+02  0.32579824045E+03  0.00000000000E+00 0. -1.
        -13    1    3    3    0    0  0.22285524393E+03  0.28176356135E+02 -0.21671522077E+02  0.22567237682E+03  0.00000000000E+00 0.  1.
         22    1    1    2    0    0 -0.53856552209E+03  0.42979131037E+02 -0.17530401893E+04  0.18344072429E+04  0.00000000000E+00 0. -1.
<mgrwt>
<rscale>  0 0.15518368E+04</rscale>
<asrwt>0</asrwt>
<pdfrwt beam="1">  1        2 0.32293218E+00 0.15518368E+04</pdfrwt>
<pdfrwt beam="2">  1       -2 0.44125951E-01 0.15518368E+04</pdfrwt>
<totfact> 0.27592154E+01</totfact>
</mgrwt>
</event>
<event>
 6    1  0.1817112E-005  0.2167325E+04  0.7818608E-02  0.8532153E-01
         -2   -1    0    0    0  501 -0.00000000000E+00  0.00000000000E+00  0.51233758576E+03  0.51233758576E+03  0.00000000000E+00 0.  1.
          2   -1    0    0  501    0  0.00000000000E+00 -0.00000000000E+00 -0.22920904061E+04  0.22920904061E+04  0.00000000000E+00 0. -1.
         23    2    1    2    0    0 -0.82759405616E+03  0.41968066544E+03 -0.16108813036E+04  0.18612623797E+04  0.91188207122E+02 0.  0.
         13    1    3    3    0    0 -0.47654086655E+03  0.25994876120E+03 -0.85703123164E+03  0.10144787272E+04  0.00000000000E+00 0. -1.
        -13    1    3    3    0    0 -0.35105318961E+03  0.15973190424E+03 -0.75385007194E+03  0.84678365249E+03  0.00000000000E+00 0.  1.
         22    1    1    2    0    0  0.82759405616E+03 -0.41968066544E+03 -0.16887151674E+03  0.94316561213E+03  0.00000000000E+00 0.  1.
<mgrwt>
<rscale>  0 0.21673247E+04</rscale>
<asrwt>0</asrwt>
<pdfrwt beam="1">  1        2 0.35262930E+00 0.21673247E+04</pdfrwt>
<pdfrwt beam="2">  1       -2 0.78821167E-01 0.21673247E+04</pdfrwt>
<totfact> 0.59996922E+00</totfact>
</mgrwt>
</event>
<event>
 6    1  0.1817112E-005  0.8589431E+03  0.7818608E-02  0.9478412E-01
          2   -1    0    0  501    0  0.00000000000E+00  0.00000000000E+00  0.53532910600E+03  0.53532910600E+03  0.00000000000E+00 0. -1.
         -2   -1    0    0    0  501 -0.00000000000E+00 -0.00000000000E+00 -0.34454657871E+03  0.34454657871E+03  0.00000000000E+00 0.  1.
         23    2    1    2    0    0 -0.45477607613E+02 -0.42213084462E+03  0.91949349267E+02  0.44395062251E+03  0.91513985942E+02 0.  0.
         13    1    3    3    0    0 -0.52495505117E+02 -0.38166110722E+03  0.55876853718E+02  0.38928550140E+03  0.00000000000E+00 0. -1.
        -13    1    3    3    0    0  0.70178975041E+01 -0.40469737406E+02  0.36072495549E+02  0.54665121112E+02  0.00000000000E+00 0.  1.
         22    1    1    2    0    0  0.45477607613E+02  0.42213084462E+03  0.98833178030E+02  0.43592506220E+03  0.00000000000E+00 0.  1.
<mgrwt>
<rscale>  0 0.85894310E+03</rscale>
<asrwt>0</asrwt>
<pdfrwt beam="1">  1        2 0.82358324E-01 0.85894310E+03</pdfrwt>
<pdfrwt beam="2">  1       -2 0.53007166E-01 0.85894310E+03</pdfrwt>
<totfact> 0.19178060E+02</totfact>
</mgrwt>
</event>
<event>
 6    1  0.1817112E-005  0.2423812E+04  0.7818608E-02  0.8430642E-01
         -2   -1    0    0    0  501 -0.00000000000E+00  0.00000000000E+00  0.53689353628E+03  0.53689353628E+03  0.00000000000E+00 0.  1.
          2   -1    0    0  501    0  0.00000000000E+00 -0.00000000000E+00 -0.27355822667E+04  0.27355822667E+04  0.00000000000E+00 0. -1.
         23    2    1    2    0    0 -0.63000986935E+03 -0.92827306041E+03 -0.17135148455E+04  0.20501840994E+04  0.92295207908E+02 0.  0.
         11    1    3    3    0    0 -0.19945932234E+03 -0.29701760464E+03 -0.47021753321E+03  0.59085362593E+03  0.00000000000E+00 0.  1.
        -11    1    3    3    0    0 -0.43055054701E+03 -0.63125545577E+03 -0.12432973123E+04  0.14593304734E+04  0.00000000000E+00 0. -1.
         22    1    1    2    0    0  0.63000986935E+03  0.92827306041E+03 -0.48517388497E+03  0.12222917037E+04  0.00000000000E+00 0. -1.
<mgrwt>
<rscale>  0 0.24238122E+04</rscale>
<asrwt>0</asrwt>
<pdfrwt beam="1">  1        2 0.42085881E+00 0.24238122E+04</pdfrwt>
<pdfrwt beam="2">  1       -2 0.82599005E-01 0.24238122E+04</pdfrwt>
<totfact> 0.29184021E+00</totfact>
</mgrwt>
</event>
<event>
 6    1  0.1817112E-005  0.9694524E+03  0.7818608E-02  0.9342698E-01
          2   -1    0    0  501    0  0.00000000000E+00  0.00000000000E+00  0.28136516381E+04  0.28136516381E+04  0.00000000000E+00 0. -1.
         -2   -1    0    0    0  501 -0.00000000000E+00 -0.00000000000E+00 -0.83506957301E+02  0.83506957301E+02  0.00000000000E+00 0.  1.
         23    2    1    2    0    0 -0.31196509498E+03 -0.30117991512E+03  0.75954314124E+03  0.87941183491E+03  0.91803214646E+02 0.  0.
         13    1    3    3    0    0 -0.15221314316E+02 -0.21554955434E+02  0.10496661930E+03  0.10823259989E+03  0.00000000000E+00 0. -1.
        -13    1    3    3    0    0 -0.29674378066E+03 -0.27962495969E+03  0.65457652194E+03  0.77117923502E+03  0.00000000000E+00 0.  1.
         22    1    1    2    0    0  0.31196509498E+03  0.30117991512E+03  0.19706015396E+04  0.20177467605E+04  0.00000000000E+00 0. -1.
<mgrwt>
<rscale>  0 0.96945240E+03</rscale>
<asrwt>0</asrwt>
<pdfrwt beam="1">  1        2 0.43286941E+00 0.96945240E+03</pdfrwt>
<pdfrwt beam="2">  1       -2 0.12847226E-01 0.96945240E+03</pdfrwt>
<totfact> 0.10556739E+02</totfact>
</mgrwt>
</event>
<event>
 6    1  0.2133161E-005  0.3457254E+04  0.7818608E-02  0.8123995E-01
         -1   -1    0    0    0  501 -0.00000000000E+00  0.00000000000E+00  0.13975923404E+04  0.13975923404E+04  0.00000000000E+00 0.  1.
          1   -1    0    0  501    0  0.00000000000E+00 -0.00000000000E+00 -0.21380711660E+04  0.21380711660E+04  0.00000000000E+00 0. -1.
         23    2    1    2    0    0  0.10135402998E+04 -0.50880829065E+03  0.96199683169E+03  0.14900405746E+04  0.92914980555E+02 0.  0.
         13    1    3    3    0    0  0.49635336972E+03 -0.23144529773E+03  0.52162406482E+03  0.75632351442E+03  0.00000000000E+00 0.  1.
        -13    1    3    3    0    0  0.51718693011E+03 -0.27736299292E+03  0.44037276688E+03  0.73371706013E+03  0.00000000000E+00 0. -1.
         22    1    1    2    0    0 -0.10135402998E+04  0.50880829065E+03 -0.17024756573E+04  0.20456229319E+04  0.00000000000E+00 0. -1.
<mgrwt>
<rscale>  0 0.34572543E+04</rscale>
<asrwt>0</asrwt>
<pdfrwt beam="1">  1        1 0.32893403E+00 0.34572543E+04</pdfrwt>
<pdfrwt beam="2">  1       -1 0.21501421E+00 0.34572543E+04</pdfrwt>
<totfact> 0.23371570E-01</totfact>
</mgrwt>
</event>
<event>
 6    1  0.1817112E-005  0.8724240E+03  0.7818608E-02  0.9460725E-01
         -2   -1    0    0    0  501 -0.00000000000E+00  0.00000000000E+00  0.57782872939E+03  0.57782872939E+03  0.00000000000E+00 0.  1.
          2   -1    0    0  501    0  0.00000000000E+00 -0.00000000000E+00 -0.32930331614E+03  0.32930331614E+03  0.00000000000E+00 0. -1.
         23    2    1    2    0    0  0.39835062083E+03  0.11332572737E+03  0.25118734808E+03  0.49296659128E+03  0.91624443704E+02 0.  0.
         13    1    3    3    0    0  0.84411193608E+01  0.13682963101E+02  0.29272416700E+02  0.33396861450E+02  0.00000000000E+00 0. -1.
        -13    1    3    3    0    0  0.38990950147E+03  0.99642764266E+02  0.22191493138E+03  0.45956972983E+03  0.00000000000E+00 0.  1.
         22    1    1    2    0    0 -0.39835062083E+03 -0.11332572737E+03 -0.26619348316E+01  0.41416545425E+03  0.00000000000E+00 0. -1.
<mgrwt>
<rscale>  0 0.87242402E+03</rscale>
<asrwt>0</asrwt>
<pdfrwt beam="1">  1        2 0.50662049E-01 0.87242402E+03</pdfrwt>
<pdfrwt beam="2">  1       -2 0.88896728E-01 0.87242402E+03</pdfrwt>
<totfact> 0.10809747E+02</totfact>
</mgrwt>
</event>
<event>
 6    1  0.1817112E-005  0.2681208E+04  0.7818608E-02  0.8341128E-01
         -2   -1    0    0    0  501 -0.00000000000E+00  0.00000000000E+00  0.11998210537E+04  0.11998210537E+04  0.00000000000E+00 0.  1.
          2   -1    0    0  501    0  0.00000000000E+00 -0.00000000000E+00 -0.14979064350E+04  0.14979064350E+04  0.00000000000E+00 0. -1.
         23    2    1    2    0    0  0.12508438977E+04 -0.42146537062E+02  0.32986594324E+03  0.12974740641E+04  0.90777858240E+02 0.  0.
         11    1    3    3    0    0  0.63715748679E+03 -0.38448281521E+02  0.21167921917E+03  0.67249983283E+03  0.00000000000E+00 0.  1.
        -11    1    3    3    0    0  0.61368641092E+03 -0.36982555409E+01  0.11818672407E+03  0.62497423130E+03  0.00000000000E+00 0. -1.
         22    1    1    2    0    0 -0.12508438977E+04  0.42146537062E+02 -0.62795132460E+03  0.14002534246E+04  0.00000000000E+00 0.  1.
<mgrwt>
<rscale>  0 0.26812084E+04</rscale>
<asrwt>0</asrwt>
<pdfrwt beam="1">  1        2 0.23044714E+00 0.26812084E+04</pdfrwt>
<pdfrwt beam="2">  1       -2 0.18458786E+00 0.26812084E+04</pdfrwt>
<totfact> 0.18862856E+00</totfact>
</mgrwt>
</event>
<event>
 6    1  0.1817112E-005  0.9397421E+03  0.7818608E-02  0.9377221E-01
          2   -1    0    0  501    0  0.00000000000E+00  0.00000000000E+00  0.15536091568E+04  0.15536091568E+04  0.00000000000E+00 0. -1.
         -2   -1    0    0    0  501 -0.00000000000E+00 -0.00000000000E+00 -0.14210705584E+03  0.14210705584E+03  0.00000000000E+00 0.  1.
         23    2    1    2    0    0 -0.38197353575E+03  0.61592810285E+02  0.11793808491E+04  0.12445203219E+04  0.90521754407E+02 0.  0.
         11    1    3    3    0    0 -0.27436424662E+02 -0.10696172901E+02  0.44559088063E+02  0.53410465659E+02  0.00000000000E+00 0.  1.
        -11    1    3    3    0    0 -0.35453711108E+03  0.72288983186E+02  0.11348217610E+04  0.11911098562E+04  0.00000000000E+00 0. -1.
         22    1    1    2    0    0  0.38197353575E+03 -0.61592810285E+02  0.23212125188E+03  0.45119589079E+03  0.00000000000E+00 0.  1.
<mgrwt>
<rscale>  0 0.93974214E+03</rscale>
<asrwt>0</asrwt>
<pdfrwt beam="1">  1        2 0.23901678E+00 0.93974214E+03</pdfrwt>
<pdfrwt beam="2">  1       -2 0.21862625E-01 0.93974214E+03</pdfrwt>
<totfact> 0.21641121E+02</totfact>
</mgrwt>
</event>
<event>
 6    1  0.1817112E-005  0.5223462E+04  0.7818608E-02  0.7794931E-01
          2   -1    0    0  501    0  0.00000000000E+00  0.00000000000E+00  0.17210918129E+04  0.17210918129E+04  0.00000000000E+00 0. -1.
         -2   -1    0    0    0  501 -0.00000000000E+00 -0.00000000000E+00 -0.39632627773E+04  0.39632627773E+04  0.00000000000E+00 0.  1.
         23    2    1    2    0    0  0.11830336137E+04 -0.22159611464E+04 -0.34655960731E+03  0.25373886306E+04  0.90471916316E+02 0.  0.
         11    1    3    3    0    0  0.52984555448E+03 -0.96748882218E+03 -0.19594318471E+03  0.11203413160E+04  0.00000000000E+00 0. -1.
        -11    1    3    3    0    0  0.65318805925E+03 -0.12484723243E+04 -0.15061642259E+03  0.14170473147E+04  0.00000000000E+00 0.  1.
         22    1    1    2    0    0 -0.11830336137E+04  0.22159611464E+04 -0.18956113571E+04  0.31469659596E+04  0.00000000000E+00 0.  1.
<mgrwt>
<rscale>  0 0.52234621E+04</rscale>
<asrwt>0</asrwt>
<pdfrwt beam="1">  1        2 0.26478336E+00 0.52234621E+04</pdfrwt>
<pdfrwt beam="2">  1       -2 0.60973273E+00 0.52234621E+04</pdfrwt>
<totfact> 0.32208760E-03</totfact>
</mgrwt>
</event>
<event>
 6    1  0.1817112E-005  0.1864580E+04  0.7818608E-02  0.8672691E-01
         -2   -1    0    0    0  501 -0.00000000000E+00  0.00000000000E+00  0.74086005594E+03  0.74086005594E+03  0.00000000000E+00 0.  1.
          2   -1    0    0  501    0  0.00000000000E+00 -0.00000000000E+00 -0.11731827691E+04  0.11731827691E+04  0.00000000000E+00 0. -1.
         23    2    1    2    0    0 -0.54601761728E+03 -0.54510391378E+02 -0.98755374674E+03  0.11334096706E+04  0.90821019805E+02 0.  0.
         13    1    3    3    0    0 -0.26875512563E+03  0.11184306939E+02 -0.42854506261E+03  0.50596964035E+03  0.00000000000E+00 0.  1.
        -13    1    3    3    0    0 -0.27726249165E+03 -0.65694698317E+02 -0.55900868413E+03  0.62744003028E+03  0.00000000000E+00 0. -1.
         22    1    1    2    0    0  0.54601761728E+03  0.54510391378E+02  0.55523103356E+03  0.78063315442E+03  0.00000000000E+00 0.  1.
<mgrwt>
<rscale>  0 0.18645796E+04</rscale>
<asrwt>0</asrwt>
<pdfrwt beam="1">  1        2 0.18048966E+00 0.18645796E+04</pdfrwt>
<pdfrwt beam="2">  1       -2 0.11397847E+00 0.18645796E+04</pdfrwt>
<totfact> 0.11127718E+01</totfact>
</mgrwt>
</event>
<event>
 6    1  0.1817112E-005  0.6571755E+03  0.7818608E-02  0.9793407E-01
         -3   -1    0    0    0  501 -0.00000000000E+00  0.00000000000E+00  0.39015522514E+02  0.39015522514E+02  0.00000000000E+00 0.  1.
          3   -1    0    0  501    0  0.00000000000E+00 -0.00000000000E+00 -0.27673577047E+04  0.27673577047E+04  0.00000000000E+00 0. -1.
         23    2    1    2    0    0 -0.95498314070E+01  0.80815422070E+02 -0.27218810030E+04  0.27247394195E+04  0.94585294354E+02 0.  0.
         11    1    3    3    0    0 -0.32916592375E+02  0.85491647005E+02 -0.24790185552E+04  0.24807106483E+04  0.00000000000E+00 0. -1.
        -11    1    3    3    0    0  0.23366760968E+02 -0.46762249349E+01 -0.24286244779E+03  0.24402877114E+03  0.00000000000E+00 0.  1.
         22    1    1    2    0    0  0.95498314070E+01 -0.80815422070E+02 -0.64611791680E+01  0.81633807706E+02  0.00000000000E+00 0.  1.
<mgrwt>
<rscale>  0 0.65717549E+03</rscale>
<asrwt>0</asrwt>
<pdfrwt beam="1">  1        3 0.42574749E+00 0.65717549E+03</pdfrwt>
<pdfrwt beam="2">  1       -3 0.60023859E-02 0.65717549E+03</pdfrwt>
<totfact> 0.40928301E+00</totfact>
</mgrwt>
</event>
<event>
 6    1  0.1817112E-005  0.2433489E+04  0.7818608E-02  0.8427071E-01
         -2   -1    0    0    0  501 -0.00000000000E+00  0.00000000000E+00  0.14852305065E+04  0.14852305065E+04  0.00000000000E+00 0.  1.
          2   -1    0    0  501    0  0.00000000000E+00 -0.00000000000E+00 -0.99679297131E+03  0.99679297131E+03  0.00000000000E+00 0. -1.
         23    2    1    2    0    0 -0.63124872316E+03 -0.58968723449E+03 -0.62678702757E+03  0.10713740492E+04  0.93671716071E+02 0.  0.
         13    1    3    3    0    0 -0.28756193198E+03 -0.27398807712E+03 -0.34583905422E+03  0.52665546855E+03  0.00000000000E+00 0. -1.
        -13    1    3    3    0    0 -0.34368679118E+03 -0.31569915737E+03 -0.28094797335E+03  0.54471858067E+03  0.00000000000E+00 0.  1.
         22    1    1    2    0    0  0.63124872316E+03  0.58968723449E+03  0.11152245628E+04  0.14106494286E+04  0.00000000000E+00 0.  1.
<mgrwt>
<rscale>  0 0.24334891E+04</rscale>
<asrwt>0</asrwt>
<pdfrwt beam="1">  1        2 0.15335276E+00 0.24334891E+04</pdfrwt>
<pdfrwt beam="2">  1       -2 0.22849700E+00 0.24334891E+04</pdfrwt>
<totfact> 0.19826651E+00</totfact>
</mgrwt>
</event>
<event>
 6    1  0.1817112E-005  0.1993828E+04  0.7818608E-02  0.8609512E-01
          2   -1    0    0  501    0  0.00000000000E+00  0.00000000000E+00  0.23936956423E+04  0.23936956423E+04  0.00000000000E+00 0. -1.
         -2   -1    0    0    0  501 -0.00000000000E+00 -0.00000000000E+00 -0.41518967849E+03  0.41518967849E+03  0.00000000000E+00 0.  1.
         23    2    1    2    0    0 -0.10292724126E+02  0.21624461505E+03  0.23592051224E+04  0.23709360965E+04  0.92851979006E+02 0.  0.
         13    1    3    3    0    0  0.13511134601E+02  0.80098950304E+01  0.44757891466E+03  0.44785443397E+03  0.00000000000E+00 0. -1.
        -13    1    3    3    0    0 -0.23803858727E+02  0.20823472002E+03  0.19116262078E+04  0.19230816625E+04  0.00000000000E+00 0.  1.
         22    1    1    2    0    0  0.10292724126E+02 -0.21624461505E+03 -0.38069915864E+03  0.43794922434E+03  0.00000000000E+00 0.  1.
<mgrwt>
<rscale>  0 0.19938282E+04</rscale>
<asrwt>0</asrwt>
<pdfrwt beam="1">  1        2 0.36826086E+00 0.19938282E+04</pdfrwt>
<pdfrwt beam="2">  1       -2 0.63875337E-01 0.19938282E+04</pdfrwt>
<totfact> 0.84484802E+00</totfact>
</mgrwt>
</event>
<event>
 6    1  0.1817112E-005  0.1021780E+04  0.7818608E-02  0.9284975E-01
         -2   -1    0    0    0  501 -0.00000000000E+00  0.00000000000E+00  0.18870716160E+03  0.18870716160E+03  0.00000000000E+00 0.  1.
          2   -1    0    0  501    0  0.00000000000E+00 -0.00000000000E+00 -0.13831398638E+04  0.13831398638E+04  0.00000000000E+00 0. -1.
         23    2    1    2    0    0  0.17061764316E+03 -0.43217103381E+03 -0.91263532400E+03  0.10284393101E+04  0.94350397001E+02 0.  0.
         13    1    3    3    0    0  0.94866090022E+02 -0.33100983245E+03 -0.61000902025E+03  0.70048418183E+03  0.00000000000E+00 0.  1.
        -13    1    3    3    0    0  0.75751553134E+02 -0.10116120137E+03 -0.30262630375E+03  0.32795512831E+03  0.00000000000E+00 0. -1.
         22    1    1    2    0    0 -0.17061764316E+03  0.43217103381E+03 -0.28179737818E+03  0.54340771523E+03  0.00000000000E+00 0.  1.
<mgrwt>
<rscale>  0 0.10217796E+04</rscale>
<asrwt>0</asrwt>
<pdfrwt beam="1">  1        2 0.21279075E+00 0.10217796E+04</pdfrwt>
<pdfrwt beam="2">  1       -2 0.29031871E-01 0.10217796E+04</pdfrwt>
<totfact> 0.16065886E+02</totfact>
</mgrwt>
</event>
<event>
 6    1  0.1817112E-005  0.3100607E+04  0.7818608E-02  0.8215571E-01
          2   -1    0    0  501    0  0.00000000000E+00  0.00000000000E+00  0.27195173019E+04  0.27195173019E+04  0.00000000000E+00 0. -1.
         -2   -1    0    0    0  501 -0.00000000000E+00 -0.00000000000E+00 -0.88377499165E+03  0.88377499165E+03  0.00000000000E+00 0.  1.
         23    2    1    2    0    0  0.12817270672E+04  0.58576140546E+03  0.16657992822E+04  0.21838482715E+04  0.91462152474E+02 0.  0.
         13    1    3    3    0    0  0.66513291919E+03  0.35315709865E+03  0.90227560109E+03  0.11752544392E+04  0.00000000000E+00 0. -1.
        -13    1    3    3    0    0  0.61659414803E+03  0.23260430681E+03  0.76352368107E+03  0.10085938323E+04  0.00000000000E+00 0.  1.
         22    1    1    2    0    0 -0.12817270672E+04 -0.58576140546E+03  0.16994302805E+03  0.14194440221E+04  0.00000000000E+00 0.  1.
<mgrwt>
<rscale>  0 0.31006073E+04</rscale>
<asrwt>0</asrwt>
<pdfrwt beam="1">  1        2 0.41838727E+00 0.31006073E+04</pdfrwt>
<pdfrwt beam="2">  1       -2 0.13596538E+00 0.31006073E+04</pdfrwt>
<totfact> 0.84988344E-01</totfact>
</mgrwt>
</event>
<event>
 6    1  0.1817112E-005  0.8725384E+03  0.7818608E-02  0.9460576E-01
         -2   -1    0    0    0  501 -0.00000000000E+00  0.00000000000E+00  0.39867307821E+03  0.39867307821E+03  0.00000000000E+00 0. -1.
          2   -1    0    0  501    0  0.00000000000E+00 -0.00000000000E+00 -0.47741069969E+03  0.47741069969E+03  0.00000000000E+00 0.  1.
         23    2    1    2    0    0 -0.91583561234E+02 -0.22553467610E+03  0.31817970147E+03  0.41046934505E+03  0.89405380082E+02 0.  0.
         11    1    3    3    0    0 -0.10881755761E+03 -0.20781719566E+03  0.28633803857E+03  0.37016039765E+03  0.00000000000E+00 0. -1.
        -11    1    3    3    0    0  0.17233996378E+02 -0.17717480433E+02  0.31841662906E+02  0.40308947402E+02  0.00000000000E+00 0.  1.
         22    1    1    2    0    0  0.91583561234E+02  0.22553467610E+03 -0.39691732295E+03  0.46561443284E+03  0.00000000000E+00 0.  1.
<mgrwt>
<rscale>  0 0.87253835E+03</rscale>
<asrwt>0</asrwt>
<pdfrwt beam="1">  1        2 0.73447800E-01 0.87253835E+03</pdfrwt>
<pdfrwt beam="2">  1       -2 0.61334320E-01 0.87253835E+03</pdfrwt>
<totfact> 0.16142216E+02</totfact>
</mgrwt>
</event>
<event>
 6    1  0.1817112E-005  0.4108263E+04  0.7818608E-02  0.7983056E-01
          2   -1    0    0  501    0  0.00000000000E+00  0.00000000000E+00  0.20541628555E+04  0.20541628555E+04  0.00000000000E+00 0. -1.
         -2   -1    0    0    0  501 -0.00000000000E+00 -0.00000000000E+00 -0.20541000264E+04  0.20541000264E+04  0.00000000000E+00 0.  1.
         23    2    1    2    0    0 -0.14723025500E+04  0.26873286847E+03  0.14054567328E+04  0.20552104769E+04  0.93216539475E+02 0.  0.
         11    1    3    3    0    0 -0.99335731310E+03  0.16889771196E+03  0.10027780286E+04  0.14215656732E+04  0.00000000000E+00 0. -1.
        -11    1    3    3    0    0 -0.47894523686E+03  0.99835156505E+02  0.40267870417E+03  0.63364480364E+03  0.00000000000E+00 0.  1.
         22    1    1    2    0    0  0.14723025500E+04 -0.26873286847E+03 -0.14053939038E+04  0.20530524051E+04  0.00000000000E+00 0.  1.
<mgrwt>
<rscale>  0 0.41082629E+04</rscale>
<asrwt>0</asrwt>
<pdfrwt beam="1">  1        2 0.31602505E+00 0.41082629E+04</pdfrwt>
<pdfrwt beam="2">  1       -2 0.31601539E+00 0.41082629E+04</pdfrwt>
<totfact> 0.12350407E-01</totfact>
</mgrwt>
</event>
<event>
 6    1  0.1817112E-005  0.2913896E+04  0.7818608E-02  0.8268755E-01
          2   -1    0    0  501    0  0.00000000000E+00  0.00000000000E+00  0.41865015759E+04  0.41865015759E+04  0.00000000000E+00 0. -1.
         -2   -1    0    0    0  501 -0.00000000000E+00 -0.00000000000E+00 -0.50703381918E+03  0.50703381918E+03  0.00000000000E+00 0.  1.
         23    2    1    2    0    0 -0.10370134001E+04  0.10182440168E+04  0.17113328931E+04  0.22469515499E+04  0.88956884057E+02 0.  0.
         13    1    3    3    0    0 -0.48440894010E+03  0.50642095869E+03  0.76526922434E+03  0.10376662249E+04  0.00000000000E+00 0. -1.
        -13    1    3    3    0    0 -0.55260446001E+03  0.51182305809E+03  0.94606366871E+03  0.12092853250E+04  0.00000000000E+00 0.  1.
         22    1    1    2    0    0  0.10370134001E+04 -0.10182440168E+04  0.19681348636E+04  0.24465838451E+04  0.00000000000E+00 0. -1.
<mgrwt>
<rscale>  0 0.29138963E+04</rscale>
<asrwt>0</asrwt>
<pdfrwt beam="1">  1        2 0.64407714E+00 0.29138963E+04</pdfrwt>
<pdfrwt beam="2">  1       -2 0.78005206E-01 0.29138963E+04</pdfrwt>
<totfact> 0.30128459E-01</totfact>
</mgrwt>
</event>
<event>
 6    1  0.1817112E-005  0.3932604E+04  0.7818608E-02  0.8018282E-01
         -2   -1    0    0    0  501 -0.00000000000E+00  0.00000000000E+00  0.21859410654E+04  0.21859410654E+04  0.00000000000E+00 0.  1.
          2   -1    0    0  501    0  0.00000000000E+00 -0.00000000000E+00 -0.17687319108E+04  0.17687319108E+04  0.00000000000E+00 0. -1.
         23    2    1    2    0    0  0.62585334602E+03  0.13017589256E+04 -0.11313711409E+04  0.18370399478E+04  0.91904300779E+02 0.  0.
         13    1    3    3    0    0  0.54403734144E+02  0.14550474020E+03 -0.91455561778E+02  0.18026512555E+03  0.00000000000E+00 0.  1.
        -13    1    3    3    0    0  0.57144961188E+03  0.11562541854E+04 -0.10399155791E+04  0.16567748223E+04  0.00000000000E+00 0. -1.
         22    1    1    2    0    0 -0.62585334602E+03 -0.13017589256E+04  0.15485802955E+04  0.21176330283E+04  0.00000000000E+00 0.  1.
<mgrwt>
<rscale>  0 0.39326041E+04</rscale>
<asrwt>0</asrwt>
<pdfrwt beam="1">  1        2 0.27211260E+00 0.39326041E+04</pdfrwt>
<pdfrwt beam="2">  1       -2 0.33629862E+00 0.39326041E+04</pdfrwt>
<totfact> 0.13506957E-01</totfact>
</mgrwt>
</event>
<event>
 6    1  0.1817112E-005  0.2316830E+04  0.7818608E-02  0.8471315E-01
         -1   -1    0    0    0  501 -0.00000000000E+00  0.00000000000E+00  0.95074615432E+03  0.95074615432E+03  0.00000000000E+00 0.  1.
          1   -1    0    0  501    0  0.00000000000E+00 -0.00000000000E+00 -0.14114445912E+04  0.14114445912E+04  0.00000000000E+00 0. -1.
         23    2    1    2    0    0 -0.35377531034E+03  0.10349955660E+04 -0.61396555606E+03  0.12577163902E+04  0.92325631547E+02 0.  0.
         11    1    3    3    0    0 -0.27981022174E+03  0.69615076683E+03 -0.43867687412E+03  0.86911279488E+03  0.00000000000E+00 0.  1.
        -11    1    3    3    0    0 -0.73965088603E+02  0.33884479914E+03 -0.17528868194E+03  0.38860359527E+03  0.00000000000E+00 0. -1.
         22    1    1    2    0    0  0.35377531034E+03 -0.10349955660E+04  0.15326711920E+03  0.11044743553E+04  0.00000000000E+00 0.  1.
<mgrwt>
<rscale>  0 0.23168302E+04</rscale>
<asrwt>0</asrwt>
<pdfrwt beam="1">  1        1 0.21714532E+00 0.23168302E+04</pdfrwt>
<pdfrwt beam="2">  1       -1 0.14626864E+00 0.23168302E+04</pdfrwt>
<totfact> 0.25413384E+00</totfact>
</mgrwt>
</event>
<event>
 6    1  0.1817112E-005  0.4074714E+04  0.7818608E-02  0.7989642E-01
          2   -1    0    0  501    0  0.00000000000E+00  0.00000000000E+00  0.22646298764E+04  0.22646298764E+04  0.00000000000E+00 0. -1.
         -2   -1    0    0    0  501 -0.00000000000E+00 -0.00000000000E+00 -0.18328925738E+04  0.18328925738E+04  0.00000000000E+00 0.  1.
         23    2    1    2    0    0  0.13815395121E+04 -0.41855418906E+03  0.16602982109E+04  0.22019484110E+04  0.90264184208E+02 0.  0.
         11    1    3    3    0    0  0.93244748485E+03 -0.30637702127E+03  0.10735163823E+04  0.14545661258E+04  0.00000000000E+00 0. -1.
        -11    1    3    3    0    0  0.44909202721E+03 -0.11217716779E+03  0.58678182862E+03  0.74738228523E+03  0.00000000000E+00 0.  1.
         22    1    1    2    0    0 -0.13815395121E+04  0.41855418906E+03 -0.12285609083E+04  0.18955740392E+04  0.00000000000E+00 0.  1.
<mgrwt>
<rscale>  0 0.40747139E+04</rscale>
<asrwt>0</asrwt>
<pdfrwt beam="1">  1        2 0.34840460E+00 0.40747139E+04</pdfrwt>
<pdfrwt beam="2">  1       -2 0.28198347E+00 0.40747139E+04</pdfrwt>
<totfact> 0.15248498E-01</totfact>
</mgrwt>
</event>
<event>
 6    1  0.1817112E-005  0.3587588E+04  0.7818608E-02  0.8093341E-01
         -2   -1    0    0    0  501 -0.00000000000E+00  0.00000000000E+00  0.18482027540E+04  0.18482027540E+04  0.00000000000E+00 0.  1.
          2   -1    0    0  501    0  0.00000000000E+00 -0.00000000000E+00 -0.17409873264E+04  0.17409873264E+04  0.00000000000E+00 0. -1.
         23    2    1    2    0    0 -0.17595475529E+04  0.96924658364E+02  0.38246054192E+03  0.18056088926E+04  0.92441476826E+02 0.  0.
         11    1    3    3    0    0 -0.31516667352E+03  0.16221180208E+02  0.10511191973E+03  0.33262843302E+03  0.00000000000E+00 0.  1.
        -11    1    3    3    0    0 -0.14443808794E+04  0.80703478156E+02  0.27734862219E+03  0.14729804596E+04  0.00000000000E+00 0. -1.
         22    1    1    2    0    0  0.17595475529E+04 -0.96924658364E+02 -0.27524511427E+03  0.17835811877E+04  0.00000000000E+00 0. -1.
<mgrwt>
<rscale>  0 0.35875884E+04</rscale>
<asrwt>0</asrwt>
<pdfrwt beam="1">  1        2 0.26784420E+00 0.35875884E+04</pdfrwt>
<pdfrwt beam="2">  1       -2 0.28433889E+00 0.35875884E+04</pdfrwt>
<totfact> 0.30080253E-01</totfact>
</mgrwt>
</event>
<event>
 6    1  0.1817112E-005  0.2502912E+04  0.7818608E-02  0.8401949E-01
         -2   -1    0    0    0  501 -0.00000000000E+00  0.00000000000E+00  0.11821324543E+04  0.11821324543E+04  0.00000000000E+00 0.  1.
          2   -1    0    0  501    0  0.00000000000E+00 -0.00000000000E+00 -0.13248446569E+04  0.13248446569E+04  0.00000000000E+00 0. -1.
         23    2    1    2    0    0  0.57101670300E+03 -0.59733835995E+03 -0.10104828272E+04  0.13086870594E+04  0.93343902396E+02 0.  0.
         13    1    3    3    0    0  0.51057957576E+03 -0.49807097714E+03 -0.83455274360E+03  0.10978362735E+04  0.00000000000E+00 0.  1.
        -13    1    3    3    0    0  0.60437127242E+02 -0.99267382805E+02 -0.17593008358E+03  0.21085078598E+03  0.00000000000E+00 0. -1.
         22    1    1    2    0    0 -0.57101670300E+03  0.59733835995E+03  0.86777062456E+03  0.11982900518E+04  0.00000000000E+00 0.  1.
<mgrwt>
<rscale>  0 0.25029118E+04</rscale>
<asrwt>0</asrwt>
<pdfrwt beam="1">  1        2 0.20382225E+00 0.25029118E+04</pdfrwt>
<pdfrwt beam="2">  1       -2 0.18186653E+00 0.25029118E+04</pdfrwt>
<totfact> 0.25099716E+00</totfact>
</mgrwt>
</event>
<event>
 6    1  0.1817112E-005  0.9966055E+03  0.7818608E-02  0.9312276E-01
          2   -1    0    0  501    0  0.00000000000E+00  0.00000000000E+00  0.20989711272E+04  0.20989711272E+04  0.00000000000E+00 0. -1.
         -2   -1    0    0    0  501 -0.00000000000E+00 -0.00000000000E+00 -0.11829873280E+03  0.11829873280E+03  0.00000000000E+00 0.  1.
         23    2    1    2    0    0  0.37103261959E+03 -0.16012367596E+03  0.16308400606E+04  0.16827724716E+04  0.93696806597E+02 0.  0.
         11    1    3    3    0    0  0.23683975854E+03 -0.52586490030E+02  0.92499120971E+03  0.95627775682E+03  0.00000000000E+00 0. -1.
        -11    1    3    3    0    0  0.13419286105E+03 -0.10753718593E+03  0.70584885092E+03  0.72649471482E+03  0.00000000000E+00 0.  1.
         22    1    1    2    0    0 -0.37103261959E+03  0.16012367596E+03  0.34983233374E+03  0.53449738833E+03  0.00000000000E+00 0.  1.
<mgrwt>
<rscale>  0 0.99660549E+03</rscale>
<asrwt>0</asrwt>
<pdfrwt beam="1">  1        2 0.32291861E+00 0.99660549E+03</pdfrwt>
<pdfrwt beam="2">  1       -2 0.18199807E-01 0.99660549E+03</pdfrwt>
<totfact> 0.14885685E+02</totfact>
</mgrwt>
</event>
<event>
 6    1  0.1817112E-005  0.3074073E+04  0.7818608E-02  0.8222890E-01
          2   -1    0    0  501    0  0.00000000000E+00  0.00000000000E+00  0.23853075749E+04  0.23853075749E+04  0.00000000000E+00 0. -1.
         -2   -1    0    0    0  501 -0.00000000000E+00 -0.00000000000E+00 -0.99043017736E+03  0.99043017736E+03  0.00000000000E+00 0.  1.
         23    2    1    2    0    0  0.96480689481E+03 -0.10360326641E+04  0.44732863543E+02  0.14194386217E+04  0.92676568516E+02 0.  0.
         11    1    3    3    0    0  0.55343147240E+03 -0.53711395825E+03 -0.43023291469E+00  0.77121850593E+03  0.00000000000E+00 0. -1.
        -11    1    3    3    0    0  0.41137542240E+03 -0.49891870589E+03  0.45163096457E+02  0.64822011580E+03  0.00000000000E+00 0.  1.
         22    1    1    2    0    0 -0.96480689481E+03  0.10360326641E+04  0.13501445340E+04  0.19562991306E+04  0.00000000000E+00 0. -1.
<mgrwt>
<rscale>  0 0.30740726E+04</rscale>
<asrwt>0</asrwt>
<pdfrwt beam="1">  1        2 0.36697039E+00 0.30740726E+04</pdfrwt>
<pdfrwt beam="2">  1       -2 0.15237387E+00 0.30740726E+04</pdfrwt>
<totfact> 0.99088903E-01</totfact>
</mgrwt>
</event>
<event>
 6    1  0.1817112E-005  0.2887111E+04  0.7818608E-02  0.8276723E-01
         -2   -1    0    0    0  501 -0.00000000000E+00  0.00000000000E+00  0.19911580761E+04  0.19911580761E+04  0.00000000000E+00 0.  1.
          2   -1    0    0  501    0  0.00000000000E+00 -0.00000000000E+00 -0.10465529362E+04  0.10465529362E+04  0.00000000000E+00 0. -1.
         23    2    1    2    0    0 -0.31767433105E+03  0.13439802697E+04  0.35694444756E+02  0.13844358998E+04  0.90491554275E+02 0.  0.
         11    1    3    3    0    0 -0.10922209561E+03  0.35857181599E+03 -0.22744116507E+02  0.37552697404E+03  0.00000000000E+00 0.  1.
        -11    1    3    3    0    0 -0.20845223544E+03  0.98540845370E+03  0.58438561262E+02  0.10089089258E+04  0.00000000000E+00 0. -1.
         22    1    1    2    0    0  0.31767433105E+03 -0.13439802697E+04  0.90891069506E+03  0.16532751125E+04  0.00000000000E+00 0. -1.
<mgrwt>
<rscale>  0 0.28871109E+04</rscale>
<asrwt>0</asrwt>
<pdfrwt beam="1">  1        2 0.16100814E+00 0.28871109E+04</pdfrwt>
<pdfrwt beam="2">  1       -2 0.30633201E+00 0.28871109E+04</pdfrwt>
<totfact> 0.59074333E-01</totfact>
</mgrwt>
</event>
<event>
 6    1  0.1817112E-005  0.5795878E+04  0.7818608E-02  0.7716239E-01
          2   -1    0    0  501    0  0.00000000000E+00  0.00000000000E+00  0.20292460777E+04  0.20292460777E+04  0.00000000000E+00 0. -1.
         -2   -1    0    0    0  501 -0.00000000000E+00 -0.00000000000E+00 -0.41385072603E+04  0.41385072603E+04  0.00000000000E+00 0.  1.
         23    2    1    2    0    0 -0.22279041503E+04 -0.13285290045E+04  0.31836464456E+03  0.26150201119E+04  0.91803702325E+02 0.  0.
         13    1    3    3    0    0 -0.16847706534E+04 -0.98980593798E+03  0.20196111825E+03  0.19644226232E+04  0.00000000000E+00 0.  1.
        -13    1    3    3    0    0 -0.54313349691E+03 -0.33872306657E+03  0.11640352631E+03  0.65059748864E+03  0.00000000000E+00 0. -1.
         22    1    1    2    0    0  0.22279041503E+04  0.13285290045E+04 -0.24276258272E+04  0.35527332261E+04  0.00000000000E+00 0. -1.
<mgrwt>
<rscale>  0 0.57958777E+04</rscale>
<asrwt>0</asrwt>
<pdfrwt beam="1">  1        2 0.31219170E+00 0.57958777E+04</pdfrwt>
<pdfrwt beam="2">  1       -2 0.63669342E+00 0.57958777E+04</pdfrwt>
<totfact> 0.16719578E-03</totfact>
</mgrwt>
</event>
<event>
 6    1  0.1817112E-005  0.6597454E+04  0.7818608E-02  0.7620438E-01
          2   -1    0    0  501    0  0.00000000000E+00  0.00000000000E+00  0.37698345577E+04  0.37698345577E+04  0.00000000000E+00 0. -1.
         -2   -1    0    0    0  501 -0.00000000000E+00 -0.00000000000E+00 -0.28864929520E+04  0.28864929520E+04  0.00000000000E+00 0.  1.
         23    2    1    2    0    0 -0.34394802004E+03  0.32653804123E+04  0.75534549331E+03  0.33703889098E+04  0.89247475868E+02 0.  0.
         11    1    3    3    0    0 -0.10539111452E+03  0.10572713859E+04  0.28693208122E+03  0.11005726190E+04  0.00000000000E+00 0. -1.
        -11    1    3    3    0    0 -0.23855690552E+03  0.22081090263E+04  0.46841341209E+03  0.22698162908E+04  0.00000000000E+00 0.  1.
         22    1    1    2    0    0  0.34394802004E+03 -0.32653804123E+04  0.12799611233E+03  0.32859385999E+04  0.00000000000E+00 0.  1.
<mgrwt>
<rscale>  0 0.65974543E+04</rscale>
<asrwt>0</asrwt>
<pdfrwt beam="1">  1        2 0.57997454E+00 0.65974543E+04</pdfrwt>
<pdfrwt beam="2">  1       -2 0.44407584E+00 0.65974543E+04</pdfrwt>
<totfact> 0.12657665E-03</totfact>
</mgrwt>
</event>
<event>
 6    1  0.1817112E-005  0.1566788E+04  0.7818608E-02  0.8841215E-01
         -2   -1    0    0    0  501 -0.00000000000E+00  0.00000000000E+00  0.52049387973E+03  0.52049387973E+03  0.00000000000E+00 0.  1.
          2   -1    0    0  501    0  0.00000000000E+00 -0.00000000000E+00 -0.11790847593E+04  0.11790847593E+04  0.00000000000E+00 0. -1.
         23    2    1    2    0    0 -0.34340784801E+03  0.70113268093E+03 -0.33290901559E+03  0.85365626500E+03  0.91567569421E+02 0.  0.
         11    1    3    3    0    0 -0.32452116628E+03  0.62872891273E+03 -0.32434787361E+03  0.77834155496E+03  0.00000000000E+00 0.  1.
        -11    1    3    3    0    0 -0.18886681735E+02  0.72403768196E+02 -0.85611419827E+01  0.75314710038E+02  0.00000000000E+00 0. -1.
         22    1    1    2    0    0  0.34340784801E+03 -0.70113268093E+03 -0.32568186395E+03  0.84592237401E+03  0.00000000000E+00 0.  1.
<mgrwt>
<rscale>  0 0.15667883E+04</rscale>
<asrwt>0</asrwt>
<pdfrwt beam="1">  1        2 0.18139765E+00 0.15667883E+04</pdfrwt>
<pdfrwt beam="2">  1       -2 0.80075982E-01 0.15667883E+04</pdfrwt>
<totfact> 0.25856855E+01</totfact>
</mgrwt>
</event>
<event>
 6    1  0.1817112E-005  0.3618388E+04  0.7818608E-02  0.8086293E-01
         -2   -1    0    0    0  501 -0.00000000000E+00  0.00000000000E+00  0.16084396195E+04  0.16084396195E+04  0.00000000000E+00 0.  1.
          2   -1    0    0  501    0  0.00000000000E+00 -0.00000000000E+00 -0.20350051891E+04  0.20350051891E+04  0.00000000000E+00 0. -1.
         23    2    1    2    0    0  0.12872680395E+04  0.11933325259E+04  0.22301186051E+03  0.17718005153E+04  0.91876293753E+02 0.  0.
         13    1    3    3    0    0  0.74377194656E+03  0.64514576678E+03  0.15720359767E+03  0.99705703949E+03  0.00000000000E+00 0. -1.
        -13    1    3    3    0    0  0.54349609297E+03  0.54818675910E+03  0.65808262834E+02  0.77474347585E+03  0.00000000000E+00 0.  1.
         22    1    1    2    0    0 -0.12872680395E+04 -0.11933325259E+04 -0.64957743014E+03  0.18716442933E+04  0.00000000000E+00 0. -1.
<mgrwt>
<rscale>  0 0.36183880E+04</rscale>
<asrwt>0</asrwt>
<pdfrwt beam="1">  1        2 0.31307772E+00 0.36183880E+04</pdfrwt>
<pdfrwt beam="2">  1       -2 0.24745225E+00 0.36183880E+04</pdfrwt>
<totfact> 0.34638480E-01</totfact>
</mgrwt>
</event>
<event>
 6    1  0.1817112E-005  0.3379697E+04  0.7818608E-02  0.8142907E-01
          2   -1    0    0  501    0  0.00000000000E+00  0.00000000000E+00  0.16504506451E+04  0.16504506451E+04  0.00000000000E+00 0. -1.
         -2   -1    0    0    0  501 -0.00000000000E+00 -0.00000000000E+00 -0.17301867767E+04  0.17301867767E+04  0.00000000000E+00 0.  1.
         23    2    1    2    0    0  0.11515740400E+04 -0.12207807587E+04  0.14731808858E+03  0.16871256712E+04  0.90895439419E+02 0.  0.
         13    1    3    3    0    0  0.40660071289E+03 -0.49509742820E+03  0.60204302786E+02  0.64348283676E+03  0.00000000000E+00 0.  1.
        -13    1    3    3    0    0  0.74497332714E+03 -0.72568333046E+03  0.87113785791E+02  0.10436428345E+04  0.00000000000E+00 0. -1.
         22    1    1    2    0    0 -0.11515740400E+04  0.12207807587E+04 -0.22705422027E+03  0.16935117506E+04  0.00000000000E+00 0. -1.
<mgrwt>
<rscale>  0 0.33796970E+04</rscale>
<asrwt>0</asrwt>
<pdfrwt beam="1">  1        2 0.25391549E+00 0.33796970E+04</pdfrwt>
<pdfrwt beam="2">  1       -2 0.26618258E+00 0.33796970E+04</pdfrwt>
<totfact> 0.44351292E-01</totfact>
</mgrwt>
</event>
<event>
 6    1  0.1817112E-005  0.3405842E+04  0.7818608E-02  0.8136474E-01
         -2   -1    0    0    0  501 -0.00000000000E+00  0.00000000000E+00  0.18117137176E+04  0.18117137176E+04  0.00000000000E+00 0.  1.
          2   -1    0    0  501    0  0.00000000000E+00 -0.00000000000E+00 -0.16006610940E+04  0.16006610940E+04  0.00000000000E+00 0. -1.
         23    2    1    2    0    0  0.14883704302E+04 -0.37422993594E+03 -0.63101618235E+03  0.16618393346E+04  0.90741222434E+02 0.  0.
         13    1    3    3    0    0  0.70972439623E+03 -0.20383431168E+03 -0.26233107212E+03  0.78362920864E+03  0.00000000000E+00 0.  1.
        -13    1    3    3    0    0  0.77864603392E+03 -0.17039562426E+03 -0.36868511022E+03  0.87821012600E+03  0.00000000000E+00 0. -1.
         22    1    1    2    0    0 -0.14883704302E+04  0.37422993594E+03  0.84206880597E+03  0.17505354770E+04  0.00000000000E+00 0.  1.
<mgrwt>
<rscale>  0 0.34058418E+04</rscale>
<asrwt>0</asrwt>
<pdfrwt beam="1">  1        2 0.24625555E+00 0.34058418E+04</pdfrwt>
<pdfrwt beam="2">  1       -2 0.27872519E+00 0.34058418E+04</pdfrwt>
<totfact> 0.39555639E-01</totfact>
</mgrwt>
</event>
<event>
 6    1  0.1817112E-005  0.3437816E+04  0.7818608E-02  0.8128687E-01
          2   -1    0    0  501    0  0.00000000000E+00  0.00000000000E+00  0.16770386903E+04  0.16770386903E+04  0.00000000000E+00 0.  1.
         -2   -1    0    0    0  501 -0.00000000000E+00 -0.00000000000E+00 -0.17618228132E+04  0.17618228132E+04  0.00000000000E+00 0. -1.
         23    2    1    2    0    0  0.42145290432E+03 -0.14884992157E+04 -0.78915166951E+03  0.17390420700E+04  0.90854268045E+02 0.  0.
         13    1    3    3    0    0  0.27396914183E+03 -0.80434927591E+03 -0.44184797489E+03  0.95774029948E+03  0.00000000000E+00 0.  1.
        -13    1    3    3    0    0  0.14748376249E+03 -0.68414993982E+03 -0.34730369462E+03  0.78130177054E+03  0.00000000000E+00 0. -1.
         22    1    1    2    0    0 -0.42145290432E+03  0.14884992157E+04  0.70436754664E+03  0.16998194335E+04  0.00000000000E+00 0.  1.
<mgrwt>
<rscale>  0 0.34378162E+04</rscale>
<asrwt>0</asrwt>
<pdfrwt beam="1">  1        2 0.25800595E+00 0.34378162E+04</pdfrwt>
<pdfrwt beam="2">  1       -2 0.27104967E+00 0.34378162E+04</pdfrwt>
<totfact> 0.39836281E-01</totfact>
</mgrwt>
</event>
<event>
 6    1  0.1817112E-005  0.3334790E+04  0.7818608E-02  0.8154099E-01
         -2   -1    0    0    0  501 -0.00000000000E+00  0.00000000000E+00  0.79329099341E+03  0.79329099341E+03  0.00000000000E+00 0.  1.
          2   -1    0    0  501    0  0.00000000000E+00 -0.00000000000E+00 -0.35046477230E+04  0.35046477230E+04  0.00000000000E+00 0. -1.
         23    2    1    2    0    0  0.10635142610E+04  0.69216990127E+03  0.34899892549E+02  0.12726970417E+04  0.91531426388E+02 0.  0.
         11    1    3    3    0    0  0.50271388555E+03  0.28238474324E+03 -0.99972048045E+01  0.57668218114E+03  0.00000000000E+00 0.  1.
        -11    1    3    3    0    0  0.56080037543E+03  0.40978515802E+03  0.44897097353E+02  0.69601486059E+03  0.00000000000E+00 0. -1.
         22    1    1    2    0    0 -0.10635142610E+04 -0.69216990127E+03 -0.27462566221E+04  0.30252416747E+04  0.00000000000E+00 0. -1.
<mgrwt>
<rscale>  0 0.33347896E+04</rscale>
<asrwt>0</asrwt>
<pdfrwt beam="1">  1        2 0.53917656E+00 0.33347896E+04</pdfrwt>
<pdfrwt beam="2">  1       -2 0.12204477E+00 0.33347896E+04</pdfrwt>
<totfact> 0.34162654E-01</totfact>
</mgrwt>
</event>
<event>
 6    1  0.1817112E-005  0.1849608E+04  0.7818608E-02  0.8680354E-01
         -2   -1    0    0    0  501 -0.00000000000E+00  0.00000000000E+00  0.56444610137E+03  0.56444610137E+03  0.00000000000E+00 0.  1.
          2   -1    0    0  501    0  0.00000000000E+00 -0.00000000000E+00 -0.15152244087E+04  0.15152244087E+04  0.00000000000E+00 0. -1.
         23    2    1    2    0    0 -0.65207672556E+03  0.25661881743E+02 -0.12105204655E+04  0.13772969792E+04  0.75660977102E+02 0.  0.
         11    1    3    3    0    0 -0.62632563590E+03  0.92405916898E+01 -0.11563442576E+04  0.13151050272E+04  0.00000000000E+00 0.  1.
        -11    1    3    3    0    0 -0.25751089659E+02  0.16421290053E+02 -0.54176207909E+02  0.62191951963E+02  0.00000000000E+00 0. -1.
         22    1    1    2    0    0  0.65207672556E+03 -0.25661881743E+02  0.25974215810E+03  0.70237353088E+03  0.00000000000E+00 0.  1.
<mgrwt>
<rscale>  0 0.18496081E+04</rscale>
<asrwt>0</asrwt>
<pdfrwt beam="1">  1        2 0.23311144E+00 0.18496081E+04</pdfrwt>
<pdfrwt beam="2">  1       -2 0.86837863E-01 0.18496081E+04</pdfrwt>
<totfact> 0.13428047E+01</totfact>
</mgrwt>
</event>
<event>
 6    1  0.1817112E-005  0.1346963E+04  0.7818608E-02  0.8993130E-01
         -2   -1    0    0    0  501 -0.00000000000E+00  0.00000000000E+00  0.91623547240E+03  0.91623547240E+03  0.00000000000E+00 0. -1.
          2   -1    0    0  501    0  0.00000000000E+00 -0.00000000000E+00 -0.49504426896E+03  0.49504426896E+03  0.00000000000E+00 0.  1.
         23    2    1    2    0    0 -0.21562126253E+03  0.43966406378E+02  0.87491634501E+03  0.90700592900E+03  0.93571206792E+02 0.  0.
         13    1    3    3    0    0 -0.35177457149E+02 -0.25477664134E+02  0.21526879536E+03  0.21960696510E+03  0.00000000000E+00 0.  1.
        -13    1    3    3    0    0 -0.18044380538E+03  0.69444070512E+02  0.65964754964E+03  0.68739896390E+03  0.00000000000E+00 0. -1.
         22    1    1    2    0    0  0.21562126253E+03 -0.43966406378E+02 -0.45372514156E+03  0.50427381236E+03  0.00000000000E+00 0.  1.
<mgrwt>
<rscale>  0 0.13469627E+04</rscale>
<asrwt>0</asrwt>
<pdfrwt beam="1">  1        2 0.76160657E-01 0.13469627E+04</pdfrwt>
<pdfrwt beam="2">  1       -2 0.14095930E+00 0.13469627E+04</pdfrwt>
<totfact> 0.21458423E+01</totfact>
</mgrwt>
</event>
<event>
 6    1  0.1817112E-005  0.1260889E+04  0.7818608E-02  0.9061169E-01
         -1   -1    0    0    0  501 -0.00000000000E+00  0.00000000000E+00  0.19979892067E+03  0.19979892067E+03  0.00000000000E+00 0.  1.
          1   -1    0    0  501    0  0.00000000000E+00 -0.00000000000E+00 -0.19893011978E+04  0.19893011978E+04  0.00000000000E+00 0. -1.
         23    2    1    2    0    0  0.57517925301E+03  0.11448750576E+03 -0.51378228019E+03  0.78503456705E+03  0.91479385439E+02 0.  0.
         11    1    3    3    0    0  0.28860009746E+03  0.95880012554E+02 -0.29840950649E+03  0.42606481505E+03  0.00000000000E+00 0. -1.
        -11    1    3    3    0    0  0.28657915556E+03  0.18607493207E+02 -0.21537277370E+03  0.35896975200E+03  0.00000000000E+00 0.  1.
         22    1    1    2    0    0 -0.57517925301E+03 -0.11448750576E+03 -0.12757199969E+04  0.14040655514E+04  0.00000000000E+00 0. -1.
<mgrwt>
<rscale>  0 0.12608889E+04</rscale>
<asrwt>0</asrwt>
<pdfrwt beam="1">  1        1 0.30604634E+00 0.12608889E+04</pdfrwt>
<pdfrwt beam="2">  1       -1 0.30738296E-01 0.12608889E+04</pdfrwt>
<totfact> 0.29232538E+01</totfact>
</mgrwt>
</event>
<event>
 6    1  0.1817112E-005  0.2476121E+04  0.7818608E-02  0.8411542E-01
          2   -1    0    0  501    0  0.00000000000E+00  0.00000000000E+00  0.87618219465E+03  0.87618219465E+03  0.00000000000E+00 0. -1.
         -2   -1    0    0    0  501 -0.00000000000E+00 -0.00000000000E+00 -0.17494009865E+04  0.17494009865E+04  0.00000000000E+00 0.  1.
         23    2    1    2    0    0  0.72885986674E+03 -0.99807313591E+03 -0.46971131199E+03  0.13255043465E+04  0.94585231762E+02 0.  0.
         11    1    3    3    0    0  0.22837606977E+03 -0.33108060645E+03 -0.19925918664E+03  0.44885879814E+03  0.00000000000E+00 0.  1.
        -11    1    3    3    0    0  0.50048379697E+03 -0.66699252947E+03 -0.27045212535E+03  0.87664554838E+03  0.00000000000E+00 0. -1.
         22    1    1    2    0    0 -0.72885986674E+03  0.99807313591E+03 -0.40350747987E+03  0.13000788346E+04  0.00000000000E+00 0.  1.
<mgrwt>
<rscale>  0 0.24761212E+04</rscale>
<asrwt>0</asrwt>
<pdfrwt beam="1">  1        2 0.13479726E+00 0.24761212E+04</pdfrwt>
<pdfrwt beam="2">  1       -2 0.26913861E+00 0.24761212E+04</pdfrwt>
<totfact> 0.13344188E+00</totfact>
</mgrwt>
</event>
<event>
 6    1  0.1817112E-005  0.1501548E+04  0.7818608E-02  0.8883424E-01
         -2   -1    0    0    0  501 -0.00000000000E+00  0.00000000000E+00  0.50256189707E+03  0.50256189707E+03  0.00000000000E+00 0.  1.
          2   -1    0    0  501    0  0.00000000000E+00 -0.00000000000E+00 -0.11215759900E+04  0.11215759900E+04  0.00000000000E+00 0. -1.
         23    2    1    2    0    0 -0.27348423856E+03  0.27170999583E+03 -0.10039848325E+04  0.10793237711E+04  0.91292432705E+02 0.  0.
         13    1    3    3    0    0 -0.48302704894E+02  0.43079382824E+02 -0.28039328274E+03  0.28776618553E+03  0.00000000000E+00 0. -1.
        -13    1    3    3    0    0 -0.22518153367E+03  0.22863061301E+03 -0.72359154979E+03  0.79155758555E+03  0.00000000000E+00 0.  1.
         22    1    1    2    0    0  0.27348423856E+03 -0.27170999583E+03  0.38497073964E+03  0.54481411597E+03  0.00000000000E+00 0.  1.
<mgrwt>
<rscale>  0 0.15015477E+04</rscale>
<asrwt>0</asrwt>
<pdfrwt beam="1">  1        2 0.17255015E+00 0.15015477E+04</pdfrwt>
<pdfrwt beam="2">  1       -2 0.77317216E-01 0.15015477E+04</pdfrwt>
<totfact> 0.30465654E+01</totfact>
</mgrwt>
</event>
<event>
 6    1  0.1817112E-005  0.2836258E+04  0.7818608E-02  0.8292099E-01
         -2   -1    0    0    0  501 -0.00000000000E+00  0.00000000000E+00  0.55955371880E+03  0.55955371880E+03  0.00000000000E+00 0.  1.
          2   -1    0    0  501    0  0.00000000000E+00 -0.00000000000E+00 -0.35940965382E+04  0.35940965382E+04  0.00000000000E+00 0. -1.
         23    2    1    2    0    0  0.11124709755E+04  0.69054225809E+03 -0.23109120828E+04  0.26576282904E+04  0.90736949255E+02 0.  0.
         13    1    3    3    0    0  0.66528863489E+03  0.40125863473E+03 -0.14580476546E+04  0.16521260312E+04  0.00000000000E+00 0. -1.
        -13    1    3    3    0    0  0.44718234064E+03  0.28928362336E+03 -0.85286442816E+03  0.10055022592E+04  0.00000000000E+00 0.  1.
         22    1    1    2    0    0 -0.11124709755E+04 -0.69054225809E+03 -0.72363073663E+03  0.14960219666E+04  0.00000000000E+00 0.  1.
<mgrwt>
<rscale>  0 0.28362582E+04</rscale>
<asrwt>0</asrwt>
<pdfrwt beam="1">  1        2 0.55293793E+00 0.28362582E+04</pdfrwt>
<pdfrwt beam="2">  1       -2 0.86085187E-01 0.28362582E+04</pdfrwt>
<totfact> 0.70784874E-01</totfact>
</mgrwt>
</event>
<event>
 6    1  0.1817112E-005  0.4354971E+04  0.7818608E-02  0.7936531E-01
          2   -1    0    0  501    0  0.00000000000E+00  0.00000000000E+00  0.19714166492E+04  0.19714166492E+04  0.00000000000E+00 0.  1.
         -2   -1    0    0    0  501 -0.00000000000E+00 -0.00000000000E+00 -0.24050943070E+04  0.24050943070E+04  0.00000000000E+00 0. -1.
         23    2    1    2    0    0  0.88461687211E+02  0.58859204888E+03 -0.23209765910E+04  0.23975811106E+04  0.84833812816E+02 0.  0.
         11    1    3    3    0    0  0.10506772798E+03  0.52517149160E+03 -0.20798620229E+04  0.21477128200E+04  0.00000000000E+00 0. -1.
        -11    1    3    3    0    0 -0.16606040764E+02  0.63420557272E+02 -0.24111456813E+03  0.24986829058E+03  0.00000000000E+00 0.  1.
         22    1    1    2    0    0 -0.88461687211E+02 -0.58859204888E+03  0.18872989332E+04  0.19789298455E+04  0.00000000000E+00 0.  1.
<mgrwt>
<rscale>  0 0.43549709E+04</rscale>
<asrwt>0</asrwt>
<pdfrwt beam="1">  1        2 0.30329487E+00 0.43549709E+04</pdfrwt>
<pdfrwt beam="2">  1       -2 0.37001451E+00 0.43549709E+04</pdfrwt>
<totfact> 0.61662752E-02</totfact>
</mgrwt>
</event>
<event>
 6    1  0.1817112E-005  0.4877793E+04  0.7818608E-02  0.7847640E-01
          2   -1    0    0  501    0  0.00000000000E+00  0.00000000000E+00  0.22741742366E+04  0.22741742366E+04  0.00000000000E+00 0. -1.
         -2   -1    0    0    0  501 -0.00000000000E+00 -0.00000000000E+00 -0.26155494400E+04  0.26155494400E+04  0.00000000000E+00 0.  1.
         23    2    1    2    0    0  0.93529762609E+03  0.57464644329E+03  0.20115115405E+04  0.22933654166E+04  0.91356840853E+02 0.  0.
         13    1    3    3    0    0  0.15483912527E+03  0.11651207718E+03  0.41987702802E+03  0.46243587394E+03  0.00000000000E+00 0.  1.
        -13    1    3    3    0    0  0.78045850082E+03  0.45813436611E+03  0.15916345125E+04  0.18309295427E+04  0.00000000000E+00 0. -1.
         22    1    1    2    0    0 -0.93529762609E+03 -0.57464644329E+03 -0.23528867440E+04  0.25963582600E+04  0.00000000000E+00 0.  1.
<mgrwt>
<rscale>  0 0.48777926E+04</rscale>
<asrwt>0</asrwt>
<pdfrwt beam="1">  1        2 0.34987296E+00 0.48777926E+04</pdfrwt>
<pdfrwt beam="2">  1       -2 0.40239222E+00 0.48777926E+04</pdfrwt>
<totfact> 0.24694491E-02</totfact>
</mgrwt>
</event>
<event>
 6    1  0.1817112E-005  0.3001749E+04  0.7818608E-02  0.8243232E-01
         -2   -1    0    0    0  501 -0.00000000000E+00  0.00000000000E+00  0.49819802277E+03  0.49819802277E+03  0.00000000000E+00 0.  1.
          2   -1    0    0  501    0  0.00000000000E+00 -0.00000000000E+00 -0.45215442981E+04  0.45215442981E+04  0.00000000000E+00 0. -1.
         23    2    1    2    0    0 -0.11708127575E+04  0.17824916729E+03 -0.35519442225E+04  0.37450677843E+04  0.81545513669E+02 0.  0.
         11    1    3    3    0    0 -0.46786970406E+03  0.63253528234E+02 -0.15409826844E+04  0.16116856711E+04  0.00000000000E+00 0. -1.
        -11    1    3    3    0    0 -0.70294305342E+03  0.11499563905E+03 -0.20109615381E+04  0.21333821133E+04  0.00000000000E+00 0.  1.
         22    1    1    2    0    0  0.11708127575E+04 -0.17824916729E+03 -0.47140205286E+03  0.12746745366E+04  0.00000000000E+00 0.  1.
<mgrwt>
<rscale>  0 0.30017491E+04</rscale>
<asrwt>0</asrwt>
<pdfrwt beam="1">  1        2 0.69562217E+00 0.30017491E+04</pdfrwt>
<pdfrwt beam="2">  1       -2 0.76645853E-01 0.30017491E+04</pdfrwt>
<totfact> 0.15251891E-01</totfact>
</mgrwt>
</event>
<event>
 6    1  0.1817112E-005  0.1084637E+04  0.7818608E-02  0.9220297E-01
          2   -1    0    0  501    0  0.00000000000E+00  0.00000000000E+00  0.31528766185E+03  0.31528766185E+03  0.00000000000E+00 0. -1.
         -2   -1    0    0    0  501 -0.00000000000E+00 -0.00000000000E+00 -0.93282792925E+03  0.93282792925E+03  0.00000000000E+00 0.  1.
         23    2    1    2    0    0  0.35558317483E+03 -0.18401756141E+03 -0.72543955348E+03  0.83345414719E+03  0.89896677246E+02 0.  0.
         11    1    3    3    0    0  0.21985370672E+03 -0.98186617235E+02 -0.34706028883E+03  0.42240633073E+03  0.00000000000E+00 0.  1.
        -11    1    3    3    0    0  0.13572946811E+03 -0.85830944177E+02 -0.37837926466E+03  0.41104781645E+03  0.00000000000E+00 0. -1.
         22    1    1    2    0    0 -0.35558317483E+03  0.18401756141E+03  0.10789928608E+03  0.41466144391E+03  0.00000000000E+00 0. -1.
<mgrwt>
<rscale>  0 0.10846366E+04</rscale>
<asrwt>0</asrwt>
<pdfrwt beam="1">  1        2 0.48505795E-01 0.10846366E+04</pdfrwt>
<pdfrwt beam="2">  1       -2 0.14351199E+00 0.10846366E+04</pdfrwt>
<totfact> 0.34715018E+01</totfact>
</mgrwt>
</event>
<event>
 6    1  0.1817112E-005  0.2945742E+04  0.7818608E-02  0.8259397E-01
          2   -1    0    0  501    0  0.00000000000E+00  0.00000000000E+00  0.23617438646E+04  0.23617438646E+04  0.00000000000E+00 0. -1.
         -2   -1    0    0    0  501 -0.00000000000E+00 -0.00000000000E+00 -0.91853683243E+03  0.91853683243E+03  0.00000000000E+00 0.  1.
         23    2    1    2    0    0 -0.10099022019E+04  0.58920789272E+03  0.17169833878E+04  0.20794385379E+04  0.94679885759E+02 0.  0.
         13    1    3    3    0    0 -0.35350815842E+03  0.25438178110E+03  0.67189555088E+03  0.80070078052E+03  0.00000000000E+00 0. -1.
        -13    1    3    3    0    0 -0.65639404348E+03  0.33482611161E+03  0.10450878369E+04  0.12787377574E+04  0.00000000000E+00 0.  1.
         22    1    1    2    0    0  0.10099022019E+04 -0.58920789272E+03 -0.27377635562E+03  0.12008421591E+04  0.00000000000E+00 0.  1.
<mgrwt>
<rscale>  0 0.29457418E+04</rscale>
<asrwt>0</asrwt>
<pdfrwt beam="1">  1        2 0.36334521E+00 0.29457418E+04</pdfrwt>
<pdfrwt beam="2">  1       -2 0.14131336E+00 0.29457418E+04</pdfrwt>
<totfact> 0.12600059E+00</totfact>
</mgrwt>
</event>
<event>
 6    1  0.1817112E-005  0.1827719E+04  0.7818608E-02  0.8691696E-01
          2   -1    0    0  501    0  0.00000000000E+00  0.00000000000E+00  0.97652638608E+03  0.97652638608E+03  0.00000000000E+00 0. -1.
         -2   -1    0    0    0  501 -0.00000000000E+00 -0.00000000000E+00 -0.85521416461E+03  0.85521416461E+03  0.00000000000E+00 0.  1.
         23    2    1    2    0    0 -0.45321328812E+03  0.59756412125E+03 -0.45835969605E+03  0.88384567492E+03  0.92759919088E+02 0.  0.
         13    1    3    3    0    0 -0.17349973351E+03  0.30498783960E+03 -0.21781859701E+03  0.41299477119E+03  0.00000000000E+00 0.  1.
        -13    1    3    3    0    0 -0.27971355461E+03  0.29257628165E+03 -0.24054109904E+03  0.47085090374E+03  0.00000000000E+00 0. -1.
         22    1    1    2    0    0  0.45321328812E+03 -0.59756412125E+03  0.57967191753E+03  0.94789487577E+03  0.00000000000E+00 0. -1.
<mgrwt>
<rscale>  0 0.18277190E+04</rscale>
<asrwt>0</asrwt>
<pdfrwt beam="1">  1        2 0.15023483E+00 0.18277190E+04</pdfrwt>
<pdfrwt beam="2">  1       -2 0.13157141E+00 0.18277190E+04</pdfrwt>
<totfact> 0.10350747E+01</totfact>
</mgrwt>
</event>
<event>
 6    1  0.1817112E-005  0.2236319E+04  0.7818608E-02  0.8503462E-01
         -2   -1    0    0    0  501 -0.00000000000E+00  0.00000000000E+00  0.74349028967E+03  0.74349028967E+03  0.00000000000E+00 0.  1.
          2   -1    0    0  501    0  0.00000000000E+00 -0.00000000000E+00 -0.16816372957E+04  0.16816372957E+04  0.00000000000E+00 0. -1.
         23    2    1    2    0    0 -0.91548733025E+03 -0.56164395271E+02  0.22021525534E+03  0.94760444859E+03  0.90487243094E+02 0.  0.
         13    1    3    3    0    0 -0.40972857965E+03 -0.41606242337E+02  0.55832533351E+02  0.41560300789E+03  0.00000000000E+00 0. -1.
        -13    1    3    3    0    0 -0.50575875060E+03 -0.14558152934E+02  0.16438272199E+03  0.53200144070E+03  0.00000000000E+00 0.  1.
         22    1    1    2    0    0  0.91548733025E+03  0.56164395271E+02 -0.11583622613E+04  0.14775231367E+04  0.00000000000E+00 0. -1.
<mgrwt>
<rscale>  0 0.22363193E+04</rscale>
<asrwt>0</asrwt>
<pdfrwt beam="1">  1        2 0.25871343E+00 0.22363193E+04</pdfrwt>
<pdfrwt beam="2">  1       -2 0.11438312E+00 0.22363193E+04</pdfrwt>
<totfact> 0.54673575E+00</totfact>
</mgrwt>
</event>
<event>
 6    1  0.1817112E-005  0.1508739E+04  0.7818608E-02  0.8878662E-01
          2   -1    0    0  501    0  0.00000000000E+00  0.00000000000E+00  0.17359496917E+04  0.17359496917E+04  0.00000000000E+00 0. -1.
         -2   -1    0    0    0  501 -0.00000000000E+00 -0.00000000000E+00 -0.32781667337E+03  0.32781667337E+03  0.00000000000E+00 0.  1.
         23    2    1    2    0    0  0.73260504515E+03  0.95209532231E+02  0.89567513047E+03  0.11646623143E+04  0.91811545702E+02 0.  0.
         13    1    3    3    0    0  0.16840203888E+03  0.35488498409E+02  0.15460032254E+03  0.23134377006E+03  0.00000000000E+00 0. -1.
        -13    1    3    3    0    0  0.56420300627E+03  0.59721033822E+02  0.74107480793E+03  0.93331854429E+03  0.00000000000E+00 0.  1.
         22    1    1    2    0    0 -0.73260504515E+03 -0.95209532231E+02  0.51245788786E+03  0.89910405072E+03  0.00000000000E+00 0. -1.
<mgrwt>
<rscale>  0 0.15087389E+04</rscale>
<asrwt>0</asrwt>
<pdfrwt beam="1">  1        2 0.26706918E+00 0.15087389E+04</pdfrwt>
<pdfrwt beam="2">  1       -2 0.50433335E-01 0.15087389E+04</pdfrwt>
<totfact> 0.33619031E+01</totfact>
</mgrwt>
</event>
<event>
 6    1  0.1817112E-005  0.3063603E+04  0.7818608E-02  0.8225798E-01
         -2   -1    0    0    0  501 -0.00000000000E+00  0.00000000000E+00  0.68143348415E+03  0.68143348415E+03  0.00000000000E+00 0.  1.
          2   -1    0    0  501    0  0.00000000000E+00 -0.00000000000E+00 -0.34433525489E+04  0.34433525489E+04  0.00000000000E+00 0. -1.
         23    2    1    2    0    0 -0.21041489610E+03  0.13244733315E+04 -0.38954040654E+03  0.13995916304E+04  0.92795309207E+02 0.  0.
         13    1    3    3    0    0 -0.94918403009E+02  0.80002792423E+03 -0.19980146144E+03  0.83004506310E+03  0.00000000000E+00 0. -1.
        -13    1    3    3    0    0 -0.11549649309E+03  0.52444540722E+03 -0.18973894510E+03  0.56954656733E+03  0.00000000000E+00 0.  1.
         22    1    1    2    0    0  0.21041489610E+03 -0.13244733315E+04 -0.23723786582E+04  0.27251944027E+04  0.00000000000E+00 0.  1.
<mgrwt>
<rscale>  0 0.30636029E+04</rscale>
<asrwt>0</asrwt>
<pdfrwt beam="1">  1        2 0.52974652E+00 0.30636029E+04</pdfrwt>
<pdfrwt beam="2">  1       -2 0.10483593E+00 0.30636029E+04</pdfrwt>
<totfact> 0.55880338E-01</totfact>
</mgrwt>
</event>
<event>
 6    1  0.1817112E-005  0.2794743E+04  0.7818608E-02  0.8304902E-01
          2   -1    0    0  501    0  0.00000000000E+00  0.00000000000E+00  0.13838234269E+04  0.13838234269E+04  0.00000000000E+00 0. -1.
         -2   -1    0    0    0  501 -0.00000000000E+00 -0.00000000000E+00 -0.14110526039E+04  0.14110526039E+04  0.00000000000E+00 0.  1.
         23    2    1    2    0    0 -0.10505547412E+04 -0.11693306457E+02 -0.93277185287E+03  0.14078614182E+04  0.90600473362E+02 0.  0.
         13    1    3    3    0    0 -0.10267849414E+04 -0.20802951610E+02 -0.89468182287E+03  0.13620483262E+04  0.00000000000E+00 0.  1.
        -13    1    3    3    0    0 -0.23769799770E+02  0.91096451537E+01 -0.38090030002E+02  0.45813092031E+02  0.00000000000E+00 0. -1.
         22    1    1    2    0    0  0.10505547412E+04  0.11693306457E+02  0.90554267589E+03  0.13870146126E+04  0.00000000000E+00 0. -1.
<mgrwt>
<rscale>  0 0.27947434E+04</rscale>
<asrwt>0</asrwt>
<pdfrwt beam="1">  1        2 0.21289591E+00 0.27947434E+04</pdfrwt>
<pdfrwt beam="2">  1       -2 0.21708502E+00 0.27947434E+04</pdfrwt>
<totfact> 0.13274345E+00</totfact>
</mgrwt>
</event>
<event>
 6    1  0.1817112E-005  0.1733334E+04  0.7818608E-02  0.8742578E-01
         -2   -1    0    0    0  501 -0.00000000000E+00  0.00000000000E+00  0.33210020478E+03  0.33210020478E+03  0.00000000000E+00 0. -1.
          2   -1    0    0  501    0  0.00000000000E+00 -0.00000000000E+00 -0.22617025102E+04  0.22617025102E+04  0.00000000000E+00 0.  1.
         23    2    1    2    0    0  0.74048948757E+03  0.25681729506E+03 -0.15126657059E+04  0.17060437769E+04  0.90266419622E+02 0.  0.
         13    1    3    3    0    0  0.15756531307E+03  0.20176318504E+02 -0.27221428220E+03  0.31517380467E+03  0.00000000000E+00 0.  1.
        -13    1    3    3    0    0  0.58292417449E+03  0.23664097656E+03 -0.12404514237E+04  0.13908699722E+04  0.00000000000E+00 0. -1.
         22    1    1    2    0    0 -0.74048948757E+03 -0.25681729506E+03 -0.41693659956E+03  0.88775893816E+03  0.00000000000E+00 0. -1.
<mgrwt>
<rscale>  0 0.17333342E+04</rscale>
<asrwt>0</asrwt>
<pdfrwt beam="1">  1        2 0.34795424E+00 0.17333342E+04</pdfrwt>
<pdfrwt beam="2">  1       -2 0.51092338E-01 0.17333342E+04</pdfrwt>
<totfact> 0.16385934E+01</totfact>
</mgrwt>
</event>
<event>
 6    1  0.1817112E-005  0.2377074E+04  0.7818608E-02  0.8448137E-01
          2   -1    0    0  501    0  0.00000000000E+00  0.00000000000E+00  0.20793896489E+04  0.20793896489E+04  0.00000000000E+00 0. -1.
         -2   -1    0    0    0  501 -0.00000000000E+00 -0.00000000000E+00 -0.67934358296E+03  0.67934358296E+03  0.00000000000E+00 0.  1.
         23    2    1    2    0    0  0.56216689775E+03  0.56151729034E+03 -0.32176612600E+03  0.86242879623E+03  0.94428282100E+02 0.  0.
         13    1    3    3    0    0  0.39598725063E+03  0.33175267366E+03 -0.20898284508E+03  0.55726077260E+03  0.00000000000E+00 0.  1.
        -13    1    3    3    0    0  0.16617964712E+03  0.22976461668E+03 -0.11278328092E+03  0.30516802364E+03  0.00000000000E+00 0. -1.
         22    1    1    2    0    0 -0.56216689775E+03 -0.56151729034E+03  0.17218121919E+04  0.18963044356E+04  0.00000000000E+00 0. -1.
<mgrwt>
<rscale>  0 0.23770738E+04</rscale>
<asrwt>0</asrwt>
<pdfrwt beam="1">  1        2 0.31990610E+00 0.23770738E+04</pdfrwt>
<pdfrwt beam="2">  1       -2 0.10451440E+00 0.23770738E+04</pdfrwt>
<totfact> 0.40402990E+00</totfact>
</mgrwt>
</event>
<event>
 6    1  0.1817112E-005  0.4706834E+04  0.7818608E-02  0.7875394E-01
          2   -1    0    0  501    0  0.00000000000E+00  0.00000000000E+00  0.23117539257E+04  0.23117539257E+04  0.00000000000E+00 0. -1.
         -2   -1    0    0    0  501 -0.00000000000E+00 -0.00000000000E+00 -0.23958305593E+04  0.23958305593E+04  0.00000000000E+00 0.  1.
         23    2    1    2    0    0  0.21816976234E+04  0.81419504009E+03 -0.37704889735E+03  0.23605542699E+04  0.85630057854E+02 0.  0.
         13    1    3    3    0    0  0.12822518839E+04  0.51267079120E+03 -0.19580677470E+03  0.13947550061E+04  0.00000000000E+00 0. -1.
        -13    1    3    3    0    0  0.89944573949E+03  0.30152424889E+03 -0.18124212265E+03  0.96579926381E+03  0.00000000000E+00 0.  1.
         22    1    1    2    0    0 -0.21816976234E+04 -0.81419504009E+03  0.29297226374E+03  0.23470302151E+04  0.00000000000E+00 0.  1.
<mgrwt>
<rscale>  0 0.47068336E+04</rscale>
<asrwt>0</asrwt>
<pdfrwt beam="1">  1        2 0.35565445E+00 0.47068336E+04</pdfrwt>
<pdfrwt beam="2">  1       -2 0.36858932E+00 0.47068336E+04</pdfrwt>
<totfact> 0.39438893E-02</totfact>
</mgrwt>
</event>
<event>
 6    1  0.1817112E-005  0.1679308E+04  0.7818608E-02  0.8773255E-01
          2   -1    0    0  501    0  0.00000000000E+00  0.00000000000E+00  0.29610269728E+04  0.29610269728E+04  0.00000000000E+00 0.  1.
         -2   -1    0    0    0  501 -0.00000000000E+00 -0.00000000000E+00 -0.23809936221E+03  0.23809936221E+03  0.00000000000E+00 0. -1.
         23    2    1    2    0    0  0.63730066997E+03  0.52201652432E+03  0.16496739420E+04  0.18461567002E+04  0.90647951738E+02 0.  0.
         13    1    3    3    0    0  0.29293014433E+03  0.19081895490E+03  0.64472701158E+03  0.73341179596E+03  0.00000000000E+00 0.  1.
        -13    1    3    3    0    0  0.34437052565E+03  0.33119756942E+03  0.10049469305E+04  0.11127449043E+04  0.00000000000E+00 0. -1.
         22    1    1    2    0    0 -0.63730066997E+03 -0.52201652432E+03  0.10732536686E+04  0.13529696348E+04  0.00000000000E+00 0. -1.
<mgrwt>
<rscale>  0 0.16793078E+04</rscale>
<asrwt>0</asrwt>
<pdfrwt beam="1">  1        2 0.45554259E+00 0.16793078E+04</pdfrwt>
<pdfrwt beam="2">  1       -2 0.36630673E-01 0.16793078E+04</pdfrwt>
<totfact> 0.12377443E+01</totfact>
</mgrwt>
</event>
<event>
 6    1  0.1817112E-005  0.1272031E+04  0.7818608E-02  0.9052043E-01
         -2   -1    0    0    0  501 -0.00000000000E+00  0.00000000000E+00  0.25863070694E+03  0.25863070694E+03  0.00000000000E+00 0.  1.
          2   -1    0    0  501    0  0.00000000000E+00 -0.00000000000E+00 -0.15640673689E+04  0.15640673689E+04  0.00000000000E+00 0. -1.
         23    2    1    2    0    0  0.38700281962E+03 -0.16548465182E+03  0.21095658325E+02  0.43099252180E+03  0.90294931595E+02 0.  0.
         13    1    3    3    0    0  0.33915825772E+03 -0.16725651209E+03  0.38358763671E+02  0.38009796022E+03  0.00000000000E+00 0. -1.
        -13    1    3    3    0    0  0.47844561897E+02  0.17718602776E+01 -0.17263105346E+02  0.50894561577E+02  0.00000000000E+00 0.  1.
         22    1    1    2    0    0 -0.38700281962E+03  0.16548465182E+03 -0.13265323203E+04  0.13917055541E+04  0.00000000000E+00 0. -1.
<mgrwt>
<rscale>  0 0.12720312E+04</rscale>
<asrwt>0</asrwt>
<pdfrwt beam="1">  1        2 0.24062575E+00 0.12720312E+04</pdfrwt>
<pdfrwt beam="2">  1       -2 0.39789340E-01 0.12720312E+04</pdfrwt>
<totfact> 0.68526071E+01</totfact>
</mgrwt>
</event>
<event>
 6    1  0.1817112E-005  0.1215492E+04  0.7818608E-02  0.9099404E-01
          1   -1    0    0  501    0  0.00000000000E+00  0.00000000000E+00  0.84351806076E+03  0.84351806076E+03  0.00000000000E+00 0.  1.
         -1   -1    0    0    0  501 -0.00000000000E+00 -0.00000000000E+00 -0.43787460203E+03  0.43787460203E+03  0.00000000000E+00 0. -1.
         23    2    1    2    0    0 -0.43994928541E+03  0.11005522480E+03  0.62500339438E+03  0.77762058376E+03  0.91635162785E+02 0.  0.
         11    1    3    3    0    0 -0.28614409848E+03  0.10702372438E+03  0.45821210871E+03  0.55071849364E+03  0.00000000000E+00 0.  1.
        -11    1    3    3    0    0 -0.15380518693E+03  0.30315004175E+01  0.16679128567E+03  0.22690209012E+03  0.00000000000E+00 0. -1.
         22    1    1    2    0    0  0.43994928541E+03 -0.11005522480E+03 -0.21935993565E+03  0.50377207903E+03  0.00000000000E+00 0. -1.
<mgrwt>
<rscale>  0 0.12154919E+04</rscale>
<asrwt>0</asrwt>
<pdfrwt beam="1">  1        1 0.12977201E+00 0.12154919E+04</pdfrwt>
<pdfrwt beam="2">  1       -1 0.67365323E-01 0.12154919E+04</pdfrwt>
<totfact> 0.44763014E+01</totfact>
</mgrwt>
</event>
<event>
 6    1  0.1817112E-005  0.3891681E+04  0.7818608E-02  0.8026762E-01
          2   -1    0    0  501    0  0.00000000000E+00  0.00000000000E+00  0.15462186977E+04  0.15462186977E+04  0.00000000000E+00 0. -1.
         -2   -1    0    0    0  501 -0.00000000000E+00 -0.00000000000E+00 -0.24487451364E+04  0.24487451364E+04  0.00000000000E+00 0.  1.
         23    2    1    2    0    0 -0.13897070971E+04  0.41133183437E+03 -0.17816293761E+04  0.22998822229E+04  0.12155373954E+03 0.  0.
         13    1    3    3    0    0 -0.94317959974E+03  0.29272549991E+03 -0.12988685696E+04  0.16316664907E+04  0.00000000000E+00 0. -1.
        -13    1    3    3    0    0 -0.44652749739E+03  0.11860633446E+03 -0.48276080652E+03  0.66821573224E+03  0.00000000000E+00 0.  1.
         22    1    1    2    0    0  0.13897070971E+04 -0.41133183437E+03  0.87910293750E+03  0.16950816112E+04  0.00000000000E+00 0.  1.
<mgrwt>
<rscale>  0 0.38916811E+04</rscale>
<asrwt>0</asrwt>
<pdfrwt beam="1">  1        2 0.23787980E+00 0.38916811E+04</pdfrwt>
<pdfrwt beam="2">  1       -2 0.37673002E+00 0.38916811E+04</pdfrwt>
<totfact> 0.99941297E-02</totfact>
</mgrwt>
</event>
<event>
 6    1  0.1817112E-005  0.1122868E+04  0.7818608E-02  0.9183185E-01
          2   -1    0    0  501    0  0.00000000000E+00  0.00000000000E+00  0.60275059824E+03  0.60275059824E+03  0.00000000000E+00 0. -1.
         -2   -1    0    0    0  501 -0.00000000000E+00 -0.00000000000E+00 -0.52294961225E+03  0.52294961225E+03  0.00000000000E+00 0.  1.
         23    2    1    2    0    0 -0.45121897358E+03 -0.25233190178E+03 -0.16976864493E+03  0.55163144157E+03  0.90586443541E+02 0.  0.
         11    1    3    3    0    0 -0.32424649010E+03 -0.22134116926E+03 -0.14557035206E+03  0.41871043329E+03  0.00000000000E+00 0.  1.
        -11    1    3    3    0    0 -0.12697248348E+03 -0.30990732522E+02 -0.24198292870E+02  0.13292100828E+03  0.00000000000E+00 0. -1.
         22    1    1    2    0    0  0.45121897358E+03  0.25233190178E+03  0.24956963092E+03  0.57406876892E+03  0.00000000000E+00 0. -1.
<mgrwt>
<rscale>  0 0.11228681E+04</rscale>
<asrwt>0</asrwt>
<pdfrwt beam="1">  1        2 0.92730862E-01 0.11228681E+04</pdfrwt>
<pdfrwt beam="2">  1       -2 0.80453786E-01 0.11228681E+04</pdfrwt>
<totfact> 0.66783000E+01</totfact>
</mgrwt>
</event>
<event>
 6    1  0.1817112E-005  0.3253177E+04  0.7818608E-02  0.8174913E-01
         -1   -1    0    0    0  501 -0.00000000000E+00  0.00000000000E+00  0.10708868342E+04  0.10708868342E+04  0.00000000000E+00 0. -1.
          1   -1    0    0  501    0  0.00000000000E+00 -0.00000000000E+00 -0.24706526793E+04  0.24706526793E+04  0.00000000000E+00 0.  1.
         23    2    1    2    0    0 -0.15444750195E+04  0.46244987055E+03 -0.92317022823E+03  0.18603475701E+04  0.96885719799E+02 0.  0.
         11    1    3    3    0    0 -0.49175522612E+03  0.11051986527E+03 -0.25639867273E+03  0.56548927701E+03  0.00000000000E+00 0. -1.
        -11    1    3    3    0    0 -0.10527197933E+04  0.35193000528E+03 -0.66677155550E+03  0.12948582931E+04  0.00000000000E+00 0.  1.
         22    1    1    2    0    0  0.15444750195E+04 -0.46244987055E+03 -0.47659561682E+03  0.16811919434E+04  0.00000000000E+00 0. -1.
<mgrwt>
<rscale>  0 0.32531766E+04</rscale>
<asrwt>0</asrwt>
<pdfrwt beam="1">  1        1 0.38010041E+00 0.32531766E+04</pdfrwt>
<pdfrwt beam="2">  1       -1 0.16475182E+00 0.32531766E+04</pdfrwt>
<totfact> 0.31815835E-01</totfact>
</mgrwt>
</event>
<event>
 6    1  0.1817112E-005  0.4239262E+04  0.7818608E-02  0.7957946E-01
         -2   -1    0    0    0  501 -0.00000000000E+00  0.00000000000E+00  0.13462257448E+04  0.13462257448E+04  0.00000000000E+00 0.  1.
          2   -1    0    0  501    0  0.00000000000E+00 -0.00000000000E+00 -0.33373562615E+04  0.33373562615E+04  0.00000000000E+00 0. -1.
         23    2    1    2    0    0  0.15912556680E+04 -0.11178270515E+04 -0.19250381535E+04  0.27378173447E+04  0.90774458763E+02 0.  0.
         13    1    3    3    0    0  0.10334558761E+04 -0.76195917558E+03 -0.12259501207E+04  0.17752652003E+04  0.00000000000E+00 0.  1.
        -13    1    3    3    0    0  0.55779979191E+03 -0.35586787591E+03 -0.69908803284E+03  0.96255214436E+03  0.00000000000E+00 0. -1.
         22    1    1    2    0    0 -0.15912556680E+04  0.11178270515E+04 -0.66092363236E+02  0.19457646616E+04  0.00000000000E+00 0.  1.
<mgrwt>
<rscale>  0 0.42392617E+04</rscale>
<asrwt>0</asrwt>
<pdfrwt beam="1">  1        2 0.51343942E+00 0.42392617E+04</pdfrwt>
<pdfrwt beam="2">  1       -2 0.20711165E+00 0.42392617E+04</pdfrwt>
<totfact> 0.97118987E-02</totfact>
</mgrwt>
</event>
<event>
 6    1  0.1817112E-005  0.6316687E+03  0.7818608E-02  0.9841798E-01
          2   -1    0    0  501    0  0.00000000000E+00  0.00000000000E+00  0.14640823217E+04  0.14640823217E+04  0.00000000000E+00 0. -1.
         -2   -1    0    0    0  501 -0.00000000000E+00 -0.00000000000E+00 -0.68132325968E+02  0.68132325968E+02  0.00000000000E+00 0.  1.
         23    2    1    2    0    0 -0.12112563496E+03 -0.21362691085E+03  0.11686634456E+04  0.11975998657E+04  0.90351052021E+02 0.  0.
         11    1    3    3    0    0 -0.15741699070E+02 -0.10082367659E+03  0.35284959741E+03  0.36730920658E+03  0.00000000000E+00 0.  1.
        -11    1    3    3    0    0 -0.10538393589E+03 -0.11280323426E+03  0.81581384822E+03  0.83029065908E+03  0.00000000000E+00 0. -1.
         22    1    1    2    0    0  0.12112563496E+03  0.21362691085E+03  0.22728655012E+03  0.33461478202E+03  0.00000000000E+00 0.  1.
<mgrwt>
<rscale>  0 0.63166869E+03</rscale>
<asrwt>0</asrwt>
<pdfrwt beam="1">  1        2 0.22524341E+00 0.63166869E+03</pdfrwt>
<pdfrwt beam="2">  1       -2 0.10481897E-01 0.63166869E+03</pdfrwt>
<totfact> 0.85990483E+02</totfact>
</mgrwt>
</event>
<event>
 6    1  0.2179589E-005  0.3365836E+04  0.7818608E-02  0.8146343E-01
          2   -1    0    0  501    0  0.00000000000E+00  0.00000000000E+00  0.18395137911E+04  0.18395137911E+04  0.00000000000E+00 0. -1.
         -2   -1    0    0    0  501 -0.00000000000E+00 -0.00000000000E+00 -0.15396525957E+04  0.15396525957E+04  0.00000000000E+00 0.  1.
         23    2    1    2    0    0  0.42156029474E+03 -0.53728251932E+03 -0.13927530852E+04  0.15539736050E+04  0.93205262503E+02 0.  0.
         11    1    3    3    0    0  0.32332269032E+03 -0.44044110891E+03 -0.10313119335E+04  0.11671033531E+04  0.00000000000E+00 0. -1.
        -11    1    3    3    0    0  0.98237604419E+02 -0.96841410410E+02 -0.36144115168E+03  0.38687025192E+03  0.00000000000E+00 0.  1.
         22    1    1    2    0    0 -0.42156029474E+03  0.53728251932E+03  0.16926142807E+04  0.18251927818E+04  0.00000000000E+00 0. -1.
<mgrwt>
<rscale>  0 0.33658355E+04</rscale>
<asrwt>0</asrwt>
<pdfrwt beam="1">  1        2 0.28300212E+00 0.33658355E+04</pdfrwt>
<pdfrwt beam="2">  1       -2 0.23686963E+00 0.33658355E+04</pdfrwt>
<totfact> 0.52797263E-01</totfact>
</mgrwt>
</event>
<event>
 6    1  0.1817112E-005  0.1453901E+04  0.7818608E-02  0.8915700E-01
         -2   -1    0    0    0  501 -0.00000000000E+00  0.00000000000E+00  0.24953401502E+03  0.24953401502E+03  0.00000000000E+00 0.  1.
          2   -1    0    0  501    0  0.00000000000E+00 -0.00000000000E+00 -0.21177763939E+04  0.21177763939E+04  0.00000000000E+00 0. -1.
         23    2    1    2    0    0  0.35370581641E+03  0.62506400537E+03 -0.10855148383E+04  0.13050132668E+04  0.94362847885E+02 0.  0.
         11    1    3    3    0    0  0.22589681520E+03  0.31781035439E+03 -0.54114569794E+03  0.66698685060E+03  0.00000000000E+00 0. -1.
        -11    1    3    3    0    0  0.12780900121E+03  0.30725365097E+03 -0.54436914033E+03  0.63802641620E+03  0.00000000000E+00 0.  1.
         22    1    1    2    0    0 -0.35370581641E+03 -0.62506400537E+03 -0.78272754065E+03  0.10622971422E+04  0.00000000000E+00 0. -1.
<mgrwt>
<rscale>  0 0.14539013E+04</rscale>
<asrwt>0</asrwt>
<pdfrwt beam="1">  1        2 0.32581174E+00 0.14539013E+04</pdfrwt>
<pdfrwt beam="2">  1       -2 0.38389850E-01 0.14539013E+04</pdfrwt>
<totfact> 0.35712918E+01</totfact>
</mgrwt>
</event>
<event>
 6    1  0.1817112E-005  0.3745266E+04  0.7818608E-02  0.8058004E-01
         -1   -1    0    0    0  501 -0.00000000000E+00  0.00000000000E+00  0.10485983402E+04  0.10485983402E+04  0.00000000000E+00 0.  1.
          1   -1    0    0  501    0  0.00000000000E+00 -0.00000000000E+00 -0.33442311197E+04  0.33442311197E+04  0.00000000000E+00 0. -1.
         23    2    1    2    0    0  0.86260554173E+03 -0.76023097219E+03 -0.28804591541E+04  0.31028444445E+04  0.92516250495E+02 0.  0.
         13    1    3    3    0    0  0.35403131571E+03 -0.33919398965E+03 -0.11184181403E+04  0.12211674216E+04  0.00000000000E+00 0.  1.
        -13    1    3    3    0    0  0.50857422602E+03 -0.42103698254E+03 -0.17620410138E+04  0.18816770229E+04  0.00000000000E+00 0. -1.
         22    1    1    2    0    0 -0.86260554173E+03  0.76023097219E+03  0.58482637461E+03  0.12899850155E+04  0.00000000000E+00 0.  1.
<mgrwt>
<rscale>  0 0.37452665E+04</rscale>
<asrwt>0</asrwt>
<pdfrwt beam="1">  1        1 0.51449710E+00 0.37452665E+04</pdfrwt>
<pdfrwt beam="2">  1       -1 0.16132282E+00 0.37452665E+04</pdfrwt>
<totfact> 0.75312885E-02</totfact>
</mgrwt>
</event>
<event>
 6    1  0.1817112E-005  0.1841567E+04  0.7818608E-02  0.8684502E-01
         -1   -1    0    0    0  501 -0.00000000000E+00  0.00000000000E+00  0.12327796675E+04  0.12327796675E+04  0.00000000000E+00 0.  1.
          1   -1    0    0  501    0  0.00000000000E+00 -0.00000000000E+00 -0.68774848771E+03  0.68774848771E+03  0.00000000000E+00 0. -1.
         23    2    1    2    0    0 -0.52715217498E+03  0.33798746985E+03 -0.42782234658E+03  0.76356275852E+03  0.88719674258E+02 0.  0.
         13    1    3    3    0    0 -0.22213196532E+03  0.18278993947E+03 -0.16142389025E+03  0.32986731322E+03  0.00000000000E+00 0. -1.
        -13    1    3    3    0    0 -0.30502020966E+03  0.15519753038E+03 -0.26639845632E+03  0.43369544529E+03  0.00000000000E+00 0.  1.
         22    1    1    2    0    0  0.52715217498E+03 -0.33798746985E+03  0.97285352637E+03  0.11569653967E+04  0.00000000000E+00 0.  1.
<mgrwt>
<rscale>  0 0.18415671E+04</rscale>
<asrwt>0</asrwt>
<pdfrwt beam="1">  1        1 0.10580746E+00 0.18415671E+04</pdfrwt>
<pdfrwt beam="2">  1       -1 0.18965841E+00 0.18415671E+04</pdfrwt>
<totfact> 0.46746091E+00</totfact>
</mgrwt>
</event>
<event>
 6    1  0.1871141E-005  0.4112190E+04  0.7818608E-02  0.7982289E-01
         -2   -1    0    0    0  501 -0.00000000000E+00  0.00000000000E+00  0.29872265161E+04  0.29872265161E+04  0.00000000000E+00 0.  1.
          2   -1    0    0  501    0  0.00000000000E+00 -0.00000000000E+00 -0.14152009060E+04  0.14152009060E+04  0.00000000000E+00 0. -1.
         23    2    1    2    0    0 -0.30885846895E+03  0.49861839653E+03  0.28950124988E+04  0.29552549491E+04  0.91763752498E+02 0.  0.
         13    1    3    3    0    0 -0.68136327741E+02  0.19242333013E+03  0.97905011718E+03  0.10001042091E+04  0.00000000000E+00 0. -1.
        -13    1    3    3    0    0 -0.24072214121E+03  0.30619506640E+03  0.19159623817E+04  0.19551507399E+04  0.00000000000E+00 0.  1.
         22    1    1    2    0    0  0.30885846895E+03 -0.49861839653E+03 -0.13229868887E+04  0.14471724731E+04  0.00000000000E+00 0. -1.
<mgrwt>
<rscale>  0 0.41121895E+04</rscale>
<asrwt>0</asrwt>
<pdfrwt beam="1">  1        2 0.21772322E+00 0.41121895E+04</pdfrwt>
<pdfrwt beam="2">  1       -2 0.45957331E+00 0.41121895E+04</pdfrwt>
<totfact> 0.33293293E-02</totfact>
</mgrwt>
</event>
<event>
 6    1  0.1817112E-005  0.6867274E+03  0.7818608E-02  0.9740203E-01
          2   -1    0    0  501    0  0.00000000000E+00  0.00000000000E+00  0.17628754001E+04  0.17628754001E+04  0.00000000000E+00 0. -1.
         -2   -1    0    0    0  501 -0.00000000000E+00 -0.00000000000E+00 -0.66878593099E+02  0.66878593099E+02  0.00000000000E+00 0.  1.
         23    2    1    2    0    0  0.22556971881E+03 -0.11527010699E+03  0.14571431006E+04  0.14815873827E+04  0.87557189142E+02 0.  0.
         11    1    3    3    0    0  0.15155640262E+03 -0.74003077001E+02  0.71504545448E+03  0.73466713588E+03  0.00000000000E+00 0. -1.
        -11    1    3    3    0    0  0.74013316192E+02 -0.41267029989E+02  0.74209764610E+03  0.74692024680E+03  0.00000000000E+00 0.  1.
         22    1    1    2    0    0 -0.22556971881E+03  0.11527010699E+03  0.23885370645E+03  0.34816661054E+03  0.00000000000E+00 0.  1.
<mgrwt>
<rscale>  0 0.68672739E+03</rscale>
<asrwt>0</asrwt>
<pdfrwt beam="1">  1        2 0.27121156E+00 0.68672739E+03</pdfrwt>
<pdfrwt beam="2">  1       -2 0.10289016E-01 0.68672739E+03</pdfrwt>
<totfact> 0.60577194E+02</totfact>
</mgrwt>
</event>
<event>
 6    1  0.1817112E-005  0.4561069E+04  0.7818608E-02  0.7900032E-01
         -2   -1    0    0    0  501 -0.00000000000E+00  0.00000000000E+00  0.12827544560E+04  0.12827544560E+04  0.00000000000E+00 0.  1.
          2   -1    0    0  501    0  0.00000000000E+00 -0.00000000000E+00 -0.40544297954E+04  0.40544297954E+04  0.00000000000E+00 0. -1.
         23    2    1    2    0    0 -0.16490050066E+04 -0.12821517611E+04 -0.24548088510E+04  0.32244762683E+04  0.89610600926E+02 0.  0.
         11    1    3    3    0    0 -0.85972839233E+03 -0.70120575276E+03 -0.13596046705E+04  0.17548069057E+04  0.00000000000E+00 0.  1.
        -11    1    3    3    0    0 -0.78927661430E+03 -0.58094600830E+03 -0.10952041805E+04  0.14696693626E+04  0.00000000000E+00 0. -1.
         22    1    1    2    0    0  0.16490050066E+04  0.12821517611E+04 -0.31686648846E+03  0.21127079831E+04  0.00000000000E+00 0.  1.
<mgrwt>
<rscale>  0 0.45610691E+04</rscale>
<asrwt>0</asrwt>
<pdfrwt beam="1">  1        2 0.62375843E+00 0.45610691E+04</pdfrwt>
<pdfrwt beam="2">  1       -2 0.19734684E+00 0.45610691E+04</pdfrwt>
<totfact> 0.32089453E-02</totfact>
</mgrwt>
</event>
<event>
 6    1  0.1817112E-005  0.3061872E+04  0.7818608E-02  0.8226280E-01
         -2   -1    0    0    0  501 -0.00000000000E+00  0.00000000000E+00  0.77353572122E+03  0.77353572122E+03  0.00000000000E+00 0.  1.
          2   -1    0    0  501    0  0.00000000000E+00 -0.00000000000E+00 -0.30299374337E+04  0.30299374337E+04  0.00000000000E+00 0. -1.
         23    2    1    2    0    0 -0.14957884894E+04  0.31910481136E+03 -0.11615809690E+04  0.19225575412E+04  0.88011737156E+02 0.  0.
         13    1    3    3    0    0 -0.45727637688E+03  0.11239782672E+03 -0.40582323958E+03  0.62163289656E+03  0.00000000000E+00 0.  1.
        -13    1    3    3    0    0 -0.10385121125E+04  0.20670698464E+03 -0.75575772943E+03  0.13009246446E+04  0.00000000000E+00 0. -1.
         22    1    1    2    0    0  0.14957884894E+04 -0.31910481136E+03 -0.10948207435E+04  0.18809156137E+04  0.00000000000E+00 0.  1.
<mgrwt>
<rscale>  0 0.30618719E+04</rscale>
<asrwt>0</asrwt>
<pdfrwt beam="1">  1        2 0.46614422E+00 0.30618719E+04</pdfrwt>
<pdfrwt beam="2">  1       -2 0.11900550E+00 0.30618719E+04</pdfrwt>
<totfact> 0.76925667E-01</totfact>
</mgrwt>
</event>
<event>
 6    1  0.1817112E-005  0.1645819E+04  0.7818608E-02  0.8792884E-01
         -1   -1    0    0    0  501 -0.00000000000E+00  0.00000000000E+00  0.56120448691E+03  0.56120448691E+03  0.00000000000E+00 0.  1.
          1   -1    0    0  501    0  0.00000000000E+00 -0.00000000000E+00 -0.12066545751E+04  0.12066545751E+04  0.00000000000E+00 0. -1.
         23    2    1    2    0    0  0.35528202724E+03  0.17887007778E+03 -0.10944496506E+04  0.11680087218E+04  0.90578765602E+02 0.  0.
         11    1    3    3    0    0  0.77876643771E+02  0.66529305788E+02 -0.19808983042E+03  0.22300336565E+03  0.00000000000E+00 0. -1.
        -11    1    3    3    0    0  0.27740538347E+03  0.11234077199E+03 -0.89635982020E+03  0.94500535612E+03  0.00000000000E+00 0.  1.
         22    1    1    2    0    0 -0.35528202724E+03 -0.17887007778E+03  0.44899956244E+03  0.59985034023E+03  0.00000000000E+00 0.  1.
<mgrwt>
<rscale>  0 0.16458189E+04</rscale>
<asrwt>0</asrwt>
<pdfrwt beam="1">  1        1 0.18563917E+00 0.16458189E+04</pdfrwt>
<pdfrwt beam="2">  1       -1 0.86339152E-01 0.16458189E+04</pdfrwt>
<totfact> 0.13367444E+01</totfact>
</mgrwt>
</event>
<event>
 6    1  0.1817112E-005  0.6896781E+04  0.7818608E-02  0.7588175E-01
          2   -1    0    0  501    0  0.00000000000E+00  0.00000000000E+00  0.25825810116E+04  0.25825810116E+04  0.00000000000E+00 0. -1.
         -2   -1    0    0    0  501 -0.00000000000E+00 -0.00000000000E+00 -0.46044622265E+04  0.46044622265E+04  0.00000000000E+00 0.  1.
         23    2    1    2    0    0 -0.16107288276E+04  0.17210583318E+04 -0.36331235654E+04  0.43317689870E+04  0.90258394227E+02 0.  0.
         11    1    3    3    0    0 -0.16343691061E+03  0.17041670123E+03 -0.41556963623E+03  0.47796610587E+03  0.00000000000E+00 0. -1.
        -11    1    3    3    0    0 -0.14472919169E+04  0.15506416306E+04 -0.32175539291E+04  0.38538028811E+04  0.00000000000E+00 0.  1.
         22    1    1    2    0    0  0.16107288276E+04 -0.17210583318E+04  0.16112423504E+04  0.28552742511E+04  0.00000000000E+00 0. -1.
<mgrwt>
<rscale>  0 0.68967809E+04</rscale>
<asrwt>0</asrwt>
<pdfrwt beam="1">  1        2 0.39732015E+00 0.68967809E+04</pdfrwt>
<pdfrwt beam="2">  1       -2 0.70837881E+00 0.68967809E+04</pdfrwt>
<totfact> 0.42547700E-04</totfact>
</mgrwt>
</event>
<event>
 6    1  0.1817112E-005  0.3967597E+04  0.7818608E-02  0.8011115E-01
          2   -1    0    0  501    0  0.00000000000E+00  0.00000000000E+00  0.20991892512E+04  0.20991892512E+04  0.00000000000E+00 0. -1.
         -2   -1    0    0    0  501 -0.00000000000E+00 -0.00000000000E+00 -0.18747505571E+04  0.18747505571E+04  0.00000000000E+00 0.  1.
         23    2    1    2    0    0 -0.14506297212E+04 -0.15041447281E+03  0.14576909428E+04  0.20640020578E+04  0.91052227978E+02 0.  0.
         13    1    3    3    0    0 -0.54400369496E+03 -0.97977518969E+02  0.57350584297E+03  0.79652279709E+03  0.00000000000E+00 0. -1.
        -13    1    3    3    0    0 -0.90662602626E+03 -0.52436953845E+02  0.88418509987E+03  0.12674792608E+04  0.00000000000E+00 0.  1.
         22    1    1    2    0    0  0.14506297212E+04  0.15041447281E+03 -0.12332522488E+04  0.19099377505E+04  0.00000000000E+00 0.  1.
<mgrwt>
<rscale>  0 0.39675969E+04</rscale>
<asrwt>0</asrwt>
<pdfrwt beam="1">  1        2 0.32295219E+00 0.39675969E+04</pdfrwt>
<pdfrwt beam="2">  1       -2 0.28842316E+00 0.39675969E+04</pdfrwt>
<totfact> 0.17405586E-01</totfact>
</mgrwt>
</event>
<event>
 6    1  0.1817112E-005  0.3550816E+04  0.7818608E-02  0.8101852E-01
          2   -1    0    0  501    0  0.00000000000E+00  0.00000000000E+00  0.26530391287E+04  0.26530391287E+04  0.00000000000E+00 0. -1.
         -2   -1    0    0    0  501 -0.00000000000E+00 -0.00000000000E+00 -0.11880990136E+04  0.11880990136E+04  0.00000000000E+00 0.  1.
         23    2    1    2    0    0  0.15496694858E+03 -0.12587603711E+04 -0.60926797686E+03  0.14099179475E+04  0.90380993472E+02 0.  0.
         13    1    3    3    0    0  0.12780461656E+03 -0.75360723181E+03 -0.33615863355E+03  0.83502126126E+03  0.00000000000E+00 0. -1.
        -13    1    3    3    0    0  0.27162332027E+02 -0.50515313928E+03 -0.27310934331E+03  0.57489668621E+03  0.00000000000E+00 0.  1.
         22    1    1    2    0    0 -0.15496694858E+03  0.12587603711E+04  0.20742080919E+04  0.24312201948E+04  0.00000000000E+00 0. -1.
<mgrwt>
<rscale>  0 0.35508158E+04</rscale>
<asrwt>0</asrwt>
<pdfrwt beam="1">  1        2 0.40815986E+00 0.35508158E+04</pdfrwt>
<pdfrwt beam="2">  1       -2 0.18278446E+00 0.35508158E+04</pdfrwt>
<totfact> 0.40193370E-01</totfact>
</mgrwt>
</event>
<event>
 6    1  0.1817112E-005  0.1038017E+04  0.7818608E-02  0.9267804E-01
         -2   -1    0    0    0  501 -0.00000000000E+00  0.00000000000E+00  0.36810625434E+03  0.36810625434E+03  0.00000000000E+00 0. -1.
          2   -1    0    0  501    0  0.00000000000E+00 -0.00000000000E+00 -0.73177199792E+03  0.73177199792E+03  0.00000000000E+00 0.  1.
         23    2    1    2    0    0  0.42515127341E+03  0.46984907764E+02  0.11968245014E+03  0.45444300128E+03  0.96090403818E+02 0.  0.
         11    1    3    3    0    0  0.25850117320E+03  0.10392130397E+02  0.11665875555E+03  0.28379590936E+03  0.00000000000E+00 0. -1.
        -11    1    3    3    0    0  0.16665010020E+03  0.36592777367E+02  0.30236945891E+01  0.17064709192E+03  0.00000000000E+00 0.  1.
         22    1    1    2    0    0 -0.42515127341E+03 -0.46984907764E+02 -0.48334819371E+03  0.64543525098E+03  0.00000000000E+00 0.  1.
<mgrwt>
<rscale>  0 0.10380171E+04</rscale>
<asrwt>0</asrwt>
<pdfrwt beam="1">  1        2 0.11258031E+00 0.10380171E+04</pdfrwt>
<pdfrwt beam="2">  1       -2 0.56631732E-01 0.10380171E+04</pdfrwt>
<totfact> 0.11286024E+02</totfact>
</mgrwt>
</event>
<event>
 6    1  0.1817112E-005  0.4252565E+04  0.7818608E-02  0.7955448E-01
          4   -1    0    0  501    0  0.00000000000E+00  0.00000000000E+00  0.23094315685E+04  0.23094315685E+04  0.00000000000E+00 0. -1.
         -4   -1    0    0    0  501 -0.00000000000E+00 -0.00000000000E+00 -0.19576577801E+04  0.19576577801E+04  0.00000000000E+00 0.  1.
         23    2    1    2    0    0  0.92083695789E+03 -0.17637352940E+04 -0.57292452313E+03  0.20730588434E+04  0.10309009971E+03 0.  0.
         11    1    3    3    0    0  0.39761716782E+03 -0.79817425131E+03 -0.30715932373E+03  0.94314813139E+03  0.00000000000E+00 0. -1.
        -11    1    3    3    0    0  0.52321979007E+03 -0.96556104268E+03 -0.26576519940E+03  0.11299107120E+04  0.00000000000E+00 0.  1.
         22    1    1    2    0    0 -0.92083695789E+03  0.17637352940E+04  0.92469831155E+03  0.21940305052E+04  0.00000000000E+00 0. -1.
<mgrwt>
<rscale>  0 0.42525647E+04</rscale>
<asrwt>0</asrwt>
<pdfrwt beam="1">  1        4 0.35529717E+00 0.42525647E+04</pdfrwt>
<pdfrwt beam="2">  1       -4 0.30117812E+00 0.42525647E+04</pdfrwt>
<totfact> 0.62619484E-04</totfact>
</mgrwt>
</event>
<event>
 6    1  0.1817112E-005  0.5186737E+04  0.7818608E-02  0.7800330E-01
          2   -1    0    0  501    0  0.00000000000E+00  0.00000000000E+00  0.27911577897E+04  0.27911577897E+04  0.00000000000E+00 0. -1.
         -2   -1    0    0    0  501 -0.00000000000E+00 -0.00000000000E+00 -0.24095951159E+04  0.24095951159E+04  0.00000000000E+00 0.  1.
         23    2    1    2    0    0  0.63418607243E+03  0.24917733446E+04 -0.14220077352E+03  0.25767379430E+04  0.90724814849E+02 0.  0.
         11    1    3    3    0    0  0.35009296095E+03  0.13183011970E+04 -0.11851245416E+03  0.13691341531E+04  0.00000000000E+00 0. -1.
        -11    1    3    3    0    0  0.28409311148E+03  0.11734721475E+04 -0.23688319362E+02  0.12076037900E+04  0.00000000000E+00 0.  1.
         22    1    1    2    0    0 -0.63418607243E+03 -0.24917733446E+04  0.52376344732E+03  0.26240149626E+04  0.00000000000E+00 0.  1.
<mgrwt>
<rscale>  0 0.51867370E+04</rscale>
<asrwt>0</asrwt>
<pdfrwt beam="1">  1        2 0.42940889E+00 0.51867370E+04</pdfrwt>
<pdfrwt beam="2">  1       -2 0.37070694E+00 0.51867370E+04</pdfrwt>
<totfact> 0.19297291E-02</totfact>
</mgrwt>
</event>
<event>
 6    1  0.1817112E-005  0.2598137E+04  0.7818608E-02  0.8368834E-01
         -2   -1    0    0    0  501 -0.00000000000E+00  0.00000000000E+00  0.62020165020E+03  0.62020165020E+03  0.00000000000E+00 0. -1.
          2   -1    0    0  501    0  0.00000000000E+00 -0.00000000000E+00 -0.27210171119E+04  0.27210171119E+04  0.00000000000E+00 0.  1.
         23    2    1    2    0    0 -0.25881279721E+03 -0.12159730337E+04 -0.15294978192E+04  0.19730161706E+04  0.88627015886E+02 0.  0.
         11    1    3    3    0    0 -0.18181720026E+03 -0.64649053016E+03 -0.83849244582E+03  0.10742797967E+04  0.00000000000E+00 0.  1.
        -11    1    3    3    0    0 -0.76995596951E+02 -0.56948250354E+03 -0.69100537340E+03  0.89873637394E+03  0.00000000000E+00 0. -1.
         22    1    1    2    0    0  0.25881279721E+03  0.12159730337E+04 -0.57131764249E+03  0.13682025915E+04  0.00000000000E+00 0. -1.
<mgrwt>
<rscale>  0 0.25981373E+04</rscale>
<asrwt>0</asrwt>
<pdfrwt beam="1">  1        2 0.41861801E+00 0.25981373E+04</pdfrwt>
<pdfrwt beam="2">  1       -2 0.95415639E-01 0.25981373E+04</pdfrwt>
<totfact> 0.21051369E+00</totfact>
</mgrwt>
</event>
<event>
 6    1  0.1817112E-005  0.1752091E+04  0.7818608E-02  0.8732200E-01
          2   -1    0    0  501    0  0.00000000000E+00  0.00000000000E+00  0.18096116193E+04  0.18096116193E+04  0.00000000000E+00 0. -1.
         -2   -1    0    0    0  501 -0.00000000000E+00 -0.00000000000E+00 -0.42409958313E+03  0.42409958313E+03  0.00000000000E+00 0.  1.
         23    2    1    2    0    0  0.12943856329E+03  0.12214015127E+02  0.17959888089E+04  0.18031363484E+04  0.93922123906E+02 0.  0.
         13    1    3    3    0    0  0.44043492356E+01  0.15289442616E+02  0.67572760685E+03  0.67591490885E+03  0.00000000000E+00 0.  1.
        -13    1    3    3    0    0  0.12503421405E+03 -0.30754274887E+01  0.11202612021E+04  0.11272214396E+04  0.00000000000E+00 0. -1.
         22    1    1    2    0    0 -0.12943856329E+03 -0.12214015127E+02 -0.41047677282E+03  0.43057485396E+03  0.00000000000E+00 0.  1.
<mgrwt>
<rscale>  0 0.17520908E+04</rscale>
<asrwt>0</asrwt>
<pdfrwt beam="1">  1        2 0.27840178E+00 0.17520908E+04</pdfrwt>
<pdfrwt beam="2">  1       -2 0.65246090E-01 0.17520908E+04</pdfrwt>
<totfact> 0.17489439E+01</totfact>
</mgrwt>
</event>
<event>
 6    1  0.1817112E-005  0.8586542E+03  0.7818608E-02  0.9478795E-01
         -2   -1    0    0    0  501 -0.00000000000E+00  0.00000000000E+00  0.29148348815E+03  0.29148348815E+03  0.00000000000E+00 0.  1.
          2   -1    0    0  501    0  0.00000000000E+00 -0.00000000000E+00 -0.63235742309E+03  0.63235742309E+03  0.00000000000E+00 0. -1.
         23    2    1    2    0    0 -0.35783619853E+03 -0.14278737696E+03  0.19069002877E+02  0.39658964430E+03  0.92112643542E+02 0.  0.
         11    1    3    3    0    0 -0.12835497814E+03 -0.13471221507E+02 -0.18975313237E+02  0.13044744817E+03  0.00000000000E+00 0.  1.
        -11    1    3    3    0    0 -0.22948122039E+03 -0.12931615545E+03  0.38044316114E+02  0.26614219613E+03  0.00000000000E+00 0. -1.
         22    1    1    2    0    0  0.35783619853E+03  0.14278737696E+03 -0.35994293782E+03  0.52725126693E+03  0.00000000000E+00 0. -1.
<mgrwt>
<rscale>  0 0.85865417E+03</rscale>
<asrwt>0</asrwt>
<pdfrwt beam="1">  1        2 0.97285756E-01 0.85865417E+03</pdfrwt>
<pdfrwt beam="2">  1       -2 0.44843614E-01 0.85865417E+03</pdfrwt>
<totfact> 0.22036437E+02</totfact>
</mgrwt>
</event>
<event>
 6    1  0.1817112E-005  0.1622981E+04  0.7818608E-02  0.8806553E-01
         -2   -1    0    0    0  501 -0.00000000000E+00  0.00000000000E+00  0.10190035053E+04  0.10190035053E+04  0.00000000000E+00 0.  1.
          2   -1    0    0  501    0  0.00000000000E+00 -0.00000000000E+00 -0.64623609365E+03  0.64623609365E+03  0.00000000000E+00 0. -1.
         23    2    1    2    0    0  0.41605056586E+03 -0.34831011908E+03  0.80265740088E+03  0.97297995452E+03  0.89515787929E+02 0.  0.
         11    1    3    3    0    0  0.11257592104E+03 -0.89558910337E+02  0.28760351868E+03  0.32157412890E+03  0.00000000000E+00 0.  1.
        -11    1    3    3    0    0  0.30347464483E+03 -0.25875120874E+03  0.51505388220E+03  0.65140582562E+03  0.00000000000E+00 0. -1.
         22    1    1    2    0    0 -0.41605056586E+03  0.34831011908E+03 -0.42988998926E+03  0.69225964441E+03  0.00000000000E+00 0. -1.
<mgrwt>
<rscale>  0 0.16229810E+04</rscale>
<asrwt>0</asrwt>
<pdfrwt beam="1">  1        2 0.99420938E-01 0.16229810E+04</pdfrwt>
<pdfrwt beam="2">  1       -2 0.15676977E+00 0.16229810E+04</pdfrwt>
<totfact> 0.11533320E+01</totfact>
</mgrwt>
</event>
<event>
 6    1  0.1817112E-005  0.2935083E+04  0.7818608E-02  0.8262515E-01
          2   -1    0    0  501    0  0.00000000000E+00  0.00000000000E+00  0.34403561620E+04  0.34403561620E+04  0.00000000000E+00 0. -1.
         -2   -1    0    0    0  501 -0.00000000000E+00 -0.00000000000E+00 -0.62600421036E+03  0.62600421036E+03  0.00000000000E+00 0.  1.
         23    2    1    2    0    0  0.11569346720E+04 -0.55528866631E+03  0.42694277377E+03  0.13559054436E+04  0.96726944412E+02 0.  0.
         13    1    3    3    0    0  0.10128038416E+04 -0.51886743972E+03  0.36826591911E+03  0.11960831195E+04  0.00000000000E+00 0. -1.
        -13    1    3    3    0    0  0.14413083042E+03 -0.36421226589E+02  0.58676854657E+02  0.15982232414E+03  0.00000000000E+00 0.  1.
         22    1    1    2    0    0 -0.11569346720E+04  0.55528866631E+03  0.23874091779E+04  0.27104549288E+04  0.00000000000E+00 0. -1.
<mgrwt>
<rscale>  0 0.29350826E+04</rscale>
<asrwt>0</asrwt>
<pdfrwt beam="1">  1        2 0.52928555E+00 0.29350826E+04</pdfrwt>
<pdfrwt beam="2">  1       -2 0.96308342E-01 0.29350826E+04</pdfrwt>
<totfact> 0.69435516E-01</totfact>
</mgrwt>
</event>
<event>
 6    1  0.1817112E-005  0.6793830E+03  0.7818608E-02  0.9753154E-01
          2   -1    0    0  501    0  0.00000000000E+00  0.00000000000E+00  0.24609467875E+03  0.24609467875E+03  0.00000000000E+00 0. -1.
         -2   -1    0    0    0  501 -0.00000000000E+00 -0.00000000000E+00 -0.46888590541E+03  0.46888590541E+03  0.00000000000E+00 0.  1.
         23    2    1    2    0    0 -0.89289160910E+02 -0.23231892664E+03  0.12018739352E+03  0.29121299239E+03  0.91735268244E+02 0.  0.
         11    1    3    3    0    0 -0.11944356890E+02 -0.57087179804E+02 -0.10599282351E+02  0.59278651687E+02  0.00000000000E+00 0.  1.
        -11    1    3    3    0    0 -0.77344804019E+02 -0.17523174684E+03  0.13078667587E+03  0.23193434070E+03  0.00000000000E+00 0. -1.
         22    1    1    2    0    0  0.89289160910E+02  0.23231892664E+03 -0.34297862018E+03  0.42376759177E+03  0.00000000000E+00 0.  1.
<mgrwt>
<rscale>  0 0.67938303E+03</rscale>
<asrwt>0</asrwt>
<pdfrwt beam="1">  1        2 0.37860720E-01 0.67938303E+03</pdfrwt>
<pdfrwt beam="2">  1       -2 0.72136293E-01 0.67938303E+03</pdfrwt>
<totfact> 0.24078008E+02</totfact>
</mgrwt>
</event>
<event>
 6    1  0.1817112E-005  0.2887326E+04  0.7818608E-02  0.8276658E-01
         -2   -1    0    0    0  501 -0.00000000000E+00  0.00000000000E+00  0.89238474921E+03  0.89238474921E+03  0.00000000000E+00 0.  1.
          2   -1    0    0  501    0  0.00000000000E+00 -0.00000000000E+00 -0.23354986368E+04  0.23354986368E+04  0.00000000000E+00 0. -1.
         23    2    1    2    0    0 -0.66062920874E+03 -0.12351467922E+04 -0.33824156693E+03  0.14438538474E+04  0.91038593534E+02 0.  0.
         11    1    3    3    0    0 -0.23925925672E+03 -0.48041839387E+03 -0.87107992755E+02  0.54372293266E+03  0.00000000000E+00 0. -1.
        -11    1    3    3    0    0 -0.42136995202E+03 -0.75472839829E+03 -0.25113357418E+03  0.90013091477E+03  0.00000000000E+00 0.  1.
         22    1    1    2    0    0  0.66062920874E+03  0.12351467922E+04 -0.11048723207E+04  0.17840295386E+04  0.00000000000E+00 0. -1.
<mgrwt>
<rscale>  0 0.28873264E+04</rscale>
<asrwt>0</asrwt>
<pdfrwt beam="1">  1        2 0.35930748E+00 0.28873264E+04</pdfrwt>
<pdfrwt beam="2">  1       -2 0.13728996E+00 0.28873264E+04</pdfrwt>
<totfact> 0.14125582E+00</totfact>
</mgrwt>
</event>
<event>
 6    1  0.1817112E-005  0.4929045E+04  0.7818608E-02  0.7839547E-01
          2   -1    0    0  501    0  0.00000000000E+00  0.00000000000E+00  0.19661119122E+04  0.19661119122E+04  0.00000000000E+00 0. -1.
         -2   -1    0    0    0  501 -0.00000000000E+00 -0.00000000000E+00 -0.30892802309E+04  0.30892802309E+04  0.00000000000E+00 0.  1.
         23    2    1    2    0    0 -0.18389849352E+04 -0.15663070928E+04 -0.10593922458E+04  0.26389379457E+04  0.80610481087E+02 0.  0.
         13    1    3    3    0    0 -0.47899609828E+03 -0.45284634320E+03 -0.27692840714E+03  0.71498001049E+03  0.00000000000E+00 0. -1.
        -13    1    3    3    0    0 -0.13599888369E+04 -0.11134607496E+04 -0.78246383869E+03  0.19239579352E+04  0.00000000000E+00 0.  1.
         22    1    1    2    0    0  0.18389849352E+04  0.15663070928E+04 -0.63776072848E+02  0.24164541975E+04  0.00000000000E+00 0. -1.
<mgrwt>
<rscale>  0 0.49290448E+04</rscale>
<asrwt>0</asrwt>
<pdfrwt beam="1">  1        2 0.30247876E+00 0.49290448E+04</pdfrwt>
<pdfrwt beam="2">  1       -2 0.47527388E+00 0.49290448E+04</pdfrwt>
<totfact> 0.12155320E-02</totfact>
</mgrwt>
</event>
<event>
 6    1  0.1817112E-005  0.1503796E+04  0.7818608E-02  0.8881933E-01
          4   -1    0    0  501    0  0.00000000000E+00  0.00000000000E+00  0.23969685857E+04  0.23969685857E+04  0.00000000000E+00 0.  1.
         -4   -1    0    0    0  501 -0.00000000000E+00 -0.00000000000E+00 -0.23586062902E+03  0.23586062902E+03  0.00000000000E+00 0. -1.
         23    2    1    2    0    0  0.58624695382E+03  0.32148116247E+02  0.27010733753E+03  0.65277812098E+03  0.91882039626E+02 0.  0.
         11    1    3    3    0    0  0.55845981596E+03  0.16332151066E+02  0.23741564602E+03  0.60705048734E+03  0.00000000000E+00 0.  1.
        -11    1    3    3    0    0  0.27787137858E+02  0.15815965181E+02  0.32691691512E+02  0.45727633646E+02  0.00000000000E+00 0. -1.
         22    1    1    2    0    0 -0.58624695382E+03 -0.32148116247E+02  0.18910006192E+04  0.19800510938E+04  0.00000000000E+00 0.  1.
<mgrwt>
<rscale>  0 0.15037959E+04</rscale>
<asrwt>0</asrwt>
<pdfrwt beam="1">  1        4 0.36876438E+00 0.15037959E+04</pdfrwt>
<pdfrwt beam="2">  1       -4 0.36286252E-01 0.15037959E+04</pdfrwt>
<totfact> 0.16164447E-01</totfact>
</mgrwt>
</event>
<event>
 6    1  0.1817112E-005  0.2390073E+04  0.7818608E-02  0.8443229E-01
          2   -1    0    0  501    0  0.00000000000E+00  0.00000000000E+00  0.88728940583E+03  0.88728940583E+03  0.00000000000E+00 0.  1.
         -2   -1    0    0    0  501 -0.00000000000E+00 -0.00000000000E+00 -0.16095226222E+04  0.16095226222E+04  0.00000000000E+00 0. -1.
         23    2    1    2    0    0 -0.11170283542E+04  0.20335214059E+03 -0.74518233310E+03  0.13611927701E+04  0.91894562784E+02 0.  0.
         11    1    3    3    0    0 -0.65693151648E+03  0.14504431020E+03 -0.48570965038E+03  0.82976546911E+03  0.00000000000E+00 0. -1.
        -11    1    3    3    0    0 -0.46009683770E+03  0.58307830390E+02 -0.25947268272E+03  0.53142730098E+03  0.00000000000E+00 0.  1.
         22    1    1    2    0    0  0.11170283542E+04 -0.20335214059E+03  0.22949116702E+02  0.11356192580E+04  0.00000000000E+00 0.  1.
<mgrwt>
<rscale>  0 0.23900731E+04</rscale>
<asrwt>0</asrwt>
<pdfrwt beam="1">  1        2 0.13650606E+00 0.23900731E+04</pdfrwt>
<pdfrwt beam="2">  1       -2 0.24761886E+00 0.23900731E+04</pdfrwt>
<totfact> 0.17889868E+00</totfact>
</mgrwt>
</event>
<event>
 6    1  0.2688297E-005  0.2283118E+04  0.7818608E-02  0.8484607E-01
         -2   -1    0    0    0  501 -0.00000000000E+00  0.00000000000E+00  0.81690233439E+03  0.81690233439E+03  0.00000000000E+00 0.  1.
          2   -1    0    0  501    0  0.00000000000E+00 -0.00000000000E+00 -0.15952420284E+04  0.15952420284E+04  0.00000000000E+00 0. -1.
         23    2    1    2    0    0  0.34281463206E+03 -0.90358300574E+03  0.24832200698E+03  0.10021733104E+04  0.93292040197E+02 0.  0.
         13    1    3    3    0    0  0.12498312490E+03 -0.22705309012E+03  0.86678237065E+02  0.27328923144E+03  0.00000000000E+00 0.  1.
        -13    1    3    3    0    0  0.21783150716E+03 -0.67652991563E+03  0.16164376992E+03  0.72888407899E+03  0.00000000000E+00 0. -1.
         22    1    1    2    0    0 -0.34281463206E+03  0.90358300574E+03 -0.10266617010E+04  0.14099710524E+04  0.00000000000E+00 0. -1.
<mgrwt>
<rscale>  0 0.22831180E+04</rscale>
<asrwt>0</asrwt>
<pdfrwt beam="1">  1        2 0.24542185E+00 0.22831180E+04</pdfrwt>
<pdfrwt beam="2">  1       -2 0.12567728E+00 0.22831180E+04</pdfrwt>
<totfact> 0.48191879E+00</totfact>
</mgrwt>
</event>
<event>
 6    1  0.1817112E-005  0.2356546E+04  0.7818608E-02  0.8455954E-01
          1   -1    0    0  501    0  0.00000000000E+00  0.00000000000E+00  0.27898494956E+03  0.27898494956E+03  0.00000000000E+00 0. -1.
         -1   -1    0    0    0  501 -0.00000000000E+00 -0.00000000000E+00 -0.49763503665E+04  0.49763503665E+04  0.00000000000E+00 0.  1.
         23    2    1    2    0    0  0.36683244924E+03 -0.65632445166E+03 -0.43702021768E+04  0.44353575009E+04  0.91658403099E+02 0.  0.
         13    1    3    3    0    0  0.19856761148E+03 -0.43832990789E+03 -0.26765903043E+04  0.27195032380E+04  0.00000000000E+00 0.  1.
        -13    1    3    3    0    0  0.16826483775E+03 -0.21799454377E+03 -0.16936118725E+04  0.17158542629E+04  0.00000000000E+00 0. -1.
         22    1    1    2    0    0 -0.36683244924E+03  0.65632445166E+03 -0.32716324010E+03  0.81997781515E+03  0.00000000000E+00 0. -1.
<mgrwt>
<rscale>  0 0.23565457E+04</rscale>
<asrwt>0</asrwt>
<pdfrwt beam="1">  1        1 0.42920762E-01 0.23565457E+04</pdfrwt>
<pdfrwt beam="2">  1       -1 0.76559235E+00 0.23565457E+04</pdfrwt>
<totfact> 0.93560465E-03</totfact>
</mgrwt>
</event>
<event>
 6    1  0.1817112E-005  0.1877843E+04  0.7818608E-02  0.8665964E-01
          3   -1    0    0  501    0  0.00000000000E+00  0.00000000000E+00  0.96810943066E+03  0.96810943066E+03  0.00000000000E+00 0. -1.
         -3   -1    0    0    0  501 -0.00000000000E+00 -0.00000000000E+00 -0.91061404667E+03  0.91061404667E+03  0.00000000000E+00 0.  1.
         23    2    1    2    0    0  0.68111141764E+03 -0.34657591559E+02 -0.61329450080E+03  0.92212900660E+03  0.95277742423E+02 0.  0.
         13    1    3    3    0    0  0.12927729151E+03 -0.42886687644E+02 -0.10746082879E+03  0.17349269668E+03  0.00000000000E+00 0.  1.
        -13    1    3    3    0    0  0.55183412613E+03  0.82290960856E+01 -0.50583367201E+03  0.74863630992E+03  0.00000000000E+00 0. -1.
         22    1    1    2    0    0 -0.68111141764E+03  0.34657591559E+02  0.67078988479E+03  0.95659447073E+03  0.00000000000E+00 0. -1.
<mgrwt>
<rscale>  0 0.18778435E+04</rscale>
<asrwt>0</asrwt>
<pdfrwt beam="1">  1        3 0.14893991E+00 0.18778435E+04</pdfrwt>
<pdfrwt beam="2">  1       -3 0.14009447E+00 0.18778435E+04</pdfrwt>
<totfact> 0.31083547E-01</totfact>
</mgrwt>
</event>
<event>
 6    1  0.1817112E-005  0.1936422E+04  0.7818608E-02  0.8636936E-01
          2   -1    0    0  501    0  0.00000000000E+00  0.00000000000E+00  0.20573952005E+03  0.20573952005E+03  0.00000000000E+00 0. -1.
         -2   -1    0    0    0  501 -0.00000000000E+00 -0.00000000000E+00 -0.45564041535E+04  0.45564041535E+04  0.00000000000E+00 0.  1.
         23    2    1    2    0    0 -0.43412952251E+03 -0.75360435330E+03 -0.11456494519E+04  0.14412235786E+04  0.90690534392E+02 0.  0.
         11    1    3    3    0    0 -0.33707921144E+03 -0.64989079779E+03 -0.94591726460E+03  0.11961354084E+04  0.00000000000E+00 0. -1.
        -11    1    3    3    0    0 -0.97050311070E+02 -0.10371355551E+03 -0.19973218733E+03  0.24508817012E+03  0.00000000000E+00 0.  1.
         22    1    1    2    0    0  0.43412952251E+03  0.75360435330E+03 -0.32050151816E+04  0.33209200950E+04  0.00000000000E+00 0.  1.
<mgrwt>
<rscale>  0 0.19364219E+04</rscale>
<asrwt>0</asrwt>
<pdfrwt beam="1">  1        2 0.31652233E-01 0.19364219E+04</pdfrwt>
<pdfrwt beam="2">  1       -2 0.70098527E+00 0.19364219E+04</pdfrwt>
<totfact> 0.35064153E-02</totfact>
</mgrwt>
</event>
<event>
 6    1  0.1817112E-005  0.2140329E+04  0.7818608E-02  0.8543683E-01
         -2   -1    0    0    0  501 -0.00000000000E+00  0.00000000000E+00  0.18715162822E+04  0.18715162822E+04  0.00000000000E+00 0.  1.
          2   -1    0    0  501    0  0.00000000000E+00 -0.00000000000E+00 -0.61193781660E+03  0.61193781660E+03  0.00000000000E+00 0. -1.
         23    2    1    2    0    0  0.10137994854E+04  0.32798566120E+03  0.54156902642E+03  0.11985799628E+04  0.89066976801E+02 0.  0.
         13    1    3    3    0    0  0.26384068824E+03  0.70420484597E+02  0.18012537492E+03  0.32713315960E+03  0.00000000000E+00 0.  1.
        -13    1    3    3    0    0  0.74995879716E+03  0.25756517660E+03  0.36144365150E+03  0.87144680322E+03  0.00000000000E+00 0. -1.
         22    1    1    2    0    0 -0.10137994854E+04 -0.32798566120E+03  0.71800943917E+03  0.12848741360E+04  0.00000000000E+00 0.  1.
<mgrwt>
<rscale>  0 0.21403286E+04</rscale>
<asrwt>0</asrwt>
<pdfrwt beam="1">  1        2 0.94144280E-01 0.21403286E+04</pdfrwt>
<pdfrwt beam="2">  1       -2 0.28792558E+00 0.21403286E+04</pdfrwt>
<totfact> 0.16763298E+00</totfact>
</mgrwt>
</event>
<event>
 6    1  0.1817112E-005  0.1645182E+04  0.7818608E-02  0.8793262E-01
         -1   -1    0    0    0  501 -0.00000000000E+00  0.00000000000E+00  0.90860526394E+03  0.90860526394E+03  0.00000000000E+00 0.  1.
          1   -1    0    0  501    0  0.00000000000E+00 -0.00000000000E+00 -0.74471969177E+03  0.74471969177E+03  0.00000000000E+00 0. -1.
         23    2    1    2    0    0  0.47318819594E+03  0.65805080734E+03 -0.44743333119E+02  0.81638770960E+03  0.86884939461E+02 0.  0.
         11    1    3    3    0    0  0.32002704102E+03  0.40775997345E+03  0.71591784478E+01  0.51839826077E+03  0.00000000000E+00 0. -1.
        -11    1    3    3    0    0  0.15316115491E+03  0.25029083389E+03 -0.51902511567E+02  0.29798944882E+03  0.00000000000E+00 0.  1.
         22    1    1    2    0    0 -0.47318819594E+03 -0.65805080734E+03  0.20862890528E+03  0.83693724611E+03  0.00000000000E+00 0. -1.
<mgrwt>
<rscale>  0 0.16451823E+04</rscale>
<asrwt>0</asrwt>
<pdfrwt beam="1">  1        1 0.11457226E+00 0.16451823E+04</pdfrwt>
<pdfrwt beam="2">  1       -1 0.13978542E+00 0.16451823E+04</pdfrwt>
<totfact> 0.99645207E+00</totfact>
</mgrwt>
</event>
<event>
 6    1  0.1817112E-005  0.5068428E+04  0.7818608E-02  0.7818037E-01
         -2   -1    0    0    0  501 -0.00000000000E+00  0.00000000000E+00  0.19574635041E+04  0.19574635041E+04  0.00000000000E+00 0.  1.
          2   -1    0    0  501    0  0.00000000000E+00 -0.00000000000E+00 -0.32808996113E+04  0.32808996113E+04  0.00000000000E+00 0. -1.
         23    2    1    2    0    0 -0.18695983718E+04  0.16716007853E+04 -0.29145814208E+03  0.25264217853E+04  0.90619707689E+02 0.  0.
         11    1    3    3    0    0 -0.14014200571E+04  0.12046962926E+04 -0.19730790451E+03  0.18585482891E+04  0.00000000000E+00 0. -1.
        -11    1    3    3    0    0 -0.46817831471E+03  0.46690449269E+03 -0.94150237575E+02  0.66787349617E+03  0.00000000000E+00 0.  1.
         22    1    1    2    0    0  0.18695983718E+04 -0.16716007853E+04 -0.10319779651E+04  0.27119413300E+04  0.00000000000E+00 0.  1.
<mgrwt>
<rscale>  0 0.50684283E+04</rscale>
<asrwt>0</asrwt>
<pdfrwt beam="1">  1        2 0.50475378E+00 0.50684283E+04</pdfrwt>
<pdfrwt beam="2">  1       -2 0.30114824E+00 0.50684283E+04</pdfrwt>
<totfact> 0.25941668E-02</totfact>
</mgrwt>
</event>
<event>
 6    1  0.1817112E-005  0.3459760E+04  0.7818608E-02  0.8123393E-01
         -2   -1    0    0    0  501 -0.00000000000E+00  0.00000000000E+00  0.11380611934E+04  0.11380611934E+04  0.00000000000E+00 0. -1.
          2   -1    0    0  501    0  0.00000000000E+00 -0.00000000000E+00 -0.26294587838E+04  0.26294587838E+04  0.00000000000E+00 0.  1.
         23    2    1    2    0    0 -0.34254441045E+03 -0.10912671128E+04 -0.21578056363E+04  0.24437751876E+04  0.87814685040E+02 0.  0.
         11    1    3    3    0    0 -0.19125553528E+03 -0.51825810342E+03 -0.11143856624E+04  0.12437948168E+04  0.00000000000E+00 0.  1.
        -11    1    3    3    0    0 -0.15128887516E+03 -0.57300900935E+03 -0.10434199738E+04  0.11999803708E+04  0.00000000000E+00 0. -1.
         22    1    1    2    0    0  0.34254441045E+03  0.10912671128E+04  0.66640804580E+03  0.13237447896E+04  0.00000000000E+00 0. -1.
<mgrwt>
<rscale>  0 0.34597601E+04</rscale>
<asrwt>0</asrwt>
<pdfrwt beam="1">  1        2 0.40453212E+00 0.34597601E+04</pdfrwt>
<pdfrwt beam="2">  1       -2 0.17508634E+00 0.34597601E+04</pdfrwt>
<totfact> 0.47286402E-01</totfact>
</mgrwt>
</event>
<event>
 6    1  0.1817112E-005  0.1587066E+04  0.7818608E-02  0.8828534E-01
          2   -1    0    0  501    0  0.00000000000E+00  0.00000000000E+00  0.19443576372E+04  0.19443576372E+04  0.00000000000E+00 0.  1.
         -2   -1    0    0    0  501 -0.00000000000E+00 -0.00000000000E+00 -0.32385722198E+03  0.32385722198E+03  0.00000000000E+00 0. -1.
         23    2    1    2    0    0  0.76433214777E+02  0.57072247308E+03  0.15878134670E+04  0.16914700159E+04  0.91394919902E+02 0.  0.
         13    1    3    3    0    0  0.42219537513E+02  0.51333482702E+03  0.14369775105E+04  0.15264990991E+04  0.00000000000E+00 0. -1.
        -13    1    3    3    0    0  0.34213677265E+02  0.57387646063E+02  0.15083595650E+03  0.16497091685E+03  0.00000000000E+00 0.  1.
         22    1    1    2    0    0 -0.76433214777E+02 -0.57072247308E+03  0.32686948246E+02  0.57674484322E+03  0.00000000000E+00 0. -1.
<mgrwt>
<rscale>  0 0.15870655E+04</rscale>
<asrwt>0</asrwt>
<pdfrwt beam="1">  1        2 0.29913194E+00 0.15870655E+04</pdfrwt>
<pdfrwt beam="2">  1       -2 0.49824189E-01 0.15870655E+04</pdfrwt>
<totfact> 0.26253003E+01</totfact>
</mgrwt>
</event>
<event>
 6    1  0.1817112E-005  0.2825360E+04  0.7818608E-02  0.8295438E-01
         -2   -1    0    0    0  501 -0.00000000000E+00  0.00000000000E+00  0.15376493732E+04  0.15376493732E+04  0.00000000000E+00 0. -1.
          2   -1    0    0  501    0  0.00000000000E+00 -0.00000000000E+00 -0.12978675847E+04  0.12978675847E+04  0.00000000000E+00 0.  1.
         23    2    1    2    0    0 -0.10909089069E+04 -0.13815003313E+03  0.10077643947E+04  0.14942619641E+04  0.89789014876E+02 0.  0.
         11    1    3    3    0    0 -0.98875502175E+03 -0.13673891760E+03  0.88013127658E+03  0.13307761227E+04  0.00000000000E+00 0. -1.
        -11    1    3    3    0    0 -0.10215388519E+03 -0.14111155250E+01  0.12763311811E+03  0.16348584141E+03  0.00000000000E+00 0.  1.
         22    1    1    2    0    0  0.10909089069E+04  0.13815003313E+03 -0.76798260617E+03  0.13412549938E+04  0.00000000000E+00 0.  1.
<mgrwt>
<rscale>  0 0.28253604E+04</rscale>
<asrwt>0</asrwt>
<pdfrwt beam="1">  1        2 0.19967193E+00 0.28253604E+04</pdfrwt>
<pdfrwt beam="2">  1       -2 0.23656144E+00 0.28253604E+04</pdfrwt>
<totfact> 0.11201408E+00</totfact>
</mgrwt>
</event>
<event>
 6    1  0.1817112E-005  0.1583562E+04  0.7818608E-02  0.8830711E-01
          2   -1    0    0  501    0  0.00000000000E+00  0.00000000000E+00  0.19392716923E+04  0.19392716923E+04  0.00000000000E+00 0. -1.
         -2   -1    0    0    0  501 -0.00000000000E+00 -0.00000000000E+00 -0.32327453855E+03  0.32327453855E+03  0.00000000000E+00 0.  1.
         23    2    1    2    0    0  0.34824620342E+03 -0.15691972700E+03 -0.17810335110E+03  0.42823550461E+03  0.75931711558E+02 0.  0.
         11    1    3    3    0    0  0.11243016749E+03 -0.65890258210E+02 -0.98062973929E+02  0.16309020677E+03  0.00000000000E+00 0.  1.
        -11    1    3    3    0    0  0.23581603593E+03 -0.91029468789E+02 -0.80040377170E+02  0.26514529784E+03  0.00000000000E+00 0. -1.
         22    1    1    2    0    0 -0.34824620342E+03  0.15691972700E+03  0.17941005048E+04  0.18343107262E+04  0.00000000000E+00 0. -1.
<mgrwt>
<rscale>  0 0.15835620E+04</rscale>
<asrwt>0</asrwt>
<pdfrwt beam="1">  1        2 0.29834948E+00 0.15835620E+04</pdfrwt>
<pdfrwt beam="2">  1       -2 0.49734546E-01 0.15835620E+04</pdfrwt>
<totfact> 0.26528644E+01</totfact>
</mgrwt>
</event>
<event>
 6    1  0.1817112E-005  0.3466558E+04  0.7818608E-02  0.8121761E-01
         -2   -1    0    0    0  501 -0.00000000000E+00  0.00000000000E+00  0.13040305229E+04  0.13040305229E+04  0.00000000000E+00 0.  1.
          2   -1    0    0  501    0  0.00000000000E+00 -0.00000000000E+00 -0.23038235361E+04  0.23038235361E+04  0.00000000000E+00 0. -1.
         23    2    1    2    0    0  0.78479881440E+03  0.14603919702E+04 -0.10222034712E+04  0.19497961245E+04  0.90283470591E+02 0.  0.
         11    1    3    3    0    0  0.24056657700E+03  0.46498043413E+03 -0.37164523502E+03  0.64202746265E+03  0.00000000000E+00 0. -1.
        -11    1    3    3    0    0  0.54423223740E+03  0.99541153603E+03 -0.65055823622E+03  0.13077686619E+04  0.00000000000E+00 0.  1.
         22    1    1    2    0    0 -0.78479881440E+03 -0.14603919702E+04  0.22410458057E+02  0.16580579345E+04  0.00000000000E+00 0.  1.
<mgrwt>
<rscale>  0 0.34665581E+04</rscale>
<asrwt>0</asrwt>
<pdfrwt beam="1">  1        2 0.35443439E+00 0.34665581E+04</pdfrwt>
<pdfrwt beam="2">  1       -2 0.20062008E+00 0.34665581E+04</pdfrwt>
<totfact> 0.48972314E-01</totfact>
</mgrwt>
</event>
<event>
 6    1  0.1817112E-005  0.4632806E+03  0.7818608E-02  0.1023834E+00
         -2   -1    0    0    0  501 -0.00000000000E+00  0.00000000000E+00  0.27947768390E+02  0.27947768390E+02  0.00000000000E+00 0.  1.
          2   -1    0    0  501    0  0.00000000000E+00 -0.00000000000E+00 -0.19199113733E+04  0.19199113733E+04  0.00000000000E+00 0. -1.
         23    2    1    2    0    0  0.14311826829E+03  0.16090821973E+03 -0.12289740781E+04  0.12507727722E+04  0.87641024009E+02 0.  0.
         13    1    3    3    0    0  0.84141952601E+02  0.14408464237E+03 -0.99507390513E+03  0.10089659702E+04  0.00000000000E+00 0.  1.
        -13    1    3    3    0    0  0.58976315690E+02  0.16823577358E+02 -0.23390017299E+03  0.24180680200E+03  0.00000000000E+00 0. -1.
         22    1    1    2    0    0 -0.14311826829E+03 -0.16090821973E+03 -0.66298952681E+03  0.69708636951E+03  0.00000000000E+00 0.  1.
<mgrwt>
<rscale>  0 0.46328064E+03</rscale>
<asrwt>0</asrwt>
<pdfrwt beam="1">  1        2 0.29537098E+00 0.46328064E+03</pdfrwt>
<pdfrwt beam="2">  1       -2 0.42996567E-02 0.46328064E+03</pdfrwt>
<totfact> 0.19964950E+03</totfact>
</mgrwt>
</event>
<event>
 6    1  0.1817112E-005  0.3683860E+04  0.7818608E-02  0.8071548E-01
          2   -1    0    0  501    0  0.00000000000E+00  0.00000000000E+00  0.30751000627E+04  0.30751000627E+04  0.00000000000E+00 0. -1.
         -2   -1    0    0    0  501 -0.00000000000E+00 -0.00000000000E+00 -0.11032832642E+04  0.11032832642E+04  0.00000000000E+00 0.  1.
         23    2    1    2    0    0  0.88099368173E+03  0.87840975525E+03  0.25254099084E+04  0.28166862620E+04  0.90954536006E+02 0.  0.
         13    1    3    3    0    0  0.38007187830E+03  0.31938185937E+03  0.97338247337E+03  0.10926723407E+04  0.00000000000E+00 0.  1.
        -13    1    3    3    0    0  0.50092180343E+03  0.55902789588E+03  0.15520274350E+04  0.17240139212E+04  0.00000000000E+00 0. -1.
         22    1    1    2    0    0 -0.88099368173E+03 -0.87840975525E+03 -0.55359310989E+03  0.13616970649E+04  0.00000000000E+00 0.  1.
<mgrwt>
<rscale>  0 0.36838602E+04</rscale>
<asrwt>0</asrwt>
<pdfrwt beam="1">  1        2 0.47309232E+00 0.36838602E+04</pdfrwt>
<pdfrwt beam="2">  1       -2 0.16973589E+00 0.36838602E+04</pdfrwt>
<totfact> 0.27024898E-01</totfact>
</mgrwt>
</event>
<event>
 6    1  0.1817112E-005  0.3471101E+04  0.7818608E-02  0.8120673E-01
          2   -1    0    0  501    0  0.00000000000E+00  0.00000000000E+00  0.21568995246E+04  0.21568995246E+04  0.00000000000E+00 0. -1.
         -2   -1    0    0    0  501 -0.00000000000E+00 -0.00000000000E+00 -0.13965113563E+04  0.13965113563E+04  0.00000000000E+00 0.  1.
         23    2    1    2    0    0 -0.81078473004E+02  0.16760619709E+04  0.82783346737E+03  0.18740341162E+04  0.10458570724E+03 0.  0.
         13    1    3    3    0    0  0.12072758136E+01  0.15241196178E+03  0.44163656185E+02  0.15868614349E+03  0.00000000000E+00 0.  1.
        -13    1    3    3    0    0 -0.82285748817E+02  0.15236500091E+04  0.78366981118E+03  0.17153479728E+04  0.00000000000E+00 0. -1.
         22    1    1    2    0    0  0.81078473004E+02 -0.16760619709E+04 -0.67445299071E+02  0.16793767646E+04  0.00000000000E+00 0. -1.
<mgrwt>
<rscale>  0 0.34711005E+04</rscale>
<asrwt>0</asrwt>
<pdfrwt beam="1">  1        2 0.33183070E+00 0.34711005E+04</pdfrwt>
<pdfrwt beam="2">  1       -2 0.21484790E+00 0.34711005E+04</pdfrwt>
<totfact> 0.47937089E-01</totfact>
</mgrwt>
</event>
<event>
 6    1  0.1817112E-005  0.1166525E+04  0.7818608E-02  0.9142673E-01
          2   -1    0    0  501    0  0.00000000000E+00  0.00000000000E+00  0.32863020355E+04  0.32863020355E+04  0.00000000000E+00 0. -1.
         -2   -1    0    0    0  501 -0.00000000000E+00 -0.00000000000E+00 -0.10351908716E+03  0.10351908716E+03  0.00000000000E+00 0.  1.
         23    2    1    2    0    0 -0.49884674174E+03  0.29168044003E+03  0.14770647718E+04  0.15888769123E+04  0.94254717006E+02 0.  0.
         11    1    3    3    0    0 -0.33753910140E+03  0.14763222610E+03  0.97083576357E+03  0.10383881736E+04  0.00000000000E+00 0. -1.
        -11    1    3    3    0    0 -0.16130764034E+03  0.14404821393E+03  0.50622900819E+03  0.55048873876E+03  0.00000000000E+00 0.  1.
         22    1    1    2    0    0  0.49884674174E+03 -0.29168044003E+03  0.17057181766E+04  0.18009442103E+04  0.00000000000E+00 0.  1.
<mgrwt>
<rscale>  0 0.11665247E+04</rscale>
<asrwt>0</asrwt>
<pdfrwt beam="1">  1        2 0.50558485E+00 0.11665247E+04</pdfrwt>
<pdfrwt beam="2">  1       -2 0.15926016E-01 0.11665247E+04</pdfrwt>
<totfact> 0.36474679E+01</totfact>
</mgrwt>
</event>
<event>
 6    1  0.1817112E-005  0.1013800E+04  0.7818608E-02  0.9293537E-01
          2   -1    0    0  501    0  0.00000000000E+00  0.00000000000E+00  0.28994130466E+04  0.28994130466E+04  0.00000000000E+00 0. -1.
         -2   -1    0    0    0  501 -0.00000000000E+00 -0.00000000000E+00 -0.88620630113E+02  0.88620630113E+02  0.00000000000E+00 0.  1.
         23    2    1    2    0    0 -0.48750445187E+03  0.10297974244E+03  0.12172476062E+04  0.13184078263E+04  0.90785702235E+02 0.  0.
         11    1    3    3    0    0 -0.20756624558E+03  0.24813066944E+02  0.61793167592E+03  0.65233349654E+03  0.00000000000E+00 0. -1.
        -11    1    3    3    0    0 -0.27993820629E+03  0.78166675500E+02  0.59931593028E+03  0.66607432978E+03  0.00000000000E+00 0.  1.
         22    1    1    2    0    0  0.48750445187E+03 -0.10297974244E+03  0.15935448103E+04  0.16696258504E+04  0.00000000000E+00 0.  1.
<mgrwt>
<rscale>  0 0.10138004E+04</rscale>
<asrwt>0</asrwt>
<pdfrwt beam="1">  1        2 0.44606347E+00 0.10138004E+04</pdfrwt>
<pdfrwt beam="2">  1       -2 0.13633945E-01 0.10138004E+04</pdfrwt>
<totfact> 0.84488649E+01</totfact>
</mgrwt>
</event>
<event>
 6    1  0.1817112E-005  0.2016916E+04  0.7818608E-02  0.8598752E-01
          2   -1    0    0  501    0  0.00000000000E+00  0.00000000000E+00  0.15106148856E+04  0.15106148856E+04  0.00000000000E+00 0. -1.
         -2   -1    0    0    0  501 -0.00000000000E+00 -0.00000000000E+00 -0.67322751927E+03  0.67322751927E+03  0.00000000000E+00 0.  1.
         23    2    1    2    0    0 -0.14998760741E+03  0.96577130218E+03  0.15857023096E+03  0.99388308043E+03  0.86305092208E+02 0.  0.
         11    1    3    3    0    0 -0.70402314376E+02  0.29803603854E+03  0.82339795541E+02  0.31711481843E+03  0.00000000000E+00 0. -1.
        -11    1    3    3    0    0 -0.79585293032E+02  0.66773526364E+03  0.76230435414E+02  0.67676826200E+03  0.00000000000E+00 0.  1.
         22    1    1    2    0    0  0.14998760741E+03 -0.96577130218E+03  0.67881713532E+03  0.11899593244E+04  0.00000000000E+00 0. -1.
<mgrwt>
<rscale>  0 0.20169160E+04</rscale>
<asrwt>0</asrwt>
<pdfrwt beam="1">  1        2 0.23240229E+00 0.20169160E+04</pdfrwt>
<pdfrwt beam="2">  1       -2 0.10357346E+00 0.20169160E+04</pdfrwt>
<totfact> 0.88244614E+00</totfact>
</mgrwt>
</event>
<event>
 6    1  0.1817112E-005  0.2130917E+04  0.7818608E-02  0.8547745E-01
          2   -1    0    0  501    0  0.00000000000E+00  0.00000000000E+00  0.97142067659E+03  0.97142067659E+03  0.00000000000E+00 0. -1.
         -2   -1    0    0    0  501 -0.00000000000E+00 -0.00000000000E+00 -0.11685991701E+04  0.11685991701E+04  0.00000000000E+00 0.  1.
         23    2    1    2    0    0 -0.26338410861E+03 -0.69425413789E+02 -0.11308336980E+04  0.11674443392E+04  0.99751470153E+02 0.  0.
         13    1    3    3    0    0 -0.19954412557E+03 -0.82644196220E+02 -0.97286990453E+03  0.99655595546E+03  0.00000000000E+00 0. -1.
        -13    1    3    3    0    0 -0.63839983042E+02  0.13218782431E+02 -0.15796379351E+03  0.17088838376E+03  0.00000000000E+00 0.  1.
         22    1    1    2    0    0  0.26338410861E+03  0.69425413789E+02  0.93365520454E+03  0.97257550746E+03  0.00000000000E+00 0. -1.
<mgrwt>
<rscale>  0 0.21309166E+04</rscale>
<asrwt>0</asrwt>
<pdfrwt beam="1">  1        2 0.14944934E+00 0.21309166E+04</pdfrwt>
<pdfrwt beam="2">  1       -2 0.17978449E+00 0.21309166E+04</pdfrwt>
<totfact> 0.43953118E+00</totfact>
</mgrwt>
</event>
<event>
 6    1  0.1817112E-005  0.3591816E+04  0.7818608E-02  0.8092369E-01
         -2   -1    0    0    0  501 -0.00000000000E+00  0.00000000000E+00  0.19966230898E+04  0.19966230898E+04  0.00000000000E+00 0.  1.
          2   -1    0    0  501    0  0.00000000000E+00 -0.00000000000E+00 -0.16153705476E+04  0.16153705476E+04  0.00000000000E+00 0. -1.
         23    2    1    2    0    0 -0.95815401610E+03 -0.24449201874E+03  0.16969056804E+04  0.19661568758E+04  0.91915757503E+02 0.  0.
         13    1    3    3    0    0 -0.61908289472E+03 -0.20286696523E+03  0.11062097935E+04  0.12837907709E+04  0.00000000000E+00 0. -1.
        -13    1    3    3    0    0 -0.33907112138E+03 -0.41625053510E+02  0.59069588688E+03  0.68236610497E+03  0.00000000000E+00 0.  1.
         22    1    1    2    0    0  0.95815401610E+03  0.24449201874E+03 -0.13156531382E+04  0.16458367616E+04  0.00000000000E+00 0. -1.
<mgrwt>
<rscale>  0 0.35918163E+04</rscale>
<asrwt>0</asrwt>
<pdfrwt beam="1">  1        2 0.24851854E+00 0.35918163E+04</pdfrwt>
<pdfrwt beam="2">  1       -2 0.30717278E+00 0.35918163E+04</pdfrwt>
<totfact> 0.25607829E-01</totfact>
</mgrwt>
</event>
<event>
 6    1  0.1817112E-005  0.3453015E+04  0.7818608E-02  0.8125016E-01
         -2   -1    0    0    0  501 -0.00000000000E+00  0.00000000000E+00  0.13136751774E+04  0.13136751774E+04  0.00000000000E+00 0. -1.
          2   -1    0    0  501    0  0.00000000000E+00 -0.00000000000E+00 -0.22690759231E+04  0.22690759231E+04  0.00000000000E+00 0.  1.
         23    2    1    2    0    0 -0.12856135358E+02  0.12967408416E+04  0.70264094621E+03  0.14778035138E+04  0.92178282600E+02 0.  0.
         13    1    3    3    0    0  0.14208534011E+02  0.76630163111E+03  0.36961368759E+03  0.85090208034E+03  0.00000000000E+00 0. -1.
        -13    1    3    3    0    0 -0.27064669369E+02  0.53043921046E+03  0.33302725862E+03  0.62690143348E+03  0.00000000000E+00 0.  1.
         22    1    1    2    0    0  0.12856135358E+02 -0.12967408416E+04 -0.16580416919E+04  0.21049475867E+04  0.00000000000E+00 0.  1.
<mgrwt>
<rscale>  0 0.34530153E+04</rscale>
<asrwt>0</asrwt>
<pdfrwt beam="1">  1        2 0.34908860E+00 0.34530153E+04</pdfrwt>
<pdfrwt beam="2">  1       -2 0.20210388E+00 0.34530153E+04</pdfrwt>
<totfact> 0.50166927E-01</totfact>
</mgrwt>
</event>
<event>
 6    1  0.1817112E-005  0.1179661E+04  0.7818608E-02  0.9130848E-01
         -1   -1    0    0    0  501 -0.00000000000E+00  0.00000000000E+00  0.15769553136E+03  0.15769553136E+03  0.00000000000E+00 0.  1.
          1   -1    0    0  501    0  0.00000000000E+00 -0.00000000000E+00 -0.22061513135E+04  0.22061513135E+04  0.00000000000E+00 0. -1.
         23    2    1    2    0    0 -0.30785436537E+03 -0.27820757037E+02 -0.20285517472E+04  0.20540977925E+04  0.93526710075E+02 0.  0.
         13    1    3    3    0    0 -0.12373230605E+03  0.27961844905E+02 -0.96279959194E+03  0.97112028224E+03  0.00000000000E+00 0. -1.
        -13    1    3    3    0    0 -0.18412205931E+03 -0.55782601941E+02 -0.10657521552E+04  0.10829775103E+04  0.00000000000E+00 0.  1.
         22    1    1    2    0    0  0.30785436537E+03  0.27820757037E+02 -0.19904034924E+02  0.30974905230E+03  0.00000000000E+00 0.  1.
<mgrwt>
<rscale>  0 0.11796613E+04</rscale>
<asrwt>0</asrwt>
<pdfrwt beam="1">  1        1 0.33940789E+00 0.11796613E+04</pdfrwt>
<pdfrwt beam="2">  1       -1 0.24260852E-01 0.11796613E+04</pdfrwt>
<totfact> 0.31653937E+01</totfact>
</mgrwt>
</event>
<event>
 6    1  0.1817112E-005  0.4165520E+04  0.7818608E-02  0.7971964E-01
         -2   -1    0    0    0  501 -0.00000000000E+00  0.00000000000E+00  0.14539738942E+04  0.14539738942E+04  0.00000000000E+00 0. -1.
          2   -1    0    0  501    0  0.00000000000E+00 -0.00000000000E+00 -0.29834705371E+04  0.29834705371E+04  0.00000000000E+00 0.  1.
         23    2    1    2    0    0 -0.77357627138E+03 -0.17147459641E+04 -0.17154634386E+04  0.25471117574E+04  0.78673541680E+02 0.  0.
         11    1    3    3    0    0 -0.36614123908E+03 -0.84268784431E+03 -0.78750390134E+03  0.12101010720E+04  0.00000000000E+00 0. -1.
        -11    1    3    3    0    0 -0.40743503230E+03 -0.87205811981E+03 -0.92795953729E+03  0.13370106853E+04  0.00000000000E+00 0.  1.
         22    1    1    2    0    0  0.77357627138E+03  0.17147459641E+04  0.18596679571E+03  0.18903326739E+04  0.00000000000E+00 0. -1.
<mgrwt>
<rscale>  0 0.41655195E+04</rscale>
<asrwt>0</asrwt>
<pdfrwt beam="1">  1        2 0.45899546E+00 0.41655195E+04</pdfrwt>
<pdfrwt beam="2">  1       -2 0.22368829E+00 0.41655195E+04</pdfrwt>
<totfact> 0.12994743E-01</totfact>
</mgrwt>
</event>
<event>
 6    1  0.1865935E-005  0.3809845E+04  0.7818608E-02  0.8044045E-01
          2   -1    0    0  501    0  0.00000000000E+00  0.00000000000E+00  0.19672529093E+04  0.19672529093E+04  0.00000000000E+00 0. -1.
         -2   -1    0    0    0  501 -0.00000000000E+00 -0.00000000000E+00 -0.18445670689E+04  0.18445670689E+04  0.00000000000E+00 0.  1.
         23    2    1    2    0    0  0.18778850639E+04  0.22433096768E+03  0.28024479724E+03  0.19140313911E+04  0.90566679922E+02 0.  0.
         11    1    3    3    0    0  0.13906640414E+04  0.20537569551E+03  0.20102204641E+03  0.14200477160E+04  0.00000000000E+00 0.  1.
        -11    1    3    3    0    0  0.48722102249E+03  0.18955272174E+02  0.79222750835E+02  0.49398367518E+03  0.00000000000E+00 0. -1.
         22    1    1    2    0    0 -0.18778850639E+04 -0.22433096768E+03 -0.15755895680E+03  0.18977885871E+04  0.00000000000E+00 0. -1.
<mgrwt>
<rscale>  0 0.38098451E+04</rscale>
<asrwt>0</asrwt>
<pdfrwt beam="1">  1        2 0.30265430E+00 0.38098451E+04</pdfrwt>
<pdfrwt beam="2">  1       -2 0.28377955E+00 0.38098451E+04</pdfrwt>
<totfact> 0.22293073E-01</totfact>
</mgrwt>
</event>
<event>
 6    1  0.1817112E-005  0.2306404E+04  0.7818608E-02  0.8475400E-01
          2   -1    0    0  501    0  0.00000000000E+00  0.00000000000E+00  0.22404941079E+04  0.22404941079E+04  0.00000000000E+00 0. -1.
         -2   -1    0    0    0  501 -0.00000000000E+00 -0.00000000000E+00 -0.59356339137E+03  0.59356339137E+03  0.00000000000E+00 0.  1.
         23    2    1    2    0    0  0.11364390726E+04  0.99537640433E+02  0.63699629257E+03  0.13104535323E+04  0.10061151037E+03 0.  0.
         13    1    3    3    0    0  0.25773243800E+03  0.41280619593E+02  0.19015625347E+03  0.32293884852E+03  0.00000000000E+00 0.  1.
        -13    1    3    3    0    0  0.87870663457E+03  0.58257020840E+02  0.44684003910E+03  0.98751468377E+03  0.00000000000E+00 0. -1.
         22    1    1    2    0    0 -0.11364390726E+04 -0.99537640433E+02  0.10099344240E+04  0.15236039670E+04  0.00000000000E+00 0. -1.
<mgrwt>
<rscale>  0 0.23064044E+04</rscale>
<asrwt>0</asrwt>
<pdfrwt beam="1">  1        2 0.34469140E+00 0.23064044E+04</pdfrwt>
<pdfrwt beam="2">  1       -2 0.91317446E-01 0.23064044E+04</pdfrwt>
<totfact> 0.45359786E+00</totfact>
</mgrwt>
</event>
<event>
 6    1  0.1817112E-005  0.6814306E+03  0.7818608E-02  0.9749526E-01
         -1   -1    0    0    0  501 -0.00000000000E+00  0.00000000000E+00  0.21560792335E+03  0.21560792335E+03  0.00000000000E+00 0.  1.
          1   -1    0    0  501    0  0.00000000000E+00 -0.00000000000E+00 -0.53841668598E+03  0.53841668598E+03  0.00000000000E+00 0. -1.
         23    2    1    2    0    0  0.17953404321E+03  0.22233917900E+03 -0.35660667904E+03  0.46625824169E+03  0.92526975595E+02 0.  0.
         13    1    3    3    0    0  0.72749456545E+02  0.58479450902E+02 -0.59963201042E+02  0.11094104328E+03  0.00000000000E+00 0. -1.
        -13    1    3    3    0    0  0.10678458667E+03  0.16385972810E+03 -0.29664347800E+03  0.35531719841E+03  0.00000000000E+00 0.  1.
         22    1    1    2    0    0 -0.17953404321E+03 -0.22233917900E+03  0.33797916411E+02  0.28776636764E+03  0.00000000000E+00 0.  1.
<mgrwt>
<rscale>  0 0.68143056E+03</rscale>
<asrwt>0</asrwt>
<pdfrwt beam="1">  1        1 0.82833335E-01 0.68143056E+03</pdfrwt>
<pdfrwt beam="2">  1       -1 0.33170450E-01 0.68143056E+03</pdfrwt>
<totfact> 0.34549488E+02</totfact>
</mgrwt>
</event>
<event>
 6    1  0.1817112E-005  0.1785422E+04  0.7818608E-02  0.8714091E-01
          2   -1    0    0  501    0  0.00000000000E+00  0.00000000000E+00  0.33368293195E+03  0.33368293195E+03  0.00000000000E+00 0. -1.
         -2   -1    0    0    0  501 -0.00000000000E+00 -0.00000000000E+00 -0.23882935842E+04  0.23882935842E+04  0.00000000000E+00 0.  1.
         23    2    1    2    0    0  0.44338506222E+03 -0.76786844176E+03 -0.11506904290E+04  0.14557679918E+04  0.94655824897E+02 0.  0.
         13    1    3    3    0    0  0.38241462875E+03 -0.67324340735E+03 -0.10509453343E+04  0.13053672776E+04  0.00000000000E+00 0.  1.
        -13    1    3    3    0    0  0.60970433473E+02 -0.94625034406E+02 -0.99745094724E+02  0.15040071415E+03  0.00000000000E+00 0. -1.
         22    1    1    2    0    0 -0.44338506222E+03  0.76786844176E+03 -0.90392022325E+03  0.12662085244E+04  0.00000000000E+00 0.  1.
<mgrwt>
<rscale>  0 0.17854219E+04</rscale>
<asrwt>0</asrwt>
<pdfrwt beam="1">  1        2 0.51335836E-01 0.17854219E+04</pdfrwt>
<pdfrwt beam="2">  1       -2 0.36742978E+00 0.17854219E+04</pdfrwt>
<totfact> 0.11159090E+00</totfact>
</mgrwt>
</event>
<event>
 6    1  0.2880542E-005  0.4376039E+04  0.7818608E-02  0.7932705E-01
          2   -1    0    0  501    0  0.00000000000E+00  0.00000000000E+00  0.20882599410E+04  0.20882599410E+04  0.00000000000E+00 0. -1.
         -2   -1    0    0    0  501 -0.00000000000E+00 -0.00000000000E+00 -0.22925450092E+04  0.22925450092E+04  0.00000000000E+00 0.  1.
         23    2    1    2    0    0 -0.31179235528E+03  0.99792331127E+03  0.18208311681E+04  0.21017347058E+04  0.93793511723E+02 0.  0.
         13    1    3    3    0    0 -0.72881469661E+02  0.35353925730E+03  0.57488967850E+03  0.67882240499E+03  0.00000000000E+00 0. -1.
        -13    1    3    3    0    0 -0.23891088562E+03  0.64438405397E+03  0.12459414896E+04  0.14229123008E+04  0.00000000000E+00 0.  1.
         22    1    1    2    0    0  0.31179235528E+03 -0.99792331127E+03 -0.20251162364E+04  0.22790702444E+04  0.00000000000E+00 0.  1.
<mgrwt>
<rscale>  0 0.43760393E+04</rscale>
<asrwt>0</asrwt>
<pdfrwt beam="1">  1        2 0.32127076E+00 0.43760393E+04</pdfrwt>
<pdfrwt beam="2">  1       -2 0.35269923E+00 0.43760393E+04</pdfrwt>
<totfact> 0.68290971E-02</totfact>
</mgrwt>
</event>
<event>
 6    1  0.1817112E-005  0.1270574E+04  0.7818608E-02  0.9053231E-01
         -2   -1    0    0    0  501 -0.00000000000E+00  0.00000000000E+00  0.19460578310E+03  0.19460578310E+03  0.00000000000E+00 0.  1.
          2   -1    0    0  501    0  0.00000000000E+00 -0.00000000000E+00 -0.20738837069E+04  0.20738837069E+04  0.00000000000E+00 0. -1.
         23    2    1    2    0    0  0.16812297270E+03 -0.36194136755E+03 -0.69519143193E+02  0.41525077589E+03  0.91287502477E+02 0.  0.
         13    1    3    3    0    0  0.61865130262E+02 -0.85237362659E+02  0.16522945890E+02  0.10661008431E+03  0.00000000000E+00 0. -1.
        -13    1    3    3    0    0  0.10625784244E+03 -0.27670400489E+03 -0.86042089083E+02  0.30864069158E+03  0.00000000000E+00 0.  1.
         22    1    1    2    0    0 -0.16812297270E+03  0.36194136755E+03 -0.18097587806E+04  0.18532387141E+04  0.00000000000E+00 0. -1.
<mgrwt>
<rscale>  0 0.12705743E+04</rscale>
<asrwt>0</asrwt>
<pdfrwt beam="1">  1        2 0.31905903E+00 0.12705743E+04</pdfrwt>
<pdfrwt beam="2">  1       -2 0.29939351E-01 0.12705743E+04</pdfrwt>
<totfact> 0.61519736E+01</totfact>
</mgrwt>
</event>
<event>
 6    1  0.1817112E-005  0.2848440E+04  0.7818608E-02  0.8288385E-01
         -2   -1    0    0    0  501 -0.00000000000E+00  0.00000000000E+00  0.82103816169E+03  0.82103816169E+03  0.00000000000E+00 0.  1.
          2   -1    0    0  501    0  0.00000000000E+00 -0.00000000000E+00 -0.24705342334E+04  0.24705342334E+04  0.00000000000E+00 0. -1.
         23    2    1    2    0    0  0.99303279617E+02  0.13756346845E+04 -0.42221061493E+03  0.14453704779E+04  0.92747444136E+02 0.  0.
         13    1    3    3    0    0 -0.13766539931E+02  0.38743108657E+03 -0.11721409315E+03  0.40500803460E+03  0.00000000000E+00 0.  1.
        -13    1    3    3    0    0  0.11306981955E+03  0.98820359797E+03 -0.30499652179E+03  0.10403624433E+04  0.00000000000E+00 0. -1.
         22    1    1    2    0    0 -0.99303279617E+02 -0.13756346845E+04 -0.12272854568E+04  0.18462019172E+04  0.00000000000E+00 0. -1.
<mgrwt>
<rscale>  0 0.28484402E+04</rscale>
<asrwt>0</asrwt>
<pdfrwt beam="1">  1        2 0.38008218E+00 0.28484402E+04</pdfrwt>
<pdfrwt beam="2">  1       -2 0.12631357E+00 0.28484402E+04</pdfrwt>
<totfact> 0.14652796E+00</totfact>
</mgrwt>
</event>
<event>
 6    1  0.1817112E-005  0.3953161E+04  0.7818608E-02  0.8014063E-01
          2   -1    0    0  501    0  0.00000000000E+00  0.00000000000E+00  0.44541225245E+04  0.44541225245E+04  0.00000000000E+00 0. -1.
         -2   -1    0    0    0  501 -0.00000000000E+00 -0.00000000000E+00 -0.87713604460E+03  0.87713604460E+03  0.00000000000E+00 0.  1.
         23    2    1    2    0    0 -0.16195446514E+04 -0.11263056365E+04  0.19325710968E+04  0.27630702550E+04  0.90757507479E+02 0.  0.
         13    1    3    3    0    0 -0.54870637594E+02 -0.34921458794E+02  0.43047599351E+02  0.77996095826E+02  0.00000000000E+00 0.  1.
        -13    1    3    3    0    0 -0.15646740138E+04 -0.10913841777E+04  0.18895234974E+04  0.26850741591E+04  0.00000000000E+00 0. -1.
         22    1    1    2    0    0  0.16195446514E+04  0.11263056365E+04  0.16444153832E+04  0.25681883142E+04  0.00000000000E+00 0. -1.
<mgrwt>
<rscale>  0 0.39531615E+04</rscale>
<asrwt>0</asrwt>
<pdfrwt beam="1">  1        2 0.68524960E+00 0.39531615E+04</pdfrwt>
<pdfrwt beam="2">  1       -2 0.13494401E+00 0.39531615E+04</pdfrwt>
<totfact> 0.42361098E-02</totfact>
</mgrwt>
</event>
<event>
 6    1  0.1817112E-005  0.2845067E+04  0.7818608E-02  0.8289412E-01
          2   -1    0    0  501    0  0.00000000000E+00  0.00000000000E+00  0.18407301645E+04  0.18407301645E+04  0.00000000000E+00 0. -1.
         -2   -1    0    0    0  501 -0.00000000000E+00 -0.00000000000E+00 -0.10993473242E+04  0.10993473242E+04  0.00000000000E+00 0.  1.
         23    2    1    2    0    0 -0.31953183045E+03 -0.12434479649E+04 -0.25695079839E+03  0.13137523410E+04  0.10797253552E+03 0.  0.
         11    1    3    3    0    0 -0.15098421337E+03 -0.39140320405E+03 -0.70222258945E+02  0.42535146230E+03  0.00000000000E+00 0.  1.
        -11    1    3    3    0    0 -0.16854761709E+03 -0.85204476090E+03 -0.18672853944E+03  0.88840087868E+03  0.00000000000E+00 0. -1.
         22    1    1    2    0    0  0.31953183045E+03  0.12434479649E+04  0.99833363868E+03  0.16263251478E+04  0.00000000000E+00 0. -1.
<mgrwt>
<rscale>  0 0.28450672E+04</rscale>
<asrwt>0</asrwt>
<pdfrwt beam="1">  1        2 0.28318925E+00 0.28450672E+04</pdfrwt>
<pdfrwt beam="2">  1       -2 0.16913036E+00 0.28450672E+04</pdfrwt>
<totfact> 0.15354892E+00</totfact>
</mgrwt>
</event>
<event>
 6    1  0.1817112E-005  0.1047636E+04  0.7818608E-02  0.9257788E-01
         -2   -1    0    0    0  501 -0.00000000000E+00  0.00000000000E+00  0.30439263951E+03  0.30439263951E+03  0.00000000000E+00 0.  1.
          2   -1    0    0  501    0  0.00000000000E+00 -0.00000000000E+00 -0.90141947592E+03  0.90141947592E+03  0.00000000000E+00 0. -1.
         23    2    1    2    0    0  0.27060148045E+03  0.19233841741E+03  0.15993570182E+03  0.37924601867E+03  0.89604050864E+02 0.  0.
         11    1    3    3    0    0  0.22619697369E+03  0.12940544630E+03  0.91442219444E+02  0.27617479960E+03  0.00000000000E+00 0. -1.
        -11    1    3    3    0    0  0.44404506761E+02  0.62932971109E+02  0.68493482376E+02  0.10307121907E+03  0.00000000000E+00 0.  1.
         22    1    1    2    0    0 -0.27060148045E+03 -0.19233841741E+03 -0.75696253823E+03  0.82656609676E+03  0.00000000000E+00 0. -1.
<mgrwt>
<rscale>  0 0.10476363E+04</rscale>
<asrwt>0</asrwt>
<pdfrwt beam="1">  1        2 0.13867992E+00 0.10476363E+04</pdfrwt>
<pdfrwt beam="2">  1       -2 0.46829637E-01 0.10476363E+04</pdfrwt>
<totfact> 0.12590173E+02</totfact>
</mgrwt>
</event>
<event>
 6    1  0.1817112E-005  0.2558008E+04  0.7818608E-02  0.8382607E-01
         -2   -1    0    0    0  501 -0.00000000000E+00  0.00000000000E+00  0.82608232118E+03  0.82608232118E+03  0.00000000000E+00 0.  1.
          2   -1    0    0  501    0  0.00000000000E+00 -0.00000000000E+00 -0.19802515234E+04  0.19802515234E+04  0.00000000000E+00 0. -1.
         23    2    1    2    0    0  0.14612863289E+03  0.28674967515E+03  0.77844882951E+03  0.84710149232E+03  0.89551128195E+02 0.  0.
         11    1    3    3    0    0  0.84172262603E+00  0.45158898694E+02  0.17994143956E+03  0.18552346563E+03  0.00000000000E+00 0. -1.
        -11    1    3    3    0    0  0.14528691027E+03  0.24159077646E+03  0.59850738995E+03  0.66157802668E+03  0.00000000000E+00 0.  1.
         22    1    1    2    0    0 -0.14612863289E+03 -0.28674967515E+03 -0.19326180317E+04  0.19592323522E+04  0.00000000000E+00 0. -1.
<mgrwt>
<rscale>  0 0.25580076E+04</rscale>
<asrwt>0</asrwt>
<pdfrwt beam="1">  1        2 0.30465408E+00 0.25580076E+04</pdfrwt>
<pdfrwt beam="2">  1       -2 0.12708959E+00 0.25580076E+04</pdfrwt>
<totfact> 0.27973045E+00</totfact>
</mgrwt>
</event>
<event>
 6    1  0.1817112E-005  0.3328316E+04  0.7818608E-02  0.8155728E-01
          1   -1    0    0  501    0  0.00000000000E+00  0.00000000000E+00  0.30401633764E+04  0.30401633764E+04  0.00000000000E+00 0. -1.
         -1   -1    0    0    0  501 -0.00000000000E+00 -0.00000000000E+00 -0.91094480346E+03  0.91094480346E+03  0.00000000000E+00 0.  1.
         23    2    1    2    0    0 -0.75906768615E+03  0.14793250619E+04  0.10349744437E+04  0.19606417508E+04  0.91419828728E+02 0.  0.
         13    1    3    3    0    0 -0.95757828708E+02  0.16072403054E+03  0.86344157105E+02  0.20605118107E+03  0.00000000000E+00 0.  1.
        -13    1    3    3    0    0 -0.66330985744E+03  0.13186010313E+04  0.94863028660E+03  0.17545905698E+04  0.00000000000E+00 0. -1.
         22    1    1    2    0    0  0.75906768615E+03 -0.14793250619E+04  0.10942441293E+04  0.19904664291E+04  0.00000000000E+00 0.  1.
<mgrwt>
<rscale>  0 0.33283155E+04</rscale>
<asrwt>0</asrwt>
<pdfrwt beam="1">  1        1 0.46771744E+00 0.33283155E+04</pdfrwt>
<pdfrwt beam="2">  1       -1 0.14014536E+00 0.33283155E+04</pdfrwt>
<totfact> 0.19309762E-01</totfact>
</mgrwt>
</event>
<event>
 6    1  0.1817112E-005  0.2814564E+04  0.7818608E-02  0.8298761E-01
          2   -1    0    0  501    0  0.00000000000E+00  0.00000000000E+00  0.17940454034E+04  0.17940454034E+04  0.00000000000E+00 0. -1.
         -2   -1    0    0    0  501 -0.00000000000E+00 -0.00000000000E+00 -0.11038976414E+04  0.11038976414E+04  0.00000000000E+00 0.  1.
         23    2    1    2    0    0 -0.13773705620E+04 -0.27454130335E+03  0.40809980089E+03  0.14654369733E+04  0.91855773440E+02 0.  0.
         11    1    3    3    0    0 -0.10857216112E+04 -0.24182396871E+03  0.29367962188E+03  0.11504425101E+04  0.00000000000E+00 0.  1.
        -11    1    3    3    0    0 -0.29164895082E+03 -0.32717334646E+02  0.11442017901E+03  0.31499446323E+03  0.00000000000E+00 0. -1.
         22    1    1    2    0    0  0.13773705620E+04  0.27454130335E+03  0.28204796109E+03  0.14325060714E+04  0.00000000000E+00 0.  1.
<mgrwt>
<rscale>  0 0.28145639E+04</rscale>
<asrwt>0</asrwt>
<pdfrwt beam="1">  1        2 0.27600698E+00 0.28145639E+04</pdfrwt>
<pdfrwt beam="2">  1       -2 0.16983041E+00 0.28145639E+04</pdfrwt>
<totfact> 0.16153174E+00</totfact>
</mgrwt>
</event>
<event>
 6    1  0.1817112E-005  0.1783162E+04  0.7818608E-02  0.8715305E-01
         -2   -1    0    0    0  501 -0.00000000000E+00  0.00000000000E+00  0.19084934393E+03  0.19084934393E+03  0.00000000000E+00 0.  1.
          2   -1    0    0  501    0  0.00000000000E+00 -0.00000000000E+00 -0.41651530703E+04  0.41651530703E+04  0.00000000000E+00 0. -1.
         23    2    1    2    0    0  0.98370075540E+02 -0.82255379543E+03 -0.12026752855E+04  0.14632190431E+04  0.91163082179E+02 0.  0.
         13    1    3    3    0    0 -0.86662203959E+01 -0.21509610273E+03 -0.34827046644E+03  0.40943101321E+03  0.00000000000E+00 0.  1.
        -13    1    3    3    0    0  0.10703629594E+03 -0.60745769271E+03 -0.85440481909E+03  0.10537880299E+04  0.00000000000E+00 0. -1.
         22    1    1    2    0    0 -0.98370075540E+02  0.82255379543E+03 -0.27716284409E+04  0.28927833711E+04  0.00000000000E+00 0. -1.
<mgrwt>
<rscale>  0 0.17831621E+04</rscale>
<asrwt>0</asrwt>
<pdfrwt beam="1">  1        2 0.64079285E+00 0.17831621E+04</pdfrwt>
<pdfrwt beam="2">  1       -2 0.29361435E-01 0.17831621E+04</pdfrwt>
<totfact> 0.25592759E+00</totfact>
</mgrwt>
</event>
<event>
 6    1  0.1817112E-005  0.1185152E+04  0.7818608E-02  0.9125953E-01
          1   -1    0    0  501    0  0.00000000000E+00  0.00000000000E+00  0.85492370828E+03  0.85492370828E+03  0.00000000000E+00 0. -1.
         -1   -1    0    0    0  501 -0.00000000000E+00 -0.00000000000E+00 -0.41073439313E+03  0.41073439313E+03  0.00000000000E+00 0.  1.
         23    2    1    2    0    0  0.56493069761E+03  0.14584703318E+03  0.31070436867E+03  0.66712967174E+03  0.90037459008E+02 0.  0.
         13    1    3    3    0    0  0.29125853469E+03  0.12152188765E+03  0.16851327721E+03  0.35776504553E+03  0.00000000000E+00 0. -1.
        -13    1    3    3    0    0  0.27367216292E+03  0.24325145528E+02  0.14219109146E+03  0.30936462622E+03  0.00000000000E+00 0.  1.
         22    1    1    2    0    0 -0.56493069761E+03 -0.14584703318E+03  0.13348494649E+03  0.59852842967E+03  0.00000000000E+00 0. -1.
<mgrwt>
<rscale>  0 0.11851524E+04</rscale>
<asrwt>0</asrwt>
<pdfrwt beam="1">  1        1 0.13152672E+00 0.11851524E+04</pdfrwt>
<pdfrwt beam="2">  1       -1 0.63189907E-01 0.11851524E+04</pdfrwt>
<totfact> 0.49929090E+01</totfact>
</mgrwt>
</event>
<event>
 6    1  0.1817112E-005  0.2616302E+04  0.7818608E-02  0.8362685E-01
          2   -1    0    0  501    0  0.00000000000E+00  0.00000000000E+00  0.42083050284E+04  0.42083050284E+04  0.00000000000E+00 0.  1.
         -2   -1    0    0    0  501 -0.00000000000E+00 -0.00000000000E+00 -0.40663859612E+03  0.40663859612E+03  0.00000000000E+00 0. -1.
         23    2    1    2    0    0  0.52375590139E+03  0.90163071578E+03  0.32918003732E+04  0.34542448738E+04  0.92734884708E+02 0.  0.
         13    1    3    3    0    0  0.42776789538E+03  0.67685479718E+03  0.26029425450E+04  0.27233118957E+04  0.00000000000E+00 0. -1.
        -13    1    3    3    0    0  0.95988006012E+02  0.22477591861E+03  0.68885782820E+03  0.73093297802E+03  0.00000000000E+00 0.  1.
         22    1    1    2    0    0 -0.52375590139E+03 -0.90163071578E+03  0.50986605907E+03  0.11606987508E+04  0.00000000000E+00 0. -1.
<mgrwt>
<rscale>  0 0.26163022E+04</rscale>
<asrwt>0</asrwt>
<pdfrwt beam="1">  1        2 0.64743151E+00 0.26163022E+04</pdfrwt>
<pdfrwt beam="2">  1       -2 0.62559787E-01 0.26163022E+04</pdfrwt>
<totfact> 0.48018226E-01</totfact>
</mgrwt>
</event>
<event>
 6    1  0.1817112E-005  0.3694348E+04  0.7818608E-02  0.8069215E-01
          2   -1    0    0  501    0  0.00000000000E+00  0.00000000000E+00  0.32060253942E+04  0.32060253942E+04  0.00000000000E+00 0. -1.
         -2   -1    0    0    0  501 -0.00000000000E+00 -0.00000000000E+00 -0.10642623773E+04  0.10642623773E+04  0.00000000000E+00 0.  1.
         23    2    1    2    0    0 -0.14601651175E+04  0.10699978584E+04  0.65320712450E+03  0.19266205102E+04  0.90606045357E+02 0.  0.
         13    1    3    3    0    0 -0.78951781497E+03  0.55928404267E+03  0.30391483308E+03  0.10141505048E+04  0.00000000000E+00 0.  1.
        -13    1    3    3    0    0 -0.67064730251E+03  0.51071381571E+03  0.34929229142E+03  0.91247000540E+03  0.00000000000E+00 0. -1.
         22    1    1    2    0    0  0.14601651175E+04 -0.10699978584E+04  0.14885558924E+04  0.23436672614E+04  0.00000000000E+00 0.  1.
<mgrwt>
<rscale>  0 0.36943482E+04</rscale>
<asrwt>0</asrwt>
<pdfrwt beam="1">  1        2 0.49323467E+00 0.36943482E+04</pdfrwt>
<pdfrwt beam="2">  1       -2 0.16373267E+00 0.36943482E+04</pdfrwt>
<totfact> 0.24552198E-01</totfact>
</mgrwt>
</event>
<event>
 6    1  0.1817112E-005  0.1187438E+04  0.7818608E-02  0.9123924E-01
         -2   -1    0    0    0  501 -0.00000000000E+00  0.00000000000E+00  0.38690380845E+03  0.38690380845E+03  0.00000000000E+00 0.  1.
          2   -1    0    0  501    0  0.00000000000E+00 -0.00000000000E+00 -0.91108470191E+03  0.91108470191E+03  0.00000000000E+00 0. -1.
         23    2    1    2    0    0 -0.51602168020E+03 -0.15109626607E+03 -0.52962411563E+03  0.76027289339E+03  0.91677219201E+02 0.  0.
         13    1    3    3    0    0 -0.21752695671E+03 -0.75913202027E+02 -0.28881674438E+03  0.36945351937E+03  0.00000000000E+00 0.  1.
        -13    1    3    3    0    0 -0.29849472348E+03 -0.75183064046E+02 -0.24080737125E+03  0.39081937403E+03  0.00000000000E+00 0. -1.
         22    1    1    2    0    0  0.51602168020E+03  0.15109626607E+03  0.54432221675E+01  0.53771561696E+03  0.00000000000E+00 0.  1.
<mgrwt>
<rscale>  0 0.11874378E+04</rscale>
<asrwt>0</asrwt>
<pdfrwt beam="1">  1        2 0.14016688E+00 0.11874378E+04</pdfrwt>
<pdfrwt beam="2">  1       -2 0.59523663E-01 0.11874378E+04</pdfrwt>
<totfact> 0.74980831E+01</totfact>
</mgrwt>
</event>
<event>
 6    1  0.1817112E-005  0.2627798E+03  0.7818608E-02  0.1105485E+00
          2   -1    0    0  501    0  0.00000000000E+00  0.00000000000E+00  0.79949512187E+03  0.79949512187E+03  0.00000000000E+00 0. -1.
         -2   -1    0    0    0  501 -0.00000000000E+00 -0.00000000000E+00 -0.21592751990E+02  0.21592751990E+02  0.00000000000E+00 0.  1.
         23    2    1    2    0    0  0.29338508507E+02 -0.85234944172E+02  0.65817158364E+03  0.67121724644E+03  0.96005284328E+02 0.  0.
         13    1    3    3    0    0 -0.19966501517E+02 -0.60513353050E+02  0.49250891192E+03  0.49661409102E+03  0.00000000000E+00 0. -1.
        -13    1    3    3    0    0  0.49305010024E+02 -0.24721591122E+02  0.16566267172E+03  0.17460315542E+03  0.00000000000E+00 0.  1.
         22    1    1    2    0    0 -0.29338508507E+02  0.85234944172E+02  0.11973078624E+03  0.14987062742E+03  0.00000000000E+00 0.  1.
<mgrwt>
<rscale>  0 0.26277975E+03</rscale>
<asrwt>0</asrwt>
<pdfrwt beam="1">  1        2 0.12299923E+00 0.26277975E+03</pdfrwt>
<pdfrwt beam="2">  1       -2 0.33219625E-02 0.26277975E+03</pdfrwt>
<totfact> 0.12832805E+04</totfact>
</mgrwt>
</event>
<event>
 6    1  0.1817112E-005  0.2243579E+04  0.7818608E-02  0.8500505E-01
         -2   -1    0    0    0  501 -0.00000000000E+00  0.00000000000E+00  0.70973236002E+03  0.70973236002E+03  0.00000000000E+00 0.  1.
          2   -1    0    0  501    0  0.00000000000E+00 -0.00000000000E+00 -0.17730789373E+04  0.17730789373E+04  0.00000000000E+00 0. -1.
         23    2    1    2    0    0 -0.91360674109E+03  0.63891546915E+03 -0.65089866361E+03  0.12941130448E+04  0.90383893798E+02 0.  0.
         11    1    3    3    0    0 -0.73130905949E+03  0.46960067840E+03 -0.48807348261E+03  0.99677151949E+03  0.00000000000E+00 0.  1.
        -11    1    3    3    0    0 -0.18229768160E+03  0.16931479075E+03 -0.16282518100E+03  0.29734152527E+03  0.00000000000E+00 0. -1.
         22    1    1    2    0    0  0.91360674109E+03 -0.63891546915E+03 -0.41244791364E+03  0.11886982525E+04  0.00000000000E+00 0. -1.
<mgrwt>
<rscale>  0 0.22435788E+04</rscale>
<asrwt>0</asrwt>
<pdfrwt beam="1">  1        2 0.27278137E+00 0.22435788E+04</pdfrwt>
<pdfrwt beam="2">  1       -2 0.10918960E+00 0.22435788E+04</pdfrwt>
<totfact> 0.54412189E+00</totfact>
</mgrwt>
</event>
<event>
 6    1  0.1817112E-005  0.4701259E+04  0.7818608E-02  0.7876319E-01
         -2   -1    0    0    0  501 -0.00000000000E+00  0.00000000000E+00  0.21911059018E+04  0.21911059018E+04  0.00000000000E+00 0.  1.
          2   -1    0    0  501    0  0.00000000000E+00 -0.00000000000E+00 -0.25217670400E+04  0.25217670400E+04  0.00000000000E+00 0. -1.
         23    2    1    2    0    0  0.99275594582E+03  0.12309455345E+04 -0.19076615327E+04  0.24795522032E+04  0.90638447589E+02 0.  0.
         11    1    3    3    0    0  0.47252097149E+03  0.65499094732E+03 -0.99329733010E+03  0.12802065441E+04  0.00000000000E+00 0. -1.
        -11    1    3    3    0    0  0.52023497433E+03  0.57595458723E+03 -0.91436420262E+03  0.11993456591E+04  0.00000000000E+00 0.  1.
         22    1    1    2    0    0 -0.99275594582E+03 -0.12309455345E+04  0.15770003945E+04  0.22333207385E+04  0.00000000000E+00 0.  1.
<mgrwt>
<rscale>  0 0.47012588E+04</rscale>
<asrwt>0</asrwt>
<pdfrwt beam="1">  1        2 0.38796416E+00 0.47012588E+04</pdfrwt>
<pdfrwt beam="2">  1       -2 0.33709322E+00 0.47012588E+04</pdfrwt>
<totfact> 0.47262610E-02</totfact>
</mgrwt>
</event>
<event>
 6    1  0.1817112E-005  0.3366866E+04  0.7818608E-02  0.8146087E-01
         -2   -1    0    0    0  501 -0.00000000000E+00  0.00000000000E+00  0.79003895044E+03  0.79003895044E+03  0.00000000000E+00 0.  1.
          2   -1    0    0  501    0  0.00000000000E+00 -0.00000000000E+00 -0.35870984021E+04  0.35870984021E+04  0.00000000000E+00 0. -1.
         23    2    1    2    0    0 -0.63606487242E+03  0.98086352986E+03 -0.29720338548E+04  0.31950680535E+04  0.93823484771E+02 0.  0.
         13    1    3    3    0    0 -0.22258444746E+03  0.37209078711E+03 -0.98818771796E+03  0.10791248102E+04  0.00000000000E+00 0.  1.
        -13    1    3    3    0    0 -0.41348042497E+03  0.60877274275E+03 -0.19838461368E+04  0.21159432432E+04  0.00000000000E+00 0. -1.
         22    1    1    2    0    0  0.63606487242E+03 -0.98086352986E+03  0.17497440307E+03  0.11820692991E+04  0.00000000000E+00 0.  1.
<mgrwt>
<rscale>  0 0.33668665E+04</rscale>
<asrwt>0</asrwt>
<pdfrwt beam="1">  1        2 0.55186131E+00 0.33668665E+04</pdfrwt>
<pdfrwt beam="2">  1       -2 0.12154445E+00 0.33668665E+04</pdfrwt>
<totfact> 0.30084456E-01</totfact>
</mgrwt>
</event>
<event>
 6    1  0.1817112E-005  0.1634260E+04  0.7818608E-02  0.8799773E-01
         -2   -1    0    0    0  501 -0.00000000000E+00  0.00000000000E+00  0.83575376639E+03  0.83575376639E+03  0.00000000000E+00 0.  1.
          2   -1    0    0  501    0  0.00000000000E+00 -0.00000000000E+00 -0.79892127538E+03  0.79892127538E+03  0.00000000000E+00 0. -1.
         23    2    1    2    0    0  0.48551815164E+02 -0.56307534228E+03  0.60500752615E+03  0.83328001409E+03  0.94394678567E+02 0.  0.
         13    1    3    3    0    0 -0.48749270549E+01 -0.31953417522E+03  0.29000627659E+03  0.43154315486E+03  0.00000000000E+00 0.  1.
        -13    1    3    3    0    0  0.53426742218E+02 -0.24354116706E+03  0.31500124956E+03  0.40173685922E+03  0.00000000000E+00 0. -1.
         22    1    1    2    0    0 -0.48551815164E+02  0.56307534228E+03 -0.56817503514E+03  0.80139502768E+03  0.00000000000E+00 0. -1.
<mgrwt>
<rscale>  0 0.16342600E+04</rscale>
<asrwt>0</asrwt>
<pdfrwt beam="1">  1        2 0.12291097E+00 0.16342600E+04</pdfrwt>
<pdfrwt beam="2">  1       -2 0.12857750E+00 0.16342600E+04</pdfrwt>
<totfact> 0.14736083E+01</totfact>
</mgrwt>
</event>
<event>
 6    1  0.1817112E-005  0.1338121E+04  0.7818608E-02  0.8999869E-01
          2   -1    0    0  501    0  0.00000000000E+00  0.00000000000E+00  0.20166407374E+04  0.20166407374E+04  0.00000000000E+00 0. -1.
         -2   -1    0    0    0  501 -0.00000000000E+00 -0.00000000000E+00 -0.22197407083E+03  0.22197407083E+03  0.00000000000E+00 0.  1.
         23    2    1    2    0    0  0.11450973345E+03  0.61511354626E+03  0.12835491252E+04  0.14307049772E+04  0.89113530640E+02 0.  0.
         13    1    3    3    0    0  0.22627304917E+02  0.27054818536E+03  0.63447348233E+03  0.69011949350E+03  0.00000000000E+00 0. -1.
        -13    1    3    3    0    0  0.91882428530E+02  0.34456536091E+03  0.64907564284E+03  0.74058548375E+03  0.00000000000E+00 0.  1.
         22    1    1    2    0    0 -0.11450973345E+03 -0.61511354626E+03  0.51111754135E+03  0.80790983094E+03  0.00000000000E+00 0.  1.
<mgrwt>
<rscale>  0 0.13381210E+04</rscale>
<asrwt>0</asrwt>
<pdfrwt beam="1">  1        2 0.31025241E+00 0.13381210E+04</pdfrwt>
<pdfrwt beam="2">  1       -2 0.34149858E-01 0.13381210E+04</pdfrwt>
<totfact> 0.51381637E+01</totfact>
</mgrwt>
</event>
<event>
 6    1  0.1817112E-005  0.1577738E+04  0.7818608E-02  0.8834343E-01
          2   -1    0    0  501    0  0.00000000000E+00  0.00000000000E+00  0.49181345028E+03  0.49181345028E+03  0.00000000000E+00 0. -1.
         -2   -1    0    0    0  501 -0.00000000000E+00 -0.00000000000E+00 -0.12653457594E+04  0.12653457594E+04  0.00000000000E+00 0.  1.
         23    2    1    2    0    0 -0.87163791403E+02 -0.64535923158E+03  0.10253236945E+03  0.66556616035E+03  0.91538858978E+02 0.  0.
         11    1    3    3    0    0  0.88171918443E+01 -0.22917611693E+03  0.54783853160E+02  0.23579801952E+03  0.00000000000E+00 0.  1.
        -11    1    3    3    0    0 -0.95980983248E+02 -0.41618311465E+03  0.47748516292E+02  0.42976814083E+03  0.00000000000E+00 0. -1.
         22    1    1    2    0    0  0.87163791403E+02  0.64535923158E+03 -0.87606467862E+03  0.10915930494E+04  0.00000000000E+00 0.  1.
<mgrwt>
<rscale>  0 0.15777377E+04</rscale>
<asrwt>0</asrwt>
<pdfrwt beam="1">  1        2 0.75663608E-01 0.15777377E+04</pdfrwt>
<pdfrwt beam="2">  1       -2 0.19466858E+00 0.15777377E+04</pdfrwt>
<totfact> 0.86888989E+00</totfact>
</mgrwt>
</event>
<event>
 6    1  0.1817112E-005  0.1437699E+04  0.7818608E-02  0.8926973E-01
          2   -1    0    0  501    0  0.00000000000E+00  0.00000000000E+00  0.25750588917E+04  0.25750588917E+04  0.00000000000E+00 0.  1.
         -2   -1    0    0    0  501 -0.00000000000E+00 -0.00000000000E+00 -0.20067303939E+03  0.20067303939E+03  0.00000000000E+00 0. -1.
         23    2    1    2    0    0  0.41596742246E+03 -0.57874938302E+03  0.13229309692E+04  0.15054811227E+04  0.91363651409E+02 0.  0.
         11    1    3    3    0    0  0.11989825303E+03 -0.24219967101E+03  0.50727246699E+03  0.57477093480E+03  0.00000000000E+00 0. -1.
        -11    1    3    3    0    0  0.29606916944E+03 -0.33654971201E+03  0.81565850217E+03  0.93071018793E+03  0.00000000000E+00 0.  1.
         22    1    1    2    0    0 -0.41596742246E+03  0.57874938302E+03  0.10514548832E+04  0.12702508084E+04  0.00000000000E+00 0. -1.
<mgrwt>
<rscale>  0 0.14376994E+04</rscale>
<asrwt>0</asrwt>
<pdfrwt beam="1">  1        2 0.39616289E+00 0.14376994E+04</pdfrwt>
<pdfrwt beam="2">  1       -2 0.30872777E-01 0.14376994E+04</pdfrwt>
<totfact> 0.29808203E+01</totfact>
</mgrwt>
</event>
<event>
 6    1  0.1817112E-005  0.2595948E+04  0.7818608E-02  0.8369579E-01
         -2   -1    0    0    0  501 -0.00000000000E+00  0.00000000000E+00  0.14122360100E+04  0.14122360100E+04  0.00000000000E+00 0.  1.
          2   -1    0    0  501    0  0.00000000000E+00 -0.00000000000E+00 -0.11929567513E+04  0.11929567513E+04  0.00000000000E+00 0. -1.
         23    2    1    2    0    0 -0.47427026971E+03  0.43239220141E+03 -0.10205260501E+04  0.12091223805E+04  0.92780427067E+02 0.  0.
         11    1    3    3    0    0 -0.51475143758E+02  0.67879724452E+02 -0.19237412206E+03  0.21039284744E+03  0.00000000000E+00 0. -1.
        -11    1    3    3    0    0 -0.42279512595E+03  0.36451247696E+03 -0.82815192800E+03  0.99872953307E+03  0.00000000000E+00 0.  1.
         22    1    1    2    0    0  0.47427026971E+03 -0.43239220141E+03  0.12398053088E+04  0.13960703808E+04  0.00000000000E+00 0.  1.
<mgrwt>
<rscale>  0 0.25959480E+04</rscale>
<asrwt>0</asrwt>
<pdfrwt beam="1">  1        2 0.18353181E+00 0.25959480E+04</pdfrwt>
<pdfrwt beam="2">  1       -2 0.21726708E+00 0.25959480E+04</pdfrwt>
<totfact> 0.17408138E+00</totfact>
</mgrwt>
</event>
<event>
 6    1  0.1817112E-005  0.2948356E+04  0.7818608E-02  0.8258634E-01
         -2   -1    0    0    0  501 -0.00000000000E+00  0.00000000000E+00  0.11714363953E+04  0.11714363953E+04  0.00000000000E+00 0.  1.
          2   -1    0    0  501    0  0.00000000000E+00 -0.00000000000E+00 -0.18551588814E+04  0.18551588814E+04  0.00000000000E+00 0. -1.
         23    2    1    2    0    0  0.89266068600E+03  0.11102128171E+04  0.41382373468E+02  0.14280982774E+04  0.91304926139E+02 0.  0.
         13    1    3    3    0    0  0.22773673965E+03  0.23776288500E+03 -0.16282208080E+02  0.32963665204E+03  0.00000000000E+00 0.  1.
        -13    1    3    3    0    0  0.66492394635E+03  0.87244993206E+03  0.57664581548E+02  0.10984616253E+04  0.00000000000E+00 0. -1.
         22    1    1    2    0    0 -0.89266068600E+03 -0.11102128171E+04 -0.72510485957E+03  0.15984969993E+04  0.00000000000E+00 0. -1.
<mgrwt>
<rscale>  0 0.29483559E+04</rscale>
<asrwt>0</asrwt>
<pdfrwt beam="1">  1        2 0.28540906E+00 0.29483559E+04</pdfrwt>
<pdfrwt beam="2">  1       -2 0.18022098E+00 0.29483559E+04</pdfrwt>
<totfact> 0.12492299E+00</totfact>
</mgrwt>
</event>
<event>
 6    1  0.1817112E-005  0.1600268E+04  0.7818608E-02  0.8820384E-01
          2   -1    0    0  501    0  0.00000000000E+00  0.00000000000E+00  0.13674954202E+04  0.13674954202E+04  0.00000000000E+00 0. -1.
         -2   -1    0    0    0  501 -0.00000000000E+00 -0.00000000000E+00 -0.46816539045E+03  0.46816539045E+03  0.00000000000E+00 0.  1.
         23    2    1    2    0    0  0.11691671368E+02 -0.75299023467E+03  0.15023270617E+03  0.77345659823E+03  0.92381029720E+02 0.  0.
         11    1    3    3    0    0  0.23996884003E+02 -0.27476318835E+03  0.14508270444E+02  0.27619042349E+03  0.00000000000E+00 0. -1.
        -11    1    3    3    0    0 -0.12305212635E+02 -0.47822704632E+03  0.13572443572E+03  0.49726617474E+03  0.00000000000E+00 0.  1.
         22    1    1    2    0    0 -0.11691671368E+02  0.75299023467E+03  0.74909732355E+03  0.10622042124E+04  0.00000000000E+00 0. -1.
<mgrwt>
<rscale>  0 0.16002675E+04</rscale>
<asrwt>0</asrwt>
<pdfrwt beam="1">  1        2 0.21038391E+00 0.16002675E+04</pdfrwt>
<pdfrwt beam="2">  1       -2 0.72025445E-01 0.16002675E+04</pdfrwt>
<totfact> 0.25294961E+01</totfact>
</mgrwt>
</event>
<event>
 6    1  0.1817112E-005  0.3268741E+04  0.7818608E-02  0.8170895E-01
          2   -1    0    0  501    0  0.00000000000E+00  0.00000000000E+00  0.20606126452E+04  0.20606126452E+04  0.00000000000E+00 0. -1.
         -2   -1    0    0    0  501 -0.00000000000E+00 -0.00000000000E+00 -0.12962971192E+04  0.12962971192E+04  0.00000000000E+00 0.  1.
         23    2    1    2    0    0 -0.10780552542E+03  0.16040247270E+04  0.67720930552E+03  0.17469082583E+04  0.92513043023E+02 0.  0.
         13    1    3    3    0    0 -0.86652883699E+02  0.67971465732E+03  0.26602817598E+03  0.73504539182E+03  0.00000000000E+00 0. -1.
        -13    1    3    3    0    0 -0.21152641725E+02  0.92431006969E+03  0.41118112955E+03  0.10118628664E+04  0.00000000000E+00 0.  1.
         22    1    1    2    0    0  0.10780552542E+03 -0.16040247270E+04  0.87106220489E+02  0.16100015061E+04  0.00000000000E+00 0.  1.
<mgrwt>
<rscale>  0 0.32687406E+04</rscale>
<asrwt>0</asrwt>
<pdfrwt beam="1">  1        2 0.31701733E+00 0.32687406E+04</pdfrwt>
<pdfrwt beam="2">  1       -2 0.19943033E+00 0.32687406E+04</pdfrwt>
<totfact> 0.69438165E-01</totfact>
</mgrwt>
</event>
<event>
 6    1  0.1817112E-005  0.3518492E+04  0.7818608E-02  0.8109422E-01
          2   -1    0    0  501    0  0.00000000000E+00  0.00000000000E+00  0.21367624011E+04  0.21367624011E+04  0.00000000000E+00 0.  1.
         -2   -1    0    0    0  501 -0.00000000000E+00 -0.00000000000E+00 -0.14484279192E+04  0.14484279192E+04  0.00000000000E+00 0. -1.
         23    2    1    2    0    0  0.70024481762E+03 -0.76313357187E+03 -0.11030793468E+04  0.15159201207E+04  0.92271956601E+02 0.  0.
         11    1    3    3    0    0  0.13318171483E+03 -0.13199995746E+03 -0.15198373746E+03  0.24137194200E+03  0.00000000000E+00 0. -1.
        -11    1    3    3    0    0  0.56706310279E+03 -0.63113361442E+03 -0.95109560935E+03  0.12745481787E+04  0.00000000000E+00 0.  1.
         22    1    1    2    0    0 -0.70024481762E+03  0.76313357187E+03  0.17914138287E+04  0.20692701995E+04  0.00000000000E+00 0.  1.
<mgrwt>
<rscale>  0 0.35184919E+04</rscale>
<asrwt>0</asrwt>
<pdfrwt beam="1">  1        2 0.32873268E+00 0.35184919E+04</pdfrwt>
<pdfrwt beam="2">  1       -2 0.22283507E+00 0.35184919E+04</pdfrwt>
<totfact> 0.43606881E-01</totfact>
</mgrwt>
</event>
<event>
 6    1  0.1817112E-005  0.3188340E+04  0.7818608E-02  0.8191903E-01
          2   -1    0    0  501    0  0.00000000000E+00  0.00000000000E+00  0.15347350535E+04  0.15347350535E+04  0.00000000000E+00 0. -1.
         -2   -1    0    0    0  501 -0.00000000000E+00 -0.00000000000E+00 -0.16559067685E+04  0.16559067685E+04  0.00000000000E+00 0.  1.
         23    2    1    2    0    0 -0.91271175308E+03  0.29247656275E+03  0.12123738806E+04  0.15484088485E+04  0.95573280015E+02 0.  0.
         11    1    3    3    0    0 -0.24376209416E+03  0.87574527510E+02  0.26343604516E+03  0.36944256159E+03  0.00000000000E+00 0. -1.
        -11    1    3    3    0    0 -0.66894965891E+03  0.20490203524E+03  0.94893783543E+03  0.11789662869E+04  0.00000000000E+00 0.  1.
         22    1    1    2    0    0  0.91271175308E+03 -0.29247656275E+03 -0.13335455955E+04  0.16422329735E+04  0.00000000000E+00 0.  1.
<mgrwt>
<rscale>  0 0.31883401E+04</rscale>
<asrwt>0</asrwt>
<pdfrwt beam="1">  1        2 0.23611309E+00 0.31883401E+04</pdfrwt>
<pdfrwt beam="2">  1       -2 0.25475489E+00 0.31883401E+04</pdfrwt>
<totfact> 0.61445566E-01</totfact>
</mgrwt>
</event>
<event>
 6    1  0.1817112E-005  0.1352433E+04  0.7818608E-02  0.8988988E-01
          2   -1    0    0  501    0  0.00000000000E+00  0.00000000000E+00  0.28084536467E+03  0.28084536467E+03  0.00000000000E+00 0. -1.
         -2   -1    0    0    0  501 -0.00000000000E+00 -0.00000000000E+00 -0.16281878698E+04  0.16281878698E+04  0.00000000000E+00 0.  1.
         23    2    1    2    0    0 -0.24898189847E+03  0.36779390781E+03 -0.13906445608E+04  0.14627828424E+04  0.92612122766E+02 0.  0.
         11    1    3    3    0    0 -0.15812941863E+03  0.15217699560E+03 -0.64828829615E+03  0.68442710784E+03  0.00000000000E+00 0. -1.
        -11    1    3    3    0    0 -0.90852479845E+02  0.21561691221E+03 -0.74235626461E+03  0.77835573457E+03  0.00000000000E+00 0.  1.
         22    1    1    2    0    0  0.24898189847E+03 -0.36779390781E+03  0.43302055643E+02  0.44625039205E+03  0.00000000000E+00 0. -1.
<mgrwt>
<rscale>  0 0.13524334E+04</rscale>
<asrwt>0</asrwt>
<pdfrwt beam="1">  1        2 0.43206979E-01 0.13524334E+04</pdfrwt>
<pdfrwt beam="2">  1       -2 0.25049044E+00 0.13524334E+04</pdfrwt>
<totfact> 0.73761816E+00</totfact>
</mgrwt>
</event>
<event>
 6    1  0.1817112E-005  0.1340877E+04  0.7818608E-02  0.8997763E-01
         -2   -1    0    0    0  501 -0.00000000000E+00  0.00000000000E+00  0.59311308201E+03  0.59311308201E+03  0.00000000000E+00 0.  1.
          2   -1    0    0  501    0  0.00000000000E+00 -0.00000000000E+00 -0.75784527960E+03  0.75784527960E+03  0.00000000000E+00 0. -1.
         23    2    1    2    0    0 -0.40387219472E+03  0.43434346107E+03  0.22569968901E+03  0.64088509080E+03  0.89589944488E+02 0.  0.
         11    1    3    3    0    0 -0.13779270549E+03  0.21313813300E+03  0.93980845235E+02  0.27064200098E+03  0.00000000000E+00 0. -1.
        -11    1    3    3    0    0 -0.26607948923E+03  0.22120532807E+03  0.13171884378E+03  0.37024308982E+03  0.00000000000E+00 0.  1.
         22    1    1    2    0    0  0.40387219472E+03 -0.43434346107E+03 -0.39043188660E+03  0.71007327081E+03  0.00000000000E+00 0. -1.
<mgrwt>
<rscale>  0 0.13408772E+04</rscale>
<asrwt>0</asrwt>
<pdfrwt beam="1">  1        2 0.11659158E+00 0.13408772E+04</pdfrwt>
<pdfrwt beam="2">  1       -2 0.91248166E-01 0.13408772E+04</pdfrwt>
<totfact> 0.37027888E+01</totfact>
</mgrwt>
</event>
<event>
 6    1  0.1817112E-005  0.3218978E+04  0.7818608E-02  0.8183823E-01
         -2   -1    0    0    0  501 -0.00000000000E+00  0.00000000000E+00  0.13530686919E+04  0.13530686919E+04  0.00000000000E+00 0.  1.
          2   -1    0    0  501    0  0.00000000000E+00 -0.00000000000E+00 -0.19145030676E+04  0.19145030676E+04  0.00000000000E+00 0. -1.
         23    2    1    2    0    0  0.46816859415E+03  0.13388592207E+04 -0.10504560373E+04  0.17672824438E+04  0.90019465901E+02 0.  0.
         13    1    3    3    0    0  0.37556343096E+03  0.11130160174E+04 -0.90769566985E+03  0.14845079908E+04  0.00000000000E+00 0.  1.
        -13    1    3    3    0    0  0.92605163188E+02  0.22584320326E+03 -0.14276036747E+03  0.28277445293E+03  0.00000000000E+00 0. -1.
         22    1    1    2    0    0 -0.46816859415E+03 -0.13388592207E+04  0.48902166156E+03  0.15002893157E+04  0.00000000000E+00 0.  1.
<mgrwt>
<rscale>  0 0.32189776E+04</rscale>
<asrwt>0</asrwt>
<pdfrwt beam="1">  1        2 0.29453893E+00 0.32189776E+04</pdfrwt>
<pdfrwt beam="2">  1       -2 0.20816441E+00 0.32189776E+04</pdfrwt>
<totfact> 0.73750068E-01</totfact>
</mgrwt>
</event>
<event>
 6    1  0.1817112E-005  0.5495715E+03  0.7818608E-02  0.1001593E+00
          3   -1    0    0  501    0  0.00000000000E+00  0.00000000000E+00  0.53865073516E+03  0.53865073516E+03  0.00000000000E+00 0. -1.
         -3   -1    0    0    0  501 -0.00000000000E+00 -0.00000000000E+00 -0.14017844349E+03  0.14017844349E+03  0.00000000000E+00 0.  1.
         23    2    1    2    0    0  0.13694010400E+03 -0.19459211879E+03  0.35460478698E+03  0.43687248264E+03  0.92164669776E+02 0.  0.
         13    1    3    3    0    0  0.37653949083E+02 -0.96045284585E+02  0.21882256869E+03  0.24192113000E+03  0.00000000000E+00 0. -1.
        -13    1    3    3    0    0  0.99286154919E+02 -0.98546834203E+02  0.13578221829E+03  0.19495135264E+03  0.00000000000E+00 0.  1.
         22    1    1    2    0    0 -0.13694010400E+03  0.19459211879E+03  0.43867504693E+02  0.24195669602E+03  0.00000000000E+00 0.  1.
<mgrwt>
<rscale>  0 0.54957155E+03</rscale>
<asrwt>0</asrwt>
<pdfrwt beam="1">  1        3 0.82869343E-01 0.54957155E+03</pdfrwt>
<pdfrwt beam="2">  1       -3 0.21565915E-01 0.54957155E+03</pdfrwt>
<totfact> 0.70578274E+01</totfact>
</mgrwt>
</event>
<event>
 6    1  0.1817112E-005  0.2373506E+04  0.7818608E-02  0.8449490E-01
          2   -1    0    0  501    0  0.00000000000E+00  0.00000000000E+00  0.34626582212E+04  0.34626582212E+04  0.00000000000E+00 0.  1.
         -2   -1    0    0    0  501 -0.00000000000E+00 -0.00000000000E+00 -0.40673437570E+03  0.40673437570E+03  0.00000000000E+00 0. -1.
         23    2    1    2    0    0  0.11254896103E+04  0.29807816021E+03  0.18893343784E+04  0.22212092220E+04  0.92782337741E+02 0.  0.
         13    1    3    3    0    0  0.98519049397E+03  0.23263263425E+03  0.16670541151E+04  0.19503301450E+04  0.00000000000E+00 0. -1.
        -13    1    3    3    0    0  0.14029911633E+03  0.65445525961E+02  0.22228026322E+03  0.27087907695E+03  0.00000000000E+00 0.  1.
         22    1    1    2    0    0 -0.11254896103E+04 -0.29807816021E+03  0.11665894672E+04  0.16481833749E+04  0.00000000000E+00 0. -1.
<mgrwt>
<rscale>  0 0.23735055E+04</rscale>
<asrwt>0</asrwt>
<pdfrwt beam="1">  1        2 0.53271663E+00 0.23735055E+04</pdfrwt>
<pdfrwt beam="2">  1       -2 0.62574522E-01 0.23735055E+04</pdfrwt>
<totfact> 0.18462508E+00</totfact>
</mgrwt>
</event>
<event>
 6    1  0.1817112E-005  0.4978483E+04  0.7818608E-02  0.7831835E-01
         -2   -1    0    0    0  501 -0.00000000000E+00  0.00000000000E+00  0.50123921756E+04  0.50123921756E+04  0.00000000000E+00 0.  1.
          2   -1    0    0  501    0  0.00000000000E+00 -0.00000000000E+00 -0.12362010272E+04  0.12362010272E+04  0.00000000000E+00 0. -1.
         23    2    1    2    0    0 -0.24763071338E+04  0.24516330464E+03  0.18891110912E+04  0.31255701147E+04  0.90806169846E+02 0.  0.
         13    1    3    3    0    0 -0.69528539454E+03  0.28349678453E+02  0.52034211766E+03  0.86889665872E+03  0.00000000000E+00 0.  1.
        -13    1    3    3    0    0 -0.17810217392E+04  0.21681362619E+03  0.13687689736E+04  0.22566734560E+04  0.00000000000E+00 0. -1.
         22    1    1    2    0    0  0.24763071338E+04 -0.24516330464E+03  0.18870800571E+04  0.31230230881E+04  0.00000000000E+00 0. -1.
<mgrwt>
<rscale>  0 0.49784834E+04</rscale>
<asrwt>0</asrwt>
<pdfrwt beam="1">  1        2 0.19018478E+00 0.49784834E+04</pdfrwt>
<pdfrwt beam="2">  1       -2 0.77113725E+00 0.49784834E+04</pdfrwt>
<totfact> 0.14974847E-03</totfact>
</mgrwt>
</event>
<event>
 6    1  0.1817112E-005  0.1645492E+04  0.7818608E-02  0.8793078E-01
         -2   -1    0    0    0  501 -0.00000000000E+00  0.00000000000E+00  0.19807711765E+03  0.19807711765E+03  0.00000000000E+00 0.  1.
          2   -1    0    0  501    0  0.00000000000E+00 -0.00000000000E+00 -0.34174112078E+04  0.34174112078E+04  0.00000000000E+00 0. -1.
         23    2    1    2    0    0  0.80548751602E+03 -0.14554548680E+03 -0.15063922695E+04  0.17170249183E+04  0.94674565836E+02 0.  0.
         13    1    3    3    0    0  0.16059085968E+03 -0.66277529690E+02 -0.34295200333E+03  0.38444532998E+03  0.00000000000E+00 0.  1.
        -13    1    3    3    0    0  0.64489665634E+03 -0.79267957110E+02 -0.11634402661E+04  0.13325795883E+04  0.00000000000E+00 0. -1.
         22    1    1    2    0    0 -0.80548751602E+03  0.14554548680E+03 -0.17129418207E+04  0.18984634071E+04  0.00000000000E+00 0. -1.
<mgrwt>
<rscale>  0 0.16454920E+04</rscale>
<asrwt>0</asrwt>
<pdfrwt beam="1">  1        2 0.52575554E+00 0.16454920E+04</pdfrwt>
<pdfrwt beam="2">  1       -2 0.30473405E-01 0.16454920E+04</pdfrwt>
<totfact> 0.89149536E+00</totfact>
</mgrwt>
</event>
<event>
 6    1  0.1817112E-005  0.3862126E+04  0.7818608E-02  0.8032953E-01
          2   -1    0    0  501    0  0.00000000000E+00  0.00000000000E+00  0.32840907974E+04  0.32840907974E+04  0.00000000000E+00 0. -1.
         -2   -1    0    0    0  501 -0.00000000000E+00 -0.00000000000E+00 -0.11354752550E+04  0.11354752550E+04  0.00000000000E+00 0.  1.
         23    2    1    2    0    0 -0.14285555224E+04 -0.10781107706E+04  0.24825511231E+03  0.18091133180E+04  0.90369698815E+02 0.  0.
         13    1    3    3    0    0 -0.29129843278E+03 -0.26315616054E+03  0.40119458245E+02  0.39460804946E+03  0.00000000000E+00 0. -1.
        -13    1    3    3    0    0 -0.11372570896E+04 -0.81495461005E+03  0.20813565407E+03  0.14145052685E+04  0.00000000000E+00 0.  1.
         22    1    1    2    0    0  0.14285555224E+04  0.10781107706E+04  0.19003604301E+04  0.26104527344E+04  0.00000000000E+00 0. -1.
<mgrwt>
<rscale>  0 0.38621258E+04</rscale>
<asrwt>0</asrwt>
<pdfrwt beam="1">  1        2 0.50524473E+00 0.38621258E+04</pdfrwt>
<pdfrwt beam="2">  1       -2 0.17468850E+00 0.38621258E+04</pdfrwt>
<totfact> 0.17958428E-01</totfact>
</mgrwt>
</event>
<event>
 6    1  0.1817112E-005  0.5068025E+04  0.7818608E-02  0.7818099E-01
         -2   -1    0    0    0  501 -0.00000000000E+00  0.00000000000E+00  0.53126607256E+04  0.53126607256E+04  0.00000000000E+00 0. -1.
          2   -1    0    0  501    0  0.00000000000E+00 -0.00000000000E+00 -0.12086633977E+04  0.12086633977E+04  0.00000000000E+00 0.  1.
         23    2    1    2    0    0 -0.12384017008E+04  0.12329783640E+04  0.44124589113E+04  0.47467754575E+04  0.90604536359E+02 0.  0.
         13    1    3    3    0    0 -0.41589747479E+03  0.44117847486E+03  0.14271982523E+04  0.15506463193E+04  0.00000000000E+00 0.  1.
        -13    1    3    3    0    0 -0.82250422598E+03  0.79179988909E+03  0.29852606590E+04  0.31961291382E+04  0.00000000000E+00 0. -1.
         22    1    1    2    0    0  0.12384017008E+04 -0.12329783640E+04 -0.30846158342E+03  0.17745486657E+04  0.00000000000E+00 0.  1.
<mgrwt>
<rscale>  0 0.50680247E+04</rscale>
<asrwt>0</asrwt>
<pdfrwt beam="1">  1        2 0.18594822E+00 0.50680247E+04</pdfrwt>
<pdfrwt beam="2">  1       -2 0.81733241E+00 0.50680247E+04</pdfrwt>
<totfact> 0.80989272E-04</totfact>
</mgrwt>
</event>
<event>
 6    1  0.1817112E-005  0.1599044E+04  0.7818608E-02  0.8821136E-01
          2   -1    0    0  501    0  0.00000000000E+00  0.00000000000E+00  0.33857503318E+04  0.33857503318E+04  0.00000000000E+00 0. -1.
         -2   -1    0    0    0  501 -0.00000000000E+00 -0.00000000000E+00 -0.18880169749E+03  0.18880169749E+03  0.00000000000E+00 0.  1.
         23    2    1    2    0    0 -0.94227633356E+02 -0.61766411653E+03  0.49740027984E+03  0.80364078461E+03  0.89686479269E+02 0.  0.
         11    1    3    3    0    0 -0.37010420120E+02 -0.46787688380E+03  0.39454962948E+03  0.61314595303E+03  0.00000000000E+00 0.  1.
        -11    1    3    3    0    0 -0.57217213237E+02 -0.14978723273E+03  0.10285065037E+03  0.19049483158E+03  0.00000000000E+00 0. -1.
         22    1    1    2    0    0  0.94227633356E+02  0.61766411653E+03  0.26995483544E+04  0.27709112446E+04  0.00000000000E+00 0. -1.
<mgrwt>
<rscale>  0 0.15990440E+04</rscale>
<asrwt>0</asrwt>
<pdfrwt beam="1">  1        2 0.52088462E+00 0.15990440E+04</pdfrwt>
<pdfrwt beam="2">  1       -2 0.29046418E-01 0.15990440E+04</pdfrwt>
<totfact> 0.10288944E+01</totfact>
</mgrwt>
</event>
<event>
 6    1  0.1817112E-005  0.2281458E+04  0.7818608E-02  0.8485268E-01
          2   -1    0    0  501    0  0.00000000000E+00  0.00000000000E+00  0.18426590123E+04  0.18426590123E+04  0.00000000000E+00 0. -1.
         -2   -1    0    0    0  501 -0.00000000000E+00 -0.00000000000E+00 -0.70618720529E+03  0.70618720529E+03  0.00000000000E+00 0.  1.
         23    2    1    2    0    0  0.42855904245E+03 -0.98203895594E+03  0.13800194832E+03  0.10842625148E+04  0.92289215869E+02 0.  0.
         11    1    3    3    0    0  0.17559352480E+03 -0.40845416447E+03  0.10313218050E+03  0.45640348058E+03  0.00000000000E+00 0. -1.
        -11    1    3    3    0    0  0.25296551765E+03 -0.57358479146E+03  0.34869767818E+02  0.62785903420E+03  0.00000000000E+00 0.  1.
         22    1    1    2    0    0 -0.42855904245E+03  0.98203895594E+03  0.99846985870E+03  0.14645837028E+04  0.00000000000E+00 0. -1.
<mgrwt>
<rscale>  0 0.22814576E+04</rscale>
<asrwt>0</asrwt>
<pdfrwt beam="1">  1        2 0.28348600E+00 0.22814576E+04</pdfrwt>
<pdfrwt beam="2">  1       -2 0.10864419E+00 0.22814576E+04</pdfrwt>
<totfact> 0.50231368E+00</totfact>
</mgrwt>
</event>
<event>
 6    1  0.1817112E-005  0.2012490E+04  0.7818608E-02  0.8600803E-01
         -1   -1    0    0    0  501 -0.00000000000E+00  0.00000000000E+00  0.39369790679E+03  0.39369790679E+03  0.00000000000E+00 0.  1.
          1   -1    0    0  501    0  0.00000000000E+00 -0.00000000000E+00 -0.25718425692E+04  0.25718425692E+04  0.00000000000E+00 0. -1.
         23    2    1    2    0    0 -0.76124015568E+03 -0.47398236747E+03 -0.42535711176E+03  0.99668038523E+03  0.91089288522E+02 0.  0.
         13    1    3    3    0    0 -0.33089009948E+03 -0.24829046815E+03 -0.22642027845E+03  0.47159575592E+03  0.00000000000E+00 0.  1.
        -13    1    3    3    0    0 -0.43035005620E+03 -0.22569189932E+03 -0.19893683331E+03  0.52508462931E+03  0.00000000000E+00 0. -1.
         22    1    1    2    0    0  0.76124015568E+03  0.47398236747E+03 -0.17527875506E+04  0.19688600907E+04  0.00000000000E+00 0. -1.
<mgrwt>
<rscale>  0 0.20124900E+04</rscale>
<asrwt>0</asrwt>
<pdfrwt beam="1">  1        1 0.39566808E+00 0.20124900E+04</pdfrwt>
<pdfrwt beam="2">  1       -1 0.60568910E-01 0.20124900E+04</pdfrwt>
<totfact> 0.30944791E+00</totfact>
</mgrwt>
</event>
<event>
 6    1  0.1817112E-005  0.8831600E+03  0.7818608E-02  0.9446881E-01
          2   -1    0    0  501    0  0.00000000000E+00  0.00000000000E+00  0.18716525188E+04  0.18716525188E+04  0.00000000000E+00 0. -1.
         -2   -1    0    0    0  501 -0.00000000000E+00 -0.00000000000E+00 -0.10418221148E+03  0.10418221148E+03  0.00000000000E+00 0.  1.
         23    2    1    2    0    0 -0.41153321827E+03  0.99041771976E+02  0.11358544761E+04  0.12155009742E+04  0.90046460996E+02 0.  0.
         11    1    3    3    0    0 -0.27435469333E+03  0.56647811946E+02  0.86062115395E+03  0.90506808748E+03  0.00000000000E+00 0.  1.
        -11    1    3    3    0    0 -0.13717852494E+03  0.42393960029E+02  0.27523332213E+03  0.31043288673E+03  0.00000000000E+00 0. -1.
         22    1    1    2    0    0  0.41153321827E+03 -0.99041771976E+02  0.63161583120E+03  0.76033375603E+03  0.00000000000E+00 0.  1.
<mgrwt>
<rscale>  0 0.88316000E+03</rscale>
<asrwt>0</asrwt>
<pdfrwt beam="1">  1        2 0.28794652E+00 0.88316000E+03</pdfrwt>
<pdfrwt beam="2">  1       -2 0.16028034E-01 0.88316000E+03</pdfrwt>
<totfact> 0.24908157E+02</totfact>
</mgrwt>
</event>
<event>
 6    1  0.1817112E-005  0.3014081E+04  0.7818608E-02  0.8239721E-01
          2   -1    0    0  501    0  0.00000000000E+00  0.00000000000E+00  0.35497175052E+04  0.35497175052E+04  0.00000000000E+00 0. -1.
         -2   -1    0    0    0  501 -0.00000000000E+00 -0.00000000000E+00 -0.63981739000E+03  0.63981739000E+03  0.00000000000E+00 0.  1.
         23    2    1    2    0    0  0.84800039825E+02  0.14969561829E+04  0.12661370124E+04  0.19646695064E+04  0.93565349710E+02 0.  0.
         13    1    3    3    0    0  0.90240189678E+02  0.11879856826E+04  0.96505392459E+03  0.15332261253E+04  0.00000000000E+00 0. -1.
        -13    1    3    3    0    0 -0.54401498535E+01  0.30897050036E+03  0.30108308780E+03  0.43144338109E+03  0.00000000000E+00 0.  1.
         22    1    1    2    0    0 -0.84800039825E+02 -0.14969561829E+04  0.16437631028E+04  0.22248653889E+04  0.00000000000E+00 0.  1.
<mgrwt>
<rscale>  0 0.30140809E+04</rscale>
<asrwt>0</asrwt>
<pdfrwt beam="1">  1        2 0.54611037E+00 0.30140809E+04</pdfrwt>
<pdfrwt beam="2">  1       -2 0.98433447E-01 0.30140809E+04</pdfrwt>
<totfact> 0.54933465E-01</totfact>
</mgrwt>
</event>
<event>
 6    1  0.1817112E-005  0.3411006E+04  0.7818608E-02  0.8135210E-01
         -1   -1    0    0    0  501 -0.00000000000E+00  0.00000000000E+00  0.90597511528E+03  0.90597511528E+03  0.00000000000E+00 0.  1.
          1   -1    0    0  501    0  0.00000000000E+00 -0.00000000000E+00 -0.32106188827E+04  0.32106188827E+04  0.00000000000E+00 0. -1.
         23    2    1    2    0    0 -0.58023706500E+03 -0.15305690646E+04 -0.17266925160E+04  0.23806952791E+04  0.83224121323E+02 0.  0.
         11    1    3    3    0    0 -0.17771245323E+03 -0.58206989846E+03 -0.64397009244E+03  0.88604997753E+03  0.00000000000E+00 0.  1.
        -11    1    3    3    0    0 -0.40252461177E+03 -0.94849916612E+03 -0.10827224235E+04  0.14946453016E+04  0.00000000000E+00 0. -1.
         22    1    1    2    0    0  0.58023706500E+03  0.15305690646E+04 -0.57795125146E+03  0.17358987189E+04  0.00000000000E+00 0.  1.
<mgrwt>
<rscale>  0 0.34110062E+04</rscale>
<asrwt>0</asrwt>
<pdfrwt beam="1">  1        1 0.49394138E+00 0.34110062E+04</pdfrwt>
<pdfrwt beam="2">  1       -1 0.13938078E+00 0.34110062E+04</pdfrwt>
<totfact> 0.14530520E-01</totfact>
</mgrwt>
</event>
<event>
 6    1  0.1817112E-005  0.4552128E+03  0.7818608E-02  0.1026179E+00
          4   -1    0    0  501    0  0.00000000000E+00  0.00000000000E+00  0.92816331867E+03  0.92816331867E+03  0.00000000000E+00 0. -1.
         -4   -1    0    0    0  501 -0.00000000000E+00 -0.00000000000E+00 -0.55814176403E+02  0.55814176403E+02  0.00000000000E+00 0.  1.
         23    2    1    2    0    0  0.68394016156E+02 -0.17201134907E+03  0.70426079380E+03  0.73393882097E+03  0.91745744273E+02 0.  0.
         11    1    3    3    0    0  0.76279780135E+02 -0.12462583779E+03  0.61963067045E+03  0.63662577081E+03  0.00000000000E+00 0. -1.
        -11    1    3    3    0    0 -0.78857639788E+01 -0.47385511282E+02  0.84630123346E+02  0.97313050156E+02  0.00000000000E+00 0.  1.
         22    1    1    2    0    0 -0.68394016156E+02  0.17201134907E+03  0.16808834847E+03  0.25003867411E+03  0.00000000000E+00 0.  1.
<mgrwt>
<rscale>  0 0.45521279E+03</rscale>
<asrwt>0</asrwt>
<pdfrwt beam="1">  1        4 0.14279435E+00 0.45521279E+03</pdfrwt>
<pdfrwt beam="2">  1       -4 0.85867971E-02 0.45521279E+03</pdfrwt>
<totfact> 0.68105172E+01</totfact>
</mgrwt>
</event>
<event>
 6    1  0.1817112E-005  0.3385854E+04  0.7818608E-02  0.8141387E-01
         -2   -1    0    0    0  501 -0.00000000000E+00  0.00000000000E+00  0.10904360193E+04  0.10904360193E+04  0.00000000000E+00 0.  1.
          2   -1    0    0  501    0  0.00000000000E+00 -0.00000000000E+00 -0.26283075792E+04  0.26283075792E+04  0.00000000000E+00 0. -1.
         23    2    1    2    0    0 -0.15544100407E+04  0.29252137913E+03 -0.11051256431E+03  0.15882241703E+04  0.92106765506E+02 0.  0.
         11    1    3    3    0    0 -0.79903134943E+03  0.12872840219E+03 -0.15589482589E+02  0.80948448464E+03  0.00000000000E+00 0. -1.
        -11    1    3    3    0    0 -0.75537869126E+03  0.16379297694E+03 -0.94923081723E+02  0.77873968561E+03  0.00000000000E+00 0.  1.
         22    1    1    2    0    0  0.15544100407E+04 -0.29252137913E+03 -0.14273589956E+04  0.21305194283E+04  0.00000000000E+00 0.  1.
<mgrwt>
<rscale>  0 0.33858537E+04</rscale>
<asrwt>0</asrwt>
<pdfrwt beam="1">  1        2 0.40435501E+00 0.33858537E+04</pdfrwt>
<pdfrwt beam="2">  1       -2 0.16775939E+00 0.33858537E+04</pdfrwt>
<totfact> 0.53701094E-01</totfact>
</mgrwt>
</event>
<event>
 6    1  0.1817112E-005  0.2625471E+04  0.7818608E-02  0.8359600E-01
         -2   -1    0    0    0  501 -0.00000000000E+00  0.00000000000E+00  0.54705759833E+03  0.54705759833E+03  0.00000000000E+00 0.  1.
          2   -1    0    0  501    0  0.00000000000E+00 -0.00000000000E+00 -0.31500782538E+04  0.31500782538E+04  0.00000000000E+00 0. -1.
         23    2    1    2    0    0  0.22791959899E+03  0.11606004887E+02 -0.31212138789E+04  0.31309148177E+04  0.92571459086E+02 0.  0.
         13    1    3    3    0    0  0.17168833468E+03  0.49239976961E+02 -0.22700377087E+04  0.22770535037E+04  0.00000000000E+00 0. -1.
        -13    1    3    3    0    0  0.56231264317E+02 -0.37633972074E+02 -0.85117617015E+03  0.85386131402E+03  0.00000000000E+00 0.  1.
         22    1    1    2    0    0 -0.22791959899E+03 -0.11606004887E+02  0.51819322345E+03  0.56622103439E+03  0.00000000000E+00 0.  1.
<mgrwt>
<rscale>  0 0.26254708E+04</rscale>
<asrwt>0</asrwt>
<pdfrwt beam="1">  1        2 0.48462743E+00 0.26254708E+04</pdfrwt>
<pdfrwt beam="2">  1       -2 0.84162707E-01 0.26254708E+04</pdfrwt>
<totfact> 0.15200287E+00</totfact>
</mgrwt>
</event>
<event>
 6    1  0.1817112E-005  0.2187691E+04  0.7818608E-02  0.8523569E-01
          2   -1    0    0  501    0  0.00000000000E+00  0.00000000000E+00  0.24219650893E+04  0.24219650893E+04  0.00000000000E+00 0. -1.
         -2   -1    0    0    0  501 -0.00000000000E+00 -0.00000000000E+00 -0.49401947273E+03  0.49401947273E+03  0.00000000000E+00 0.  1.
         23    2    1    2    0    0 -0.45812358693E+03  0.10347730829E+03  0.22795087366E+04  0.23293148069E+04  0.94671090552E+02 0.  0.
         11    1    3    3    0    0 -0.36503211454E+03  0.10100410894E+03  0.16470324118E+04  0.16900195384E+04  0.00000000000E+00 0. -1.
        -11    1    3    3    0    0 -0.93091472390E+02  0.24731993519E+01  0.63247632479E+03  0.63929526853E+03  0.00000000000E+00 0.  1.
         22    1    1    2    0    0  0.45812358693E+03 -0.10347730829E+03 -0.35156312000E+03  0.58666975512E+03  0.00000000000E+00 0.  1.
<mgrwt>
<rscale>  0 0.21876909E+04</rscale>
<asrwt>0</asrwt>
<pdfrwt beam="1">  1        2 0.37261001E+00 0.21876909E+04</pdfrwt>
<pdfrwt beam="2">  1       -2 0.76002997E-01 0.21876909E+04</pdfrwt>
<totfact> 0.54780469E+00</totfact>
</mgrwt>
</event>
<event>
 6    1  0.1817112E-005  0.2273254E+04  0.7818608E-02  0.8488542E-01
          2   -1    0    0  501    0  0.00000000000E+00  0.00000000000E+00  0.22600129780E+04  0.22600129780E+04  0.00000000000E+00 0. -1.
         -2   -1    0    0    0  501 -0.00000000000E+00 -0.00000000000E+00 -0.57164297299E+03  0.57164297299E+03  0.00000000000E+00 0.  1.
         23    2    1    2    0    0  0.69124571505E+03  0.78934996435E+03  0.30714633168E+03  0.10971033169E+04  0.91666864285E+02 0.  0.
         13    1    3    3    0    0  0.36221125843E+03  0.40219379380E+03  0.11132087055E+03  0.55258409290E+03  0.00000000000E+00 0. -1.
        -13    1    3    3    0    0  0.32903445662E+03  0.38715617055E+03  0.19582546112E+03  0.54451922396E+03  0.00000000000E+00 0.  1.
         22    1    1    2    0    0 -0.69124571505E+03 -0.78934996435E+03  0.13812236733E+04  0.17345526341E+04  0.00000000000E+00 0. -1.
<mgrwt>
<rscale>  0 0.22732536E+04</rscale>
<asrwt>0</asrwt>
<pdfrwt beam="1">  1        2 0.34769430E+00 0.22732536E+04</pdfrwt>
<pdfrwt beam="2">  1       -2 0.87945074E-01 0.22732536E+04</pdfrwt>
<totfact> 0.48363986E+00</totfact>
</mgrwt>
</event>
<event>
 6    1  0.1817112E-005  0.4495164E+04  0.7818608E-02  0.7911484E-01
          2   -1    0    0  501    0  0.00000000000E+00  0.00000000000E+00  0.43996627706E+04  0.43996627706E+04  0.00000000000E+00 0. -1.
         -2   -1    0    0    0  501 -0.00000000000E+00 -0.00000000000E+00 -0.11481844023E+04  0.11481844023E+04  0.00000000000E+00 0.  1.
         23    2    1    2    0    0 -0.18174280811E+04 -0.13134787006E+04  0.17969648260E+04  0.28750432572E+04  0.92303941727E+02 0.  0.
         11    1    3    3    0    0 -0.16910051944E+03 -0.15092843794E+03  0.16241675455E+03  0.27884329149E+03  0.00000000000E+00 0.  1.
        -11    1    3    3    0    0 -0.16483275617E+04 -0.11625502627E+04  0.16345480715E+04  0.25961999657E+04  0.00000000000E+00 0. -1.
         22    1    1    2    0    0  0.18174280811E+04  0.13134787006E+04  0.14545135422E+04  0.26728039157E+04  0.00000000000E+00 0. -1.
<mgrwt>
<rscale>  0 0.44951637E+04</rscale>
<asrwt>0</asrwt>
<pdfrwt beam="1">  1        2 0.67687118E+00 0.44951637E+04</pdfrwt>
<pdfrwt beam="2">  1       -2 0.17664376E+00 0.44951637E+04</pdfrwt>
<totfact> 0.22108108E-02</totfact>
</mgrwt>
</event>
<event>
 6    1  0.1817112E-005  0.3168801E+04  0.7818608E-02  0.8197106E-01
         -1   -1    0    0    0  501 -0.00000000000E+00  0.00000000000E+00  0.80744660797E+03  0.80744660797E+03  0.00000000000E+00 0.  1.
          1   -1    0    0  501    0  0.00000000000E+00 -0.00000000000E+00 -0.31089677931E+04  0.31089677931E+04  0.00000000000E+00 0. -1.
         23    2    1    2    0    0  0.90903794372E+03  0.82232457985E+02 -0.27503684289E+04  0.28992733054E+04  0.90260976951E+02 0.  0.
         11    1    3    3    0    0  0.41754928120E+03  0.93448414975E+01 -0.11463624581E+04  0.12200744296E+04  0.00000000000E+00 0. -1.
        -11    1    3    3    0    0  0.49148866252E+03  0.72887616487E+02 -0.16040059708E+04  0.16791988758E+04  0.00000000000E+00 0.  1.
         22    1    1    2    0    0 -0.90903794372E+03 -0.82232457985E+02  0.44884724382E+03  0.10171410957E+04  0.00000000000E+00 0.  1.
<mgrwt>
<rscale>  0 0.31688013E+04</rscale>
<asrwt>0</asrwt>
<pdfrwt beam="1">  1        1 0.47830274E+00 0.31688013E+04</pdfrwt>
<pdfrwt beam="2">  1       -1 0.12422255E+00 0.31688013E+04</pdfrwt>
<totfact> 0.23675699E-01</totfact>
</mgrwt>
</event>
<event>
 6    1  0.1817112E-005  0.2605937E+04  0.7818608E-02  0.8366187E-01
         -2   -1    0    0    0  501 -0.00000000000E+00  0.00000000000E+00  0.61661832661E+03  0.61661832661E+03  0.00000000000E+00 0.  1.
          2   -1    0    0  501    0  0.00000000000E+00 -0.00000000000E+00 -0.27532864243E+04  0.27532864243E+04  0.00000000000E+00 0. -1.
         23    2    1    2    0    0  0.34075747196E+03 -0.12443850330E+04 -0.84329812492E+03  0.15430452458E+04  0.72298950010E+02 0.  0.
         13    1    3    3    0    0  0.14710175795E+03 -0.45971227639E+03 -0.34941527703E+03  0.59587359405E+03  0.00000000000E+00 0. -1.
        -13    1    3    3    0    0  0.19365571401E+03 -0.78467275656E+03 -0.49388284789E+03  0.94717165176E+03  0.00000000000E+00 0.  1.
         22    1    1    2    0    0 -0.34075747196E+03  0.12443850330E+04 -0.12933699728E+04  0.18268595051E+04  0.00000000000E+00 0.  1.
<mgrwt>
<rscale>  0 0.26059370E+04</rscale>
<asrwt>0</asrwt>
<pdfrwt beam="1">  1        2 0.42358253E+00 0.26059370E+04</pdfrwt>
<pdfrwt beam="2">  1       -2 0.94864357E-01 0.26059370E+04</pdfrwt>
<totfact> 0.20395771E+00</totfact>
</mgrwt>
</event>
<event>
 6    1  0.1817112E-005  0.1487698E+04  0.7818608E-02  0.8892675E-01
         -2   -1    0    0    0  501 -0.00000000000E+00  0.00000000000E+00  0.25098085194E+03  0.25098085194E+03  0.00000000000E+00 0.  1.
          2   -1    0    0  501    0  0.00000000000E+00 -0.00000000000E+00 -0.22045955436E+04  0.22045955436E+04  0.00000000000E+00 0. -1.
         23    2    1    2    0    0  0.33560272925E+03 -0.63245085713E+03 -0.66538424642E+03  0.98175111465E+03  0.92063984071E+02 0.  0.
         13    1    3    3    0    0  0.22214352806E+03 -0.46347500342E+03 -0.52361982259E+03  0.73371284878E+03  0.00000000000E+00 0. -1.
        -13    1    3    3    0    0  0.11345920118E+03 -0.16897585371E+03 -0.14176442383E+03  0.24803826587E+03  0.00000000000E+00 0.  1.
         22    1    1    2    0    0 -0.33560272925E+03  0.63245085713E+03 -0.12882304452E+04  0.14738252809E+04  0.00000000000E+00 0. -1.
<mgrwt>
<rscale>  0 0.14876979E+04</rscale>
<asrwt>0</asrwt>
<pdfrwt beam="1">  1        2 0.33916854E+00 0.14876979E+04</pdfrwt>
<pdfrwt beam="2">  1       -2 0.38612439E-01 0.14876979E+04</pdfrwt>
<totfact> 0.31493089E+01</totfact>
</mgrwt>
</event>
<event>
 6    1  0.1817112E-005  0.3264556E+04  0.7818608E-02  0.8171973E-01
         -2   -1    0    0    0  501 -0.00000000000E+00  0.00000000000E+00  0.87876937029E+03  0.87876937029E+03  0.00000000000E+00 0.  1.
          2   -1    0    0  501    0  0.00000000000E+00 -0.00000000000E+00 -0.30318889327E+04  0.30318889327E+04  0.00000000000E+00 0. -1.
         23    2    1    2    0    0  0.45544175367E+03  0.10373533114E+04 -0.24829255084E+04  0.27307002335E+04  0.90970331143E+02 0.  0.
         11    1    3    3    0    0  0.21958603774E+03  0.44734278926E+03 -0.99636636985E+03  0.11140374958E+04  0.00000000000E+00 0. -1.
        -11    1    3    3    0    0  0.23585571592E+03  0.59001052216E+03 -0.14865591385E+04  0.16166627377E+04  0.00000000000E+00 0.  1.
         22    1    1    2    0    0 -0.45544175367E+03 -0.10373533114E+04  0.32980594603E+03  0.11799580695E+04  0.00000000000E+00 0.  1.
<mgrwt>
<rscale>  0 0.32645558E+04</rscale>
<asrwt>0</asrwt>
<pdfrwt beam="1">  1        2 0.46644446E+00 0.32645558E+04</pdfrwt>
<pdfrwt beam="2">  1       -2 0.13519529E+00 0.32645558E+04</pdfrwt>
<totfact> 0.54694140E-01</totfact>
</mgrwt>
</event>
<event>
 6    1  0.1817112E-005  0.4379653E+04  0.7818608E-02  0.7932051E-01
          2   -1    0    0  501    0  0.00000000000E+00  0.00000000000E+00  0.46798236032E+04  0.46798236032E+04  0.00000000000E+00 0. -1.
         -2   -1    0    0    0  501 -0.00000000000E+00 -0.00000000000E+00 -0.10246841711E+04  0.10246841711E+04  0.00000000000E+00 0.  1.
         23    2    1    2    0    0  0.13366814472E+04 -0.14784032591E+04  0.64964439764E+03  0.20982085784E+04  0.89710131070E+02 0.  0.
         11    1    3    3    0    0  0.86796990908E+03 -0.10225565689E+04  0.43305788072E+03  0.14094441556E+04  0.00000000000E+00 0.  1.
        -11    1    3    3    0    0  0.46871153808E+03 -0.45584669021E+03  0.21658651692E+03  0.68876442287E+03  0.00000000000E+00 0. -1.
         22    1    1    2    0    0 -0.13366814472E+04  0.14784032591E+04  0.30054950345E+04  0.36062991959E+04  0.00000000000E+00 0.  1.
<mgrwt>
<rscale>  0 0.43796535E+04</rscale>
<asrwt>0</asrwt>
<pdfrwt beam="1">  1        2 0.71997285E+00 0.43796535E+04</pdfrwt>
<pdfrwt beam="2">  1       -2 0.15764372E+00 0.43796535E+04</pdfrwt>
<totfact> 0.16018289E-02</totfact>
</mgrwt>
</event>
<event>
 6    1  0.1817112E-005  0.3187984E+04  0.7818608E-02  0.8191998E-01
         -2   -1    0    0    0  501 -0.00000000000E+00  0.00000000000E+00  0.21772898251E+04  0.21772898251E+04  0.00000000000E+00 0.  1.
          2   -1    0    0  501    0  0.00000000000E+00 -0.00000000000E+00 -0.11669601793E+04  0.11669601793E+04  0.00000000000E+00 0. -1.
         23    2    1    2    0    0  0.77805421894E+03  0.99763454414E+03 -0.50946403573E+03  0.13667728526E+04  0.88720774052E+02 0.  0.
         11    1    3    3    0    0  0.36771234191E+03  0.44240299497E+03 -0.18812208151E+03  0.60524597802E+03  0.00000000000E+00 0.  1.
        -11    1    3    3    0    0  0.41034187703E+03  0.55523154917E+03 -0.32134195423E+03  0.76152687463E+03  0.00000000000E+00 0. -1.
         22    1    1    2    0    0 -0.77805421894E+03 -0.99763454414E+03  0.15197936816E+04  0.19774771518E+04  0.00000000000E+00 0.  1.
<mgrwt>
<rscale>  0 0.31879840E+04</rscale>
<asrwt>0</asrwt>
<pdfrwt beam="1">  1        2 0.17953234E+00 0.31879840E+04</pdfrwt>
<pdfrwt beam="2">  1       -2 0.33496767E+00 0.31879840E+04</pdfrwt>
<totfact> 0.32298255E-01</totfact>
</mgrwt>
</event>
<event>
 6    1  0.2523707E-005  0.3352061E+04  0.7818608E-02  0.8149773E-01
          2   -1    0    0  501    0  0.00000000000E+00  0.00000000000E+00  0.14784541013E+04  0.14784541013E+04  0.00000000000E+00 0. -1.
         -2   -1    0    0    0  501 -0.00000000000E+00 -0.00000000000E+00 -0.19000099207E+04  0.19000099207E+04  0.00000000000E+00 0.  1.
         23    2    1    2    0    0 -0.23443476415E+03  0.13823604956E+04 -0.11341594164E+04  0.18056690305E+04  0.90790238762E+02 0.  0.
         11    1    3    3    0    0 -0.90467059654E+02  0.76177728097E+03 -0.58844813374E+03  0.96682993375E+03  0.00000000000E+00 0. -1.
        -11    1    3    3    0    0 -0.14396770449E+03  0.62058321465E+03 -0.54571128269E+03  0.83883909679E+03  0.00000000000E+00 0.  1.
         22    1    1    2    0    0  0.23443476415E+03 -0.13823604956E+04  0.71260359706E+03  0.15727949914E+04  0.00000000000E+00 0. -1.
<mgrwt>
<rscale>  0 0.33520605E+04</rscale>
<asrwt>0</asrwt>
<pdfrwt beam="1">  1        2 0.22745448E+00 0.33520605E+04</pdfrwt>
<pdfrwt beam="2">  1       -2 0.29230922E+00 0.33520605E+04</pdfrwt>
<totfact> 0.38455180E-01</totfact>
</mgrwt>
</event>
<event>
 6    1  0.1817112E-005  0.2806463E+04  0.7818608E-02  0.8301265E-01
          2   -1    0    0  501    0  0.00000000000E+00  0.00000000000E+00  0.91459536022E+03  0.91459536022E+03  0.00000000000E+00 0. -1.
         -2   -1    0    0    0  501 -0.00000000000E+00 -0.00000000000E+00 -0.21529290113E+04  0.21529290113E+04  0.00000000000E+00 0.  1.
         23    2    1    2    0    0 -0.11033290999E+04  0.44614326351E+03 -0.14293288043E+04  0.18621787519E+04  0.91378107930E+02 0.  0.
         13    1    3    3    0    0 -0.29298354523E+03  0.16267444352E+03 -0.39801637805E+03  0.52030699548E+03  0.00000000000E+00 0.  1.
        -13    1    3    3    0    0 -0.81034555470E+03  0.28346881999E+03 -0.10313124263E+04  0.13418717564E+04  0.00000000000E+00 0. -1.
         22    1    1    2    0    0  0.11033290999E+04 -0.44614326351E+03  0.19099515323E+03  0.12053456197E+04  0.00000000000E+00 0. -1.
<mgrwt>
<rscale>  0 0.28064632E+04</rscale>
<asrwt>0</asrwt>
<pdfrwt beam="1">  1        2 0.14070698E+00 0.28064632E+04</pdfrwt>
<pdfrwt beam="2">  1       -2 0.33121985E+00 0.28064632E+04</pdfrwt>
<totfact> 0.50851947E-01</totfact>
</mgrwt>
</event>
<event>
 6    1  0.1817112E-005  0.4018325E+04  0.7818608E-02  0.8000860E-01
         -2   -1    0    0    0  501 -0.00000000000E+00  0.00000000000E+00  0.23346228088E+04  0.23346228088E+04  0.00000000000E+00 0. -1.
          2   -1    0    0  501    0  0.00000000000E+00 -0.00000000000E+00 -0.17290732453E+04  0.17290732453E+04  0.00000000000E+00 0.  1.
         23    2    1    2    0    0 -0.67779570963E+03 -0.34082284420E+03  0.21832538283E+04  0.23130624596E+04  0.89963482617E+02 0.  0.
         13    1    3    3    0    0 -0.14619360301E+03 -0.11484355754E+03  0.49890471724E+03  0.53241668753E+03  0.00000000000E+00 0. -1.
        -13    1    3    3    0    0 -0.53160210662E+03 -0.22597928666E+03  0.16843491111E+04  0.17806457721E+04  0.00000000000E+00 0.  1.
         22    1    1    2    0    0  0.67779570963E+03  0.34082284420E+03 -0.15777042647E+04  0.17506335945E+04  0.00000000000E+00 0.  1.
<mgrwt>
<rscale>  0 0.40183249E+04</rscale>
<asrwt>0</asrwt>
<pdfrwt beam="1">  1        2 0.26601127E+00 0.40183249E+04</pdfrwt>
<pdfrwt beam="2">  1       -2 0.35917274E+00 0.40183249E+04</pdfrwt>
<totfact> 0.10127355E-01</totfact>
</mgrwt>
</event>
<event>
 6    1  0.1817112E-005  0.2454460E+04  0.7818608E-02  0.8419391E-01
          2   -1    0    0  501    0  0.00000000000E+00  0.00000000000E+00  0.23477270541E+04  0.23477270541E+04  0.00000000000E+00 0. -1.
         -2   -1    0    0    0  501 -0.00000000000E+00 -0.00000000000E+00 -0.64151118186E+03  0.64151118186E+03  0.00000000000E+00 0.  1.
         23    2    1    2    0    0 -0.84138917881E+03  0.30193738596E+03  0.18753387676E+04  0.20794555757E+04  0.90211211198E+02 0.  0.
         13    1    3    3    0    0 -0.71889849853E+02  0.96313814167E+01  0.20169079025E+03  0.21433639189E+03  0.00000000000E+00 0. -1.
        -13    1    3    3    0    0 -0.76949932896E+03  0.29230600454E+03  0.16736479774E+04  0.18651191838E+04  0.00000000000E+00 0.  1.
         22    1    1    2    0    0  0.84138917881E+03 -0.30193738596E+03 -0.16912289536E+03  0.90978266031E+03  0.00000000000E+00 0. -1.
<mgrwt>
<rscale>  0 0.24544597E+04</rscale>
<asrwt>0</asrwt>
<pdfrwt beam="1">  1        2 0.36118877E+00 0.24544597E+04</pdfrwt>
<pdfrwt beam="2">  1       -2 0.98694029E-01 0.24544597E+04</pdfrwt>
<totfact> 0.32481601E+00</totfact>
</mgrwt>
</event>
<event>
 6    1  0.1817112E-005  0.2939515E+04  0.7818608E-02  0.8261217E-01
          2   -1    0    0  501    0  0.00000000000E+00  0.00000000000E+00  0.17367787793E+04  0.17367787793E+04  0.00000000000E+00 0. -1.
         -2   -1    0    0    0  501 -0.00000000000E+00 -0.00000000000E+00 -0.12437896449E+04  0.12437896449E+04  0.00000000000E+00 0.  1.
         23    2    1    2    0    0  0.11457040528E+04  0.80920025627E+03  0.68685920376E+03  0.15645781577E+04  0.93200935508E+02 0.  0.
         11    1    3    3    0    0  0.12803834457E+03  0.92842837388E+02  0.45766918816E+02  0.16464574393E+03  0.00000000000E+00 0. -1.
        -11    1    3    3    0    0  0.10176657082E+04  0.71635741888E+03  0.64109228494E+03  0.13999324137E+04  0.00000000000E+00 0.  1.
         22    1    1    2    0    0 -0.11457040528E+04 -0.80920025627E+03 -0.19387006930E+03  0.14159902666E+04  0.00000000000E+00 0.  1.
<mgrwt>
<rscale>  0 0.29395152E+04</rscale>
<asrwt>0</asrwt>
<pdfrwt beam="1">  1        2 0.26719673E+00 0.29395152E+04</pdfrwt>
<pdfrwt beam="2">  1       -2 0.19135225E+00 0.29395152E+04</pdfrwt>
<totfact> 0.12218870E+00</totfact>
</mgrwt>
</event>
<event>
 6    1  0.1817112E-005  0.2039435E+04  0.7818608E-02  0.8588402E-01
          2   -1    0    0  501    0  0.00000000000E+00  0.00000000000E+00  0.24298866091E+04  0.24298866091E+04  0.00000000000E+00 0. -1.
         -2   -1    0    0    0  501 -0.00000000000E+00 -0.00000000000E+00 -0.42793117186E+03  0.42793117186E+03  0.00000000000E+00 0.  1.
         23    2    1    2    0    0  0.60399678499E+03  0.80557068895E+03  0.79585819223E+03  0.12866949928E+04  0.91855816951E+02 0.  0.
         11    1    3    3    0    0  0.25859857783E+03  0.33081402323E+03  0.27574672303E+03  0.50234191313E+03  0.00000000000E+00 0. -1.
        -11    1    3    3    0    0  0.34539820716E+03  0.47475666571E+03  0.52011146920E+03  0.78435307964E+03  0.00000000000E+00 0.  1.
         22    1    1    2    0    0 -0.60399678499E+03 -0.80557068895E+03  0.12060972451E+04  0.15711227882E+04  0.00000000000E+00 0. -1.
<mgrwt>
<rscale>  0 0.20394354E+04</rscale>
<asrwt>0</asrwt>
<pdfrwt beam="1">  1        2 0.37382870E+00 0.20394354E+04</pdfrwt>
<pdfrwt beam="2">  1       -2 0.65835567E-01 0.20394354E+04</pdfrwt>
<totfact> 0.75186637E+00</totfact>
</mgrwt>
</event>
<event>
 6    1  0.1817112E-005  0.3444324E+04  0.7818608E-02  0.8127113E-01
          2   -1    0    0  501    0  0.00000000000E+00  0.00000000000E+00  0.10058739679E+04  0.10058739679E+04  0.00000000000E+00 0. -1.
         -2   -1    0    0    0  501 -0.00000000000E+00 -0.00000000000E+00 -0.29485223110E+04  0.29485223110E+04  0.00000000000E+00 0.  1.
         23    2    1    2    0    0  0.39614294570E+02  0.17204507720E+04 -0.97272678465E+03  0.19789803782E+04  0.92982731487E+02 0.  0.
         13    1    3    3    0    0  0.29716201012E+02  0.14117316076E+04 -0.75634602170E+03  0.16018515814E+04  0.00000000000E+00 0. -1.
        -13    1    3    3    0    0  0.98980935583E+01  0.30871916445E+03 -0.21638076295E+03  0.37712879674E+03  0.00000000000E+00 0.  1.
         22    1    1    2    0    0 -0.39614294570E+02 -0.17204507720E+04 -0.96992155843E+03  0.19754159007E+04  0.00000000000E+00 0. -1.
<mgrwt>
<rscale>  0 0.34443239E+04</rscale>
<asrwt>0</asrwt>
<pdfrwt beam="1">  1        2 0.15474984E+00 0.34443239E+04</pdfrwt>
<pdfrwt beam="2">  1       -2 0.45361882E+00 0.34443239E+04</pdfrwt>
<totfact> 0.67626880E-02</totfact>
</mgrwt>
</event>
<event>
 6    1  0.1817112E-005  0.1864875E+04  0.7818608E-02  0.8672541E-01
          2   -1    0    0  501    0  0.00000000000E+00  0.00000000000E+00  0.24659932810E+04  0.24659932810E+04  0.00000000000E+00 0. -1.
         -2   -1    0    0    0  501 -0.00000000000E+00 -0.00000000000E+00 -0.35257164623E+03  0.35257164623E+03  0.00000000000E+00 0.  1.
         23    2    1    2    0    0 -0.42060527395E+03 -0.38012152923E+03 -0.55537099637E+02  0.57673907205E+03  0.90235327537E+02 0.  0.
         11    1    3    3    0    0 -0.13568146441E+03 -0.10131988103E+03  0.21591960294E+02  0.17070849664E+03  0.00000000000E+00 0. -1.
        -11    1    3    3    0    0 -0.28492380954E+03 -0.27880164819E+03 -0.77129059932E+02  0.40603057540E+03  0.00000000000E+00 0.  1.
         22    1    1    2    0    0  0.42060527395E+03  0.38012152923E+03  0.21689587344E+04  0.22418258552E+04  0.00000000000E+00 0. -1.
<mgrwt>
<rscale>  0 0.18648746E+04</rscale>
<asrwt>0</asrwt>
<pdfrwt beam="1">  1        2 0.37938357E+00 0.18648746E+04</pdfrwt>
<pdfrwt beam="2">  1       -2 0.54241793E-01 0.18648746E+04</pdfrwt>
<totfact> 0.10956449E+01</totfact>
</mgrwt>
</event>
<event>
 6    1  0.1817112E-005  0.2107467E+04  0.7818608E-02  0.8557961E-01
          2   -1    0    0  501    0  0.00000000000E+00  0.00000000000E+00  0.14853022491E+04  0.14853022491E+04  0.00000000000E+00 0. -1.
         -2   -1    0    0    0  501 -0.00000000000E+00 -0.00000000000E+00 -0.74756088385E+03  0.74756088385E+03  0.00000000000E+00 0.  1.
         23    2    1    2    0    0 -0.28212467307E+03 -0.84768081458E+03  0.95685608513E+03  0.13129890356E+04  0.10104229550E+03 0.  0.
         13    1    3    3    0    0 -0.18858882359E+03 -0.43968495680E+03  0.46557455406E+03  0.66756892603E+03  0.00000000000E+00 0. -1.
        -13    1    3    3    0    0 -0.93535849486E+02 -0.40799585778E+03  0.49128153107E+03  0.64542010960E+03  0.00000000000E+00 0.  1.
         22    1    1    2    0    0  0.28212467307E+03  0.84768081458E+03 -0.21911471983E+03  0.91987409737E+03  0.00000000000E+00 0.  1.
<mgrwt>
<rscale>  0 0.21074666E+04</rscale>
<asrwt>0</asrwt>
<pdfrwt beam="1">  1        2 0.22850804E+00 0.21074666E+04</pdfrwt>
<pdfrwt beam="2">  1       -2 0.11500937E+00 0.21074666E+04</pdfrwt>
<totfact> 0.70264777E+00</totfact>
</mgrwt>
</event>
<event>
 6    1  0.1817112E-005  0.2980951E+04  0.7818608E-02  0.8249191E-01
          2   -1    0    0  501    0  0.00000000000E+00  0.00000000000E+00  0.12246455373E+04  0.12246455373E+04  0.00000000000E+00 0. -1.
         -2   -1    0    0    0  501 -0.00000000000E+00 -0.00000000000E+00 -0.18140087734E+04  0.18140087734E+04  0.00000000000E+00 0.  1.
         23    2    1    2    0    0 -0.65266078294E+03  0.13073496648E+04 -0.25569250902E+01  0.14640207374E+04  0.90669389764E+02 0.  0.
         11    1    3    3    0    0 -0.53829723884E+03  0.10266724383E+04 -0.30664889122E+02  0.11596381109E+04  0.00000000000E+00 0. -1.
        -11    1    3    3    0    0 -0.11436354409E+03  0.28067722650E+03  0.28107964031E+02  0.30438262654E+03  0.00000000000E+00 0.  1.
         22    1    1    2    0    0  0.65266078294E+03 -0.13073496648E+04 -0.58680631104E+03  0.15746335733E+04  0.00000000000E+00 0.  1.
<mgrwt>
<rscale>  0 0.29809514E+04</rscale>
<asrwt>0</asrwt>
<pdfrwt beam="1">  1        2 0.18840701E+00 0.29809514E+04</pdfrwt>
<pdfrwt beam="2">  1       -2 0.27907827E+00 0.29809514E+04</pdfrwt>
<totfact> 0.66969472E-01</totfact>
</mgrwt>
</event>
<event>
 6    1  0.1817112E-005  0.2851264E+04  0.7818608E-02  0.8287527E-01
         -2   -1    0    0    0  501 -0.00000000000E+00  0.00000000000E+00  0.22910601643E+04  0.22910601643E+04  0.00000000000E+00 0.  1.
          2   -1    0    0  501    0  0.00000000000E+00 -0.00000000000E+00 -0.88711163288E+03  0.88711163288E+03  0.00000000000E+00 0. -1.
         23    2    1    2    0    0 -0.11097354367E+03  0.76307478039E+03 -0.63191399951E+03  0.10011705356E+04  0.91808990874E+02 0.  0.
         11    1    3    3    0    0 -0.11620733357E+02  0.16493809575E+03 -0.91586868918E+02  0.18901791299E+03  0.00000000000E+00 0.  1.
        -11    1    3    3    0    0 -0.99352810316E+02  0.59813668464E+03 -0.54032713060E+03  0.81215262265E+03  0.00000000000E+00 0. -1.
         22    1    1    2    0    0  0.11097354367E+03 -0.76307478039E+03  0.20358625309E+04  0.21770012615E+04  0.00000000000E+00 0.  1.
<mgrwt>
<rscale>  0 0.28512637E+04</rscale>
<asrwt>0</asrwt>
<pdfrwt beam="1">  1        2 0.13647871E+00 0.28512637E+04</pdfrwt>
<pdfrwt beam="2">  1       -2 0.35247079E+00 0.28512637E+04</pdfrwt>
<totfact> 0.38908097E-01</totfact>
</mgrwt>
</event>
<event>
 6    1  0.1828762E-005  0.2744932E+04  0.7818608E-02  0.8320572E-01
          2   -1    0    0  501    0  0.00000000000E+00  0.00000000000E+00  0.22145945649E+04  0.22145945649E+04  0.00000000000E+00 0. -1.
         -2   -1    0    0    0  501 -0.00000000000E+00 -0.00000000000E+00 -0.85056789209E+03  0.85056789209E+03  0.00000000000E+00 0.  1.
         23    2    1    2    0    0  0.14613097867E+02  0.55121175914E+03 -0.71872919035E+03  0.91065092730E+03  0.93088754846E+02 0.  0.
         13    1    3    3    0    0 -0.96092684948E+01  0.18801390065E+03 -0.31573500833E+03  0.36760054456E+03  0.00000000000E+00 0.  1.
        -13    1    3    3    0    0  0.24222366362E+02  0.36319785848E+03 -0.40299418203E+03  0.54305038273E+03  0.00000000000E+00 0. -1.
         22    1    1    2    0    0 -0.14613097867E+02 -0.55121175914E+03  0.20827558631E+04  0.21545115297E+04  0.00000000000E+00 0. -1.
<mgrwt>
<rscale>  0 0.27449321E+04</rscale>
<asrwt>0</asrwt>
<pdfrwt beam="1">  1        2 0.34070685E+00 0.27449321E+04</pdfrwt>
<pdfrwt beam="2">  1       -2 0.13085660E+00 0.27449321E+04</pdfrwt>
<totfact> 0.18915920E+00</totfact>
</mgrwt>
</event>
<event>
 6    1  0.1817112E-005  0.1281614E+04  0.7818608E-02  0.9044274E-01
          2   -1    0    0  501    0  0.00000000000E+00  0.00000000000E+00  0.58501247517E+03  0.58501247517E+03  0.00000000000E+00 0. -1.
         -2   -1    0    0    0  501 -0.00000000000E+00 -0.00000000000E+00 -0.70192297320E+03  0.70192297320E+03  0.00000000000E+00 0.  1.
         23    2    1    2    0    0 -0.44069080421E+03 -0.37304103862E+02 -0.51991201996E+03  0.68859590617E+03  0.90861611322E+02 0.  0.
         11    1    3    3    0    0 -0.20629285790E+03  0.27979438512E+01 -0.18024073452E+03  0.27395491251E+03  0.00000000000E+00 0. -1.
        -11    1    3    3    0    0 -0.23439794631E+03 -0.40102047713E+02 -0.33967128545E+03  0.41464099366E+03  0.00000000000E+00 0.  1.
         22    1    1    2    0    0  0.44069080421E+03  0.37304103862E+02  0.40300152193E+03  0.59833954220E+03  0.00000000000E+00 0. -1.
<mgrwt>
<rscale>  0 0.12816141E+04</rscale>
<asrwt>0</asrwt>
<pdfrwt beam="1">  1        2 0.90001920E-01 0.12816141E+04</pdfrwt>
<pdfrwt beam="2">  1       -2 0.10798815E+00 0.12816141E+04</pdfrwt>
<totfact> 0.34480969E+01</totfact>
</mgrwt>
</event>
<event>
 6    1  0.1817112E-005  0.3291837E+04  0.7818608E-02  0.8164975E-01
         -2   -1    0    0    0  501 -0.00000000000E+00  0.00000000000E+00  0.10634875700E+04  0.10634875700E+04  0.00000000000E+00 0.  1.
          2   -1    0    0  501    0  0.00000000000E+00 -0.00000000000E+00 -0.25473248903E+04  0.25473248903E+04  0.00000000000E+00 0. -1.
         23    2    1    2    0    0  0.10833921256E+04  0.12116161993E+04 -0.46695892121E+03  0.16935764313E+04  0.91641596738E+02 0.  0.
         13    1    3    3    0    0  0.46364798790E+03  0.58596619247E+03 -0.20599389462E+03  0.77508665324E+03  0.00000000000E+00 0.  1.
        -13    1    3    3    0    0  0.61974413773E+03  0.62565000685E+03 -0.26096502660E+03  0.91848977808E+03  0.00000000000E+00 0. -1.
         22    1    1    2    0    0 -0.10833921256E+04 -0.12116161993E+04 -0.10168783991E+04  0.19172360290E+04  0.00000000000E+00 0. -1.
<mgrwt>
<rscale>  0 0.32918374E+04</rscale>
<asrwt>0</asrwt>
<pdfrwt beam="1">  1        2 0.39189614E+00 0.32918374E+04</pdfrwt>
<pdfrwt beam="2">  1       -2 0.16361347E+00 0.32918374E+04</pdfrwt>
<totfact> 0.64690981E-01</totfact>
</mgrwt>
</event>
<event>
 6    1  0.1817112E-005  0.2388902E+04  0.7818608E-02  0.8443670E-01
          2   -1    0    0  501    0  0.00000000000E+00  0.00000000000E+00  0.15428427012E+04  0.15428427012E+04  0.00000000000E+00 0. -1.
         -2   -1    0    0    0  501 -0.00000000000E+00 -0.00000000000E+00 -0.92473036582E+03  0.92473036582E+03  0.00000000000E+00 0.  1.
         23    2    1    2    0    0  0.48544263342E+03 -0.58962386702E+03  0.12557474665E+04  0.14726412024E+04  0.91975846679E+02 0.  0.
         11    1    3    3    0    0  0.91217202483E+02 -0.16806174926E+03  0.28288447942E+03  0.34145125317E+03  0.00000000000E+00 0.  1.
        -11    1    3    3    0    0  0.39422543094E+03 -0.42156211776E+03  0.97286298710E+03  0.11311899492E+04  0.00000000000E+00 0. -1.
         22    1    1    2    0    0 -0.48544263342E+03  0.58962386702E+03 -0.63763513111E+03  0.99493186467E+03  0.00000000000E+00 0.  1.
<mgrwt>
<rscale>  0 0.23889023E+04</rscale>
<asrwt>0</asrwt>
<pdfrwt beam="1">  1        2 0.23736042E+00 0.23889023E+04</pdfrwt>
<pdfrwt beam="2">  1       -2 0.14226621E+00 0.23889023E+04</pdfrwt>
<totfact> 0.37228818E+00</totfact>
</mgrwt>
</event>
<event>
 6    1  0.1817112E-005  0.2639700E+04  0.7818608E-02  0.8354840E-01
         -1   -1    0    0    0  501 -0.00000000000E+00  0.00000000000E+00  0.96061376207E+03  0.96061376207E+03  0.00000000000E+00 0.  1.
          1   -1    0    0  501    0  0.00000000000E+00 -0.00000000000E+00 -0.18134278216E+04  0.18134278216E+04  0.00000000000E+00 0. -1.
         23    2    1    2    0    0 -0.61759978205E+03  0.73806796838E+03 -0.13738797315E+04  0.16796544258E+04  0.86715955483E+02 0.  0.
         11    1    3    3    0    0 -0.22524239405E+03  0.25410340683E+03 -0.55624861442E+03  0.65170177112E+03  0.00000000000E+00 0.  1.
        -11    1    3    3    0    0 -0.39235738801E+03  0.48396456155E+03 -0.81763111704E+03  0.10279526547E+04  0.00000000000E+00 0. -1.
         22    1    1    2    0    0  0.61759978205E+03 -0.73806796838E+03  0.52106567194E+03  0.10943871578E+04  0.00000000000E+00 0.  1.
<mgrwt>
<rscale>  0 0.26396998E+04</rscale>
<asrwt>0</asrwt>
<pdfrwt beam="1">  1        1 0.27898889E+00 0.26396998E+04</pdfrwt>
<pdfrwt beam="2">  1       -1 0.14778673E+00 0.26396998E+04</pdfrwt>
<totfact> 0.12714567E+00</totfact>
</mgrwt>
</event>
<event>
 6    1  0.1817112E-005  0.2756683E+04  0.7818608E-02  0.8316844E-01
         -2   -1    0    0    0  501 -0.00000000000E+00  0.00000000000E+00  0.74689771995E+03  0.74689771995E+03  0.00000000000E+00 0. -1.
          2   -1    0    0  501    0  0.00000000000E+00 -0.00000000000E+00 -0.25436213728E+04  0.25436213728E+04  0.00000000000E+00 0.  1.
         23    2    1    2    0    0 -0.45741216399E+03 -0.12898142762E+04 -0.72034060411E+03  0.15494139201E+04  0.94584115725E+02 0.  0.
         11    1    3    3    0    0 -0.15599195027E+03 -0.57901999893E+03 -0.32185646356E+03  0.68058006939E+03  0.00000000000E+00 0. -1.
        -11    1    3    3    0    0 -0.30142021372E+03 -0.71079427724E+03 -0.39848414054E+03  0.86883385067E+03  0.00000000000E+00 0.  1.
         22    1    1    2    0    0  0.45741216399E+03  0.12898142762E+04 -0.10763830488E+04  0.17411051727E+04  0.00000000000E+00 0.  1.
<mgrwt>
<rscale>  0 0.27566828E+04</rscale>
<asrwt>0</asrwt>
<pdfrwt beam="1">  1        2 0.39132636E+00 0.27566828E+04</pdfrwt>
<pdfrwt beam="2">  1       -2 0.11490734E+00 0.27566828E+04</pdfrwt>
<totfact> 0.16936226E+00</totfact>
</mgrwt>
</event>
<event>
 6    1  0.1817112E-005  0.1003001E+04  0.7818608E-02  0.9305260E-01
          1   -1    0    0  501    0  0.00000000000E+00  0.00000000000E+00  0.95216549399E+03  0.95216549399E+03  0.00000000000E+00 0. -1.
         -1   -1    0    0    0  501 -0.00000000000E+00 -0.00000000000E+00 -0.26413743237E+03  0.26413743237E+03  0.00000000000E+00 0.  1.
         23    2    1    2    0    0 -0.14955456835E+02  0.49300081072E+03  0.42442197548E+03  0.65705196864E+03  0.91158165682E+02 0.  0.
         11    1    3    3    0    0  0.37618166862E+02  0.25458694249E+03  0.21165050306E+03  0.33320500178E+03  0.00000000000E+00 0. -1.
        -11    1    3    3    0    0 -0.52573623697E+02  0.23841386822E+03  0.21277147242E+03  0.32384696686E+03  0.00000000000E+00 0.  1.
         22    1    1    2    0    0  0.14955456835E+02 -0.49300081072E+03  0.26360608614E+03  0.55925095772E+03  0.00000000000E+00 0.  1.
<mgrwt>
<rscale>  0 0.10030006E+04</rscale>
<asrwt>0</asrwt>
<pdfrwt beam="1">  1        1 0.14648700E+00 0.10030006E+04</pdfrwt>
<pdfrwt beam="2">  1       -1 0.40636528E-01 0.10030006E+04</pdfrwt>
<totfact> 0.97830222E+01</totfact>
</mgrwt>
</event>
<event>
 6    1  0.1817112E-005  0.1075117E+04  0.7818608E-02  0.9229790E-01
          2   -1    0    0  501    0  0.00000000000E+00  0.00000000000E+00  0.47772232680E+03  0.47772232680E+03  0.00000000000E+00 0. -1.
         -2   -1    0    0    0  501 -0.00000000000E+00 -0.00000000000E+00 -0.60488918402E+03  0.60488918402E+03  0.00000000000E+00 0.  1.
         23    2    1    2    0    0 -0.28469713915E+03  0.22953433192E+02  0.39115585325E+03  0.49080262839E+03  0.79404013486E+02 0.  0.
         11    1    3    3    0    0 -0.17294438585E+03  0.43335377582E+02  0.19573306105E+03  0.26476243452E+03  0.00000000000E+00 0. -1.
        -11    1    3    3    0    0 -0.11175275330E+03 -0.20381944390E+02  0.19542279220E+03  0.22604019386E+03  0.00000000000E+00 0.  1.
         22    1    1    2    0    0  0.28469713915E+03 -0.22953433192E+02 -0.51832271047E+03  0.59180888244E+03  0.00000000000E+00 0.  1.
<mgrwt>
<rscale>  0 0.10751169E+04</rscale>
<asrwt>0</asrwt>
<pdfrwt beam="1">  1        2 0.73495743E-01 0.10751169E+04</pdfrwt>
<pdfrwt beam="2">  1       -2 0.93059874E-01 0.10751169E+04</pdfrwt>
<totfact> 0.63160620E+01</totfact>
</mgrwt>
</event>
<event>
 6    1  0.1817112E-005  0.1507825E+04  0.7818608E-02  0.8879266E-01
         -2   -1    0    0    0  501 -0.00000000000E+00  0.00000000000E+00  0.42900176265E+03  0.42900176265E+03  0.00000000000E+00 0. -1.
          2   -1    0    0  501    0  0.00000000000E+00 -0.00000000000E+00 -0.13248998477E+04  0.13248998477E+04  0.00000000000E+00 0.  1.
         23    2    1    2    0    0 -0.16997258755E+02 -0.36163296525E+03 -0.12152158655E+04  0.12711686062E+04  0.89736933593E+02 0.  0.
         13    1    3    3    0    0 -0.48833845794E+02 -0.28124046307E+03 -0.89008640865E+03  0.93473780143E+03  0.00000000000E+00 0. -1.
        -13    1    3    3    0    0  0.31836587038E+02 -0.80392502171E+02 -0.32512945686E+03  0.33643080477E+03  0.00000000000E+00 0.  1.
         22    1    1    2    0    0  0.16997258755E+02  0.36163296525E+03  0.31931778047E+03  0.48273300414E+03  0.00000000000E+00 0. -1.
<mgrwt>
<rscale>  0 0.15078254E+04</rscale>
<asrwt>0</asrwt>
<pdfrwt beam="1">  1        2 0.20383074E+00 0.15078254E+04</pdfrwt>
<pdfrwt beam="2">  1       -2 0.66000273E-01 0.15078254E+04</pdfrwt>
<totfact> 0.32613215E+01</totfact>
</mgrwt>
</event>
<event>
 6    1  0.1817112E-005  0.3272517E+04  0.7818608E-02  0.8169924E-01
          2   -1    0    0  501    0  0.00000000000E+00  0.00000000000E+00  0.26714266362E+04  0.26714266362E+04  0.00000000000E+00 0. -1.
         -2   -1    0    0    0  501 -0.00000000000E+00 -0.00000000000E+00 -0.10022145552E+04  0.10022145552E+04  0.00000000000E+00 0.  1.
         23    2    1    2    0    0  0.23304197101E+03  0.32469669705E+03  0.26149699659E+04  0.26469014571E+04  0.91010413294E+02 0.  0.
         13    1    3    3    0    0  0.16352726719E+03  0.27399409404E+03  0.18764190578E+04  0.19033555662E+04  0.00000000000E+00 0. -1.
        -13    1    3    3    0    0  0.69514703821E+02  0.50702603009E+02  0.73855090812E+03  0.74354589091E+03  0.00000000000E+00 0.  1.
         22    1    1    2    0    0 -0.23304197101E+03 -0.32469669705E+03 -0.94575788488E+03  0.10267397344E+04  0.00000000000E+00 0.  1.
<mgrwt>
<rscale>  0 0.32725175E+04</rscale>
<asrwt>0</asrwt>
<pdfrwt beam="1">  1        2 0.41098871E+00 0.32725175E+04</pdfrwt>
<pdfrwt beam="2">  1       -2 0.15418686E+00 0.32725175E+04</pdfrwt>
<totfact> 0.64338040E-01</totfact>
</mgrwt>
</event>
<event>
 6    1  0.1817112E-005  0.2151643E+04  0.7818608E-02  0.8538829E-01
         -1   -1    0    0    0  501 -0.00000000000E+00  0.00000000000E+00  0.39058298755E+03  0.39058298755E+03  0.00000000000E+00 0.  1.
          1   -1    0    0  501    0  0.00000000000E+00 -0.00000000000E+00 -0.29632423103E+04  0.29632423103E+04  0.00000000000E+00 0. -1.
         23    2    1    2    0    0  0.33355258948E+02  0.78756422312E+03 -0.24253284963E+04  0.25519048833E+04  0.92899084064E+02 0.  0.
         11    1    3    3    0    0  0.64191079799E+02  0.42092447674E+03 -0.13024000591E+04  0.13702349521E+04  0.00000000000E+00 0.  1.
        -11    1    3    3    0    0 -0.30835820851E+02  0.36663974638E+03 -0.11229284371E+04  0.11816699312E+04  0.00000000000E+00 0. -1.
         22    1    1    2    0    0 -0.33355258948E+02 -0.78756422312E+03 -0.14733082650E+03  0.80192041456E+03  0.00000000000E+00 0.  1.
<mgrwt>
<rscale>  0 0.21516431E+04</rscale>
<asrwt>0</asrwt>
<pdfrwt beam="1">  1        1 0.45588344E+00 0.21516431E+04</pdfrwt>
<pdfrwt beam="2">  1       -1 0.60089689E-01 0.21516431E+04</pdfrwt>
<totfact> 0.16363097E+00</totfact>
</mgrwt>
</event>
<event>
 6    1  0.1817112E-005  0.2023037E+04  0.7818608E-02  0.8595925E-01
          2   -1    0    0  501    0  0.00000000000E+00  0.00000000000E+00  0.22548797787E+04  0.22548797787E+04  0.00000000000E+00 0. -1.
         -2   -1    0    0    0  501 -0.00000000000E+00 -0.00000000000E+00 -0.45375812614E+03  0.45375812614E+03  0.00000000000E+00 0.  1.
         23    2    1    2    0    0 -0.31085167015E+03  0.91761244841E+03  0.12825668462E+04  0.16097564493E+04  0.87731092496E+02 0.  0.
         13    1    3    3    0    0 -0.16664791287E+03  0.61162562187E+03  0.80885264751E+03  0.10276672777E+04  0.00000000000E+00 0. -1.
        -13    1    3    3    0    0 -0.14420375728E+03  0.30598682654E+03  0.47371419871E+03  0.58208917160E+03  0.00000000000E+00 0.  1.
         22    1    1    2    0    0  0.31085167015E+03 -0.91761244841E+03  0.51855480638E+03  0.10988814556E+04  0.00000000000E+00 0.  1.
<mgrwt>
<rscale>  0 0.20230373E+04</rscale>
<asrwt>0</asrwt>
<pdfrwt beam="1">  1        2 0.34690457E+00 0.20230373E+04</pdfrwt>
<pdfrwt beam="2">  1       -2 0.69808944E-01 0.20230373E+04</pdfrwt>
<totfact> 0.83392227E+00</totfact>
</mgrwt>
</event>
<event>
 6    1  0.1817112E-005  0.1136069E+04  0.7818608E-02  0.9170732E-01
         -2   -1    0    0    0  501 -0.00000000000E+00  0.00000000000E+00  0.20558617545E+03  0.20558617545E+03  0.00000000000E+00 0.  1.
          2   -1    0    0  501    0  0.00000000000E+00 -0.00000000000E+00 -0.15694791469E+04  0.15694791469E+04  0.00000000000E+00 0. -1.
         23    2    1    2    0    0  0.40860928997E+03  0.29506718000E+03 -0.29104586372E+03  0.58972692801E+03  0.95099749041E+02 0.  0.
         11    1    3    3    0    0  0.22163048021E+03  0.10147249668E+03 -0.13762902787E+03  0.27992585920E+03  0.00000000000E+00 0.  1.
        -11    1    3    3    0    0  0.18697880976E+03  0.19359468332E+03 -0.15341683585E+03  0.30980106880E+03  0.00000000000E+00 0. -1.
         22    1    1    2    0    0 -0.40860928997E+03 -0.29506718000E+03 -0.10728471078E+04  0.11853383944E+04  0.00000000000E+00 0. -1.
<mgrwt>
<rscale>  0 0.11360690E+04</rscale>
<asrwt>0</asrwt>
<pdfrwt beam="1">  1        2 0.24145832E+00 0.11360690E+04</pdfrwt>
<pdfrwt beam="2">  1       -2 0.31628644E-01 0.11360690E+04</pdfrwt>
<totfact> 0.10666273E+02</totfact>
</mgrwt>
</event>
<event>
 6    1  0.1817112E-005  0.9504496E+03  0.7818608E-02  0.9364625E-01
         -2   -1    0    0    0  501 -0.00000000000E+00  0.00000000000E+00  0.18120462108E+03  0.18120462108E+03  0.00000000000E+00 0.  1.
          2   -1    0    0  501    0  0.00000000000E+00 -0.00000000000E+00 -0.12463182792E+04  0.12463182792E+04  0.00000000000E+00 0. -1.
         23    2    1    2    0    0 -0.37777906398E+03  0.27897889035E+03 -0.50219446916E+03  0.69443064432E+03  0.97408379913E+02 0.  0.
         13    1    3    3    0    0 -0.29700062693E+03  0.17597623002E+03 -0.39993721052E+03  0.52832450094E+03  0.00000000000E+00 0. -1.
        -13    1    3    3    0    0 -0.80778437046E+02  0.10300266032E+03 -0.10225725864E+03  0.16610614338E+03  0.00000000000E+00 0.  1.
         22    1    1    2    0    0  0.37777906398E+03 -0.27897889035E+03 -0.56291918895E+03  0.73309225595E+03  0.00000000000E+00 0.  1.
<mgrwt>
<rscale>  0 0.95044964E+03</rscale>
<asrwt>0</asrwt>
<pdfrwt beam="1">  1        2 0.19174127E+00 0.95044964E+03</pdfrwt>
<pdfrwt beam="2">  1       -2 0.27877635E-01 0.95044964E+03</pdfrwt>
<totfact> 0.20872829E+02</totfact>
</mgrwt>
</event>
<event>
 6    1  0.1817112E-005  0.1430622E+04  0.7818608E-02  0.8931946E-01
          2   -1    0    0  501    0  0.00000000000E+00  0.00000000000E+00  0.72202655187E+03  0.72202655187E+03  0.00000000000E+00 0. -1.
         -2   -1    0    0    0  501 -0.00000000000E+00 -0.00000000000E+00 -0.70865761322E+03  0.70865761322E+03  0.00000000000E+00 0.  1.
         23    2    1    2    0    0 -0.55721359022E+03  0.35706477004E+03 -0.25680536895E+03  0.71585803824E+03  0.92311961627E+02 0.  0.
         11    1    3    3    0    0 -0.36878451689E+03  0.19072911363E+03 -0.18440265180E+03  0.45429500622E+03  0.00000000000E+00 0. -1.
        -11    1    3    3    0    0 -0.18842907333E+03  0.16633565641E+03 -0.72402717152E+02  0.26156303202E+03  0.00000000000E+00 0.  1.
         22    1    1    2    0    0  0.55721359022E+03 -0.35706477004E+03  0.27017430761E+03  0.71482612685E+03  0.00000000000E+00 0.  1.
<mgrwt>
<rscale>  0 0.14306217E+04</rscale>
<asrwt>0</asrwt>
<pdfrwt beam="1">  1        2 0.11108101E+00 0.14306217E+04</pdfrwt>
<pdfrwt beam="2">  1       -2 0.10902425E+00 0.14306217E+04</pdfrwt>
<totfact> 0.25681069E+01</totfact>
</mgrwt>
</event>
<event>
 6    1  0.1817112E-005  0.2527283E+04  0.7818608E-02  0.8393330E-01
          2   -1    0    0  501    0  0.00000000000E+00  0.00000000000E+00  0.29931565465E+04  0.29931565465E+04  0.00000000000E+00 0. -1.
         -2   -1    0    0    0  501 -0.00000000000E+00 -0.00000000000E+00 -0.53348043025E+03  0.53348043025E+03  0.00000000000E+00 0.  1.
         23    2    1    2    0    0 -0.65243933146E+03  0.10392219317E+04  0.82001305213E+03  0.14786735326E+04  0.91622627755E+02 0.  0.
         11    1    3    3    0    0 -0.16610152736E+03  0.19555448818E+03  0.16391476885E+03  0.30446564122E+03  0.00000000000E+00 0. -1.
        -11    1    3    3    0    0 -0.48633780410E+03  0.84366744352E+03  0.65609828328E+03  0.11742078914E+04  0.00000000000E+00 0.  1.
         22    1    1    2    0    0  0.65243933146E+03 -0.10392219317E+04  0.16396630641E+04  0.20479634441E+04  0.00000000000E+00 0. -1.
<mgrwt>
<rscale>  0 0.25272835E+04</rscale>
<asrwt>0</asrwt>
<pdfrwt beam="1">  1        2 0.46048561E+00 0.25272835E+04</pdfrwt>
<pdfrwt beam="2">  1       -2 0.82073914E-01 0.25272835E+04</pdfrwt>
<totfact> 0.20417624E+00</totfact>
</mgrwt>
</event>
<event>
 6    1  0.1817112E-005  0.2531152E+04  0.7818608E-02  0.8391971E-01
         -2   -1    0    0    0  501 -0.00000000000E+00  0.00000000000E+00  0.13873652057E+04  0.13873652057E+04  0.00000000000E+00 0.  1.
          2   -1    0    0  501    0  0.00000000000E+00 -0.00000000000E+00 -0.11544776319E+04  0.11544776319E+04  0.00000000000E+00 0. -1.
         23    2    1    2    0    0  0.29860170099E+03 -0.29061131495E+03 -0.10824659703E+04  0.11620700816E+04  0.71108266274E+02 0.  0.
         13    1    3    3    0    0  0.18959503408E+03 -0.16283432175E+03 -0.73081883888E+03  0.77237132815E+03  0.00000000000E+00 0. -1.
        -13    1    3    3    0    0  0.10900666691E+03 -0.12777699320E+03 -0.35164713145E+03  0.38969875349E+03  0.00000000000E+00 0.  1.
         22    1    1    2    0    0 -0.29860170099E+03  0.29061131495E+03  0.13153535441E+04  0.13797727560E+04  0.00000000000E+00 0.  1.
<mgrwt>
<rscale>  0 0.25311516E+04</rscale>
<asrwt>0</asrwt>
<pdfrwt beam="1">  1        2 0.17761194E+00 0.25311516E+04</pdfrwt>
<pdfrwt beam="2">  1       -2 0.21344080E+00 0.25311516E+04</pdfrwt>
<totfact> 0.19530500E+00</totfact>
</mgrwt>
</event>
<event>
 6    1  0.1817112E-005  0.5318373E+04  0.7818608E-02  0.7781188E-01
          2   -1    0    0  501    0  0.00000000000E+00  0.00000000000E+00  0.31418490647E+04  0.31418490647E+04  0.00000000000E+00 0. -1.
         -2   -1    0    0    0  501 -0.00000000000E+00 -0.00000000000E+00 -0.22506721455E+04  0.22506721455E+04  0.00000000000E+00 0.  1.
         23    2    1    2    0    0  0.74992406401E+03  0.17044899146E+04 -0.14778836927E+04  0.23791974384E+04  0.93639046137E+02 0.  0.
         11    1    3    3    0    0  0.19420345986E+03  0.35404708965E+03 -0.34046346520E+03  0.52818528629E+03  0.00000000000E+00 0. -1.
        -11    1    3    3    0    0  0.55572060415E+03  0.13504428249E+04 -0.11374202275E+04  0.18510121521E+04  0.00000000000E+00 0.  1.
         22    1    1    2    0    0 -0.74992406401E+03 -0.17044899146E+04  0.23690606120E+04  0.30133237718E+04  0.00000000000E+00 0. -1.
<mgrwt>
<rscale>  0 0.53183727E+04</rscale>
<asrwt>0</asrwt>
<pdfrwt beam="1">  1        2 0.48336140E+00 0.53183727E+04</pdfrwt>
<pdfrwt beam="2">  1       -2 0.34625725E+00 0.53183727E+04</pdfrwt>
<totfact> 0.16483235E-02</totfact>
</mgrwt>
</event>
<event>
 6    1  0.1817112E-005  0.1315317E+04  0.7818608E-02  0.9017506E-01
          2   -1    0    0  501    0  0.00000000000E+00  0.00000000000E+00  0.79356309836E+03  0.79356309836E+03  0.00000000000E+00 0. -1.
         -2   -1    0    0    0  501 -0.00000000000E+00 -0.00000000000E+00 -0.54502842844E+03  0.54502842844E+03  0.00000000000E+00 0.  1.
         23    2    1    2    0    0 -0.30364779989E+03 -0.19245936574E+03 -0.43184121273E+03  0.56907613675E+03  0.90101179620E+02 0.  0.
         13    1    3    3    0    0 -0.54013561523E+02 -0.78745117208E+02 -0.12852489711E+03  0.16011529437E+03  0.00000000000E+00 0. -1.
        -13    1    3    3    0    0 -0.24963423836E+03 -0.11371424854E+03 -0.30331631561E+03  0.40896084238E+03  0.00000000000E+00 0.  1.
         22    1    1    2    0    0  0.30364779989E+03  0.19245936574E+03  0.68037588265E+03  0.76951539005E+03  0.00000000000E+00 0. -1.
<mgrwt>
<rscale>  0 0.13153166E+04</rscale>
<asrwt>0</asrwt>
<pdfrwt beam="1">  1        2 0.12208663E+00 0.13153166E+04</pdfrwt>
<pdfrwt beam="2">  1       -2 0.83850528E-01 0.13153166E+04</pdfrwt>
<totfact> 0.42387911E+01</totfact>
</mgrwt>
</event>
<event>
 6    1  0.1817112E-005  0.2479129E+04  0.7818608E-02  0.8410459E-01
          2   -1    0    0  501    0  0.00000000000E+00  0.00000000000E+00  0.12607963569E+04  0.12607963569E+04  0.00000000000E+00 0. -1.
         -2   -1    0    0    0  501 -0.00000000000E+00 -0.00000000000E+00 -0.12186899901E+04  0.12186899901E+04  0.00000000000E+00 0.  1.
         23    2    1    2    0    0 -0.34755057891E+03 -0.81386762684E+03  0.88675655102E+03  0.12561279152E+04  0.91368701793E+02 0.  0.
         13    1    3    3    0    0 -0.18577142647E+03 -0.39934954260E+03  0.37974153486E+03  0.58154510863E+03  0.00000000000E+00 0. -1.
        -13    1    3    3    0    0 -0.16177915245E+03 -0.41451808424E+03  0.50701501615E+03  0.67458280658E+03  0.00000000000E+00 0.  1.
         22    1    1    2    0    0  0.34755057891E+03  0.81386762684E+03 -0.84465018420E+03  0.12233584318E+04  0.00000000000E+00 0.  1.
<mgrwt>
<rscale>  0 0.24791288E+04</rscale>
<asrwt>0</asrwt>
<pdfrwt beam="1">  1        2 0.19396867E+00 0.24791288E+04</pdfrwt>
<pdfrwt beam="2">  1       -2 0.18749077E+00 0.24791288E+04</pdfrwt>
<totfact> 0.25096385E+00</totfact>
</mgrwt>
</event>
<event>
 6    1  0.1817112E-005  0.2044601E+04  0.7818608E-02  0.8586048E-01
         -2   -1    0    0    0  501 -0.00000000000E+00  0.00000000000E+00  0.95241659400E+03  0.95241659400E+03  0.00000000000E+00 0.  1.
          2   -1    0    0  501    0  0.00000000000E+00 -0.00000000000E+00 -0.10973119969E+04  0.10973119969E+04  0.00000000000E+00 0. -1.
         23    2    1    2    0    0  0.49397237598E+02 -0.41379878027E+03 -0.10059614068E+04  0.10931178129E+04  0.96325922176E+02 0.  0.
         11    1    3    3    0    0 -0.38067848673E+01 -0.19565468804E+03 -0.36801998585E+03  0.41681405753E+03  0.00000000000E+00 0. -1.
        -11    1    3    3    0    0  0.53204022466E+02 -0.21814409222E+03 -0.63794142090E+03  0.67630375534E+03  0.00000000000E+00 0.  1.
         22    1    1    2    0    0 -0.49397237598E+02  0.41379878027E+03  0.86106600387E+03  0.95661077803E+03  0.00000000000E+00 0.  1.
<mgrwt>
<rscale>  0 0.20446008E+04</rscale>
<asrwt>0</asrwt>
<pdfrwt beam="1">  1        2 0.16881723E+00 0.20446008E+04</pdfrwt>
<pdfrwt beam="2">  1       -2 0.14652563E+00 0.20446008E+04</pdfrwt>
<totfact> 0.64536770E+00</totfact>
</mgrwt>
</event>
<event>
 6    1  0.1817112E-005  0.1022498E+04  0.7818608E-02  0.9284208E-01
         -2   -1    0    0    0  501 -0.00000000000E+00  0.00000000000E+00  0.62491116386E+02  0.62491116386E+02  0.00000000000E+00 0.  1.
          2   -1    0    0  501    0  0.00000000000E+00 -0.00000000000E+00 -0.41825996135E+04  0.41825996135E+04  0.00000000000E+00 0. -1.
         23    2    1    2    0    0 -0.45267776631E+03 -0.22826408049E+03 -0.20354628199E+04  0.20996841833E+04  0.92429042534E+02 0.  0.
         13    1    3    3    0    0 -0.18463094795E+03 -0.11332243077E+03 -0.70046452061E+03  0.73319922592E+03  0.00000000000E+00 0. -1.
        -13    1    3    3    0    0 -0.26804681836E+03 -0.11494164973E+03 -0.13349982993E+04  0.13664849574E+04  0.00000000000E+00 0.  1.
         22    1    1    2    0    0  0.45267776631E+03  0.22826408049E+03 -0.20846456773E+04  0.21454065466E+04  0.00000000000E+00 0.  1.
<mgrwt>
<rscale>  0 0.10224976E+04</rscale>
<asrwt>0</asrwt>
<pdfrwt beam="1">  1        2 0.64347696E+00 0.10224976E+04</pdfrwt>
<pdfrwt beam="2">  1       -2 0.96140165E-02 0.10224976E+04</pdfrwt>
<totfact> 0.18740161E+01</totfact>
</mgrwt>
</event>
<event>
 6    1  0.1817112E-005  0.2470346E+04  0.7818608E-02  0.8413627E-01
         -2   -1    0    0    0  501 -0.00000000000E+00  0.00000000000E+00  0.43826901139E+03  0.43826901139E+03  0.00000000000E+00 0. -1.
          2   -1    0    0  501    0  0.00000000000E+00 -0.00000000000E+00 -0.34810865352E+04  0.34810865352E+04  0.00000000000E+00 0.  1.
         23    2    1    2    0    0 -0.38107125994E+03 -0.11497682392E+04 -0.11584990597E+04  0.16793023366E+04  0.10370129049E+03 0.  0.
         11    1    3    3    0    0 -0.25964118981E+03 -0.65476494243E+03 -0.62860394288E+03  0.94407287552E+03  0.00000000000E+00 0.  1.
        -11    1    3    3    0    0 -0.12143007013E+03 -0.49500329676E+03 -0.52989511678E+03  0.73522946113E+03  0.00000000000E+00 0. -1.
         22    1    1    2    0    0  0.38107125994E+03  0.11497682392E+04 -0.18843184642E+04  0.22400532100E+04  0.00000000000E+00 0.  1.
<mgrwt>
<rscale>  0 0.24703460E+04</rscale>
<asrwt>0</asrwt>
<pdfrwt beam="1">  1        2 0.53555177E+00 0.24703460E+04</pdfrwt>
<pdfrwt beam="2">  1       -2 0.67426002E-01 0.24703460E+04</pdfrwt>
<totfact> 0.15134891E+00</totfact>
</mgrwt>
</event>
<event>
 6    1  0.1817112E-005  0.4417398E+04  0.7818608E-02  0.7925260E-01
          2   -1    0    0  501    0  0.00000000000E+00  0.00000000000E+00  0.19112771569E+04  0.19112771569E+04  0.00000000000E+00 0. -1.
         -2   -1    0    0    0  501 -0.00000000000E+00 -0.00000000000E+00 -0.25524037761E+04  0.25524037761E+04  0.00000000000E+00 0.  1.
         23    2    1    2    0    0  0.91981687179E+03  0.71648093271E+03 -0.22151311480E+04  0.25048807234E+04  0.90627982296E+02 0.  0.
         11    1    3    3    0    0  0.56233944140E+03  0.46266764169E+03 -0.12970477463E+04  0.14874877647E+04  0.00000000000E+00 0. -1.
        -11    1    3    3    0    0  0.35747743039E+03  0.25381329102E+03 -0.91808340168E+03  0.10173929587E+04  0.00000000000E+00 0.  1.
         22    1    1    2    0    0 -0.91981687179E+03 -0.71648093271E+03  0.15740045288E+04  0.19588002096E+04  0.00000000000E+00 0. -1.
<mgrwt>
<rscale>  0 0.44173979E+04</rscale>
<asrwt>0</asrwt>
<pdfrwt beam="1">  1        2 0.29404264E+00 0.44173979E+04</pdfrwt>
<pdfrwt beam="2">  1       -2 0.39267750E+00 0.44173979E+04</pdfrwt>
<totfact> 0.47304618E-02</totfact>
</mgrwt>
</event>
<event>
 6    1  0.1817112E-005  0.2524129E+04  0.7818608E-02  0.8394440E-01
          2   -1    0    0  501    0  0.00000000000E+00  0.00000000000E+00  0.19601958274E+04  0.19601958274E+04  0.00000000000E+00 0. -1.
         -2   -1    0    0    0  501 -0.00000000000E+00 -0.00000000000E+00 -0.81257526214E+03  0.81257526214E+03  0.00000000000E+00 0.  1.
         23    2    1    2    0    0 -0.57176979258E+03 -0.90738108104E+03  0.13019162771E+04  0.16892267718E+04  0.90774290579E+02 0.  0.
         13    1    3    3    0    0 -0.29827473754E+03 -0.50856093759E+03  0.77934507412E+03  0.97723118598E+03  0.00000000000E+00 0. -1.
        -13    1    3    3    0    0 -0.27349505504E+03 -0.39882014345E+03  0.52257120303E+03  0.71199558579E+03  0.00000000000E+00 0.  1.
         22    1    1    2    0    0  0.57176979258E+03  0.90738108104E+03 -0.15429571185E+03  0.10835443178E+04  0.00000000000E+00 0.  1.
<mgrwt>
<rscale>  0 0.25241289E+04</rscale>
<asrwt>0</asrwt>
<pdfrwt beam="1">  1        2 0.30156859E+00 0.25241289E+04</pdfrwt>
<pdfrwt beam="2">  1       -2 0.12501158E+00 0.25241289E+04</pdfrwt>
<totfact> 0.30000281E+00</totfact>
</mgrwt>
</event>
<event>
 6    1  0.1817112E-005  0.2868693E+04  0.7818608E-02  0.8282254E-01
          2   -1    0    0  501    0  0.00000000000E+00  0.00000000000E+00  0.17897344615E+04  0.17897344615E+04  0.00000000000E+00 0. -1.
         -2   -1    0    0    0  501 -0.00000000000E+00 -0.00000000000E+00 -0.11495276988E+04  0.11495276988E+04  0.00000000000E+00 0.  1.
         23    2    1    2    0    0 -0.13294692941E+04 -0.16372217354E+03  0.84176481050E+03  0.15846702658E+04  0.91204720562E+02 0.  0.
         11    1    3    3    0    0 -0.21870678147E+03  0.18874479465E+01  0.15851461237E+03  0.27011682853E+03  0.00000000000E+00 0.  1.
        -11    1    3    3    0    0 -0.11107625126E+04 -0.16560962148E+03  0.68325019813E+03  0.13145534373E+04  0.00000000000E+00 0. -1.
         22    1    1    2    0    0  0.13294692941E+04  0.16372217354E+03 -0.20155804777E+03  0.13545918945E+04  0.00000000000E+00 0.  1.
<mgrwt>
<rscale>  0 0.28686926E+04</rscale>
<asrwt>0</asrwt>
<pdfrwt beam="1">  1        2 0.27534376E+00 0.28686926E+04</pdfrwt>
<pdfrwt beam="2">  1       -2 0.17685041E+00 0.28686926E+04</pdfrwt>
<totfact> 0.14428447E+00</totfact>
</mgrwt>
</event>
<event>
 6    1  0.1817112E-005  0.2535632E+04  0.7818608E-02  0.8390400E-01
          2   -1    0    0  501    0  0.00000000000E+00  0.00000000000E+00  0.27147699658E+04  0.27147699658E+04  0.00000000000E+00 0. -1.
         -2   -1    0    0    0  501 -0.00000000000E+00 -0.00000000000E+00 -0.59207878399E+03  0.59207878399E+03  0.00000000000E+00 0.  1.
         23    2    1    2    0    0  0.20697184966E+03  0.12353791597E+04  0.13039777630E+04  0.18104227820E+04  0.90959488152E+02 0.  0.
         13    1    3    3    0    0  0.45902000158E+02  0.17033577777E+03  0.22363978754E+03  0.28484386140E+03  0.00000000000E+00 0.  1.
        -13    1    3    3    0    0  0.16106984950E+03  0.10650433820E+04  0.10803379754E+04  0.15255789206E+04  0.00000000000E+00 0. -1.
         22    1    1    2    0    0 -0.20697184966E+03 -0.12353791597E+04  0.81871341886E+03  0.14964259678E+04  0.00000000000E+00 0.  1.
<mgrwt>
<rscale>  0 0.25356322E+04</rscale>
<asrwt>0</asrwt>
<pdfrwt beam="1">  1        2 0.41765691E+00 0.25356322E+04</pdfrwt>
<pdfrwt beam="2">  1       -2 0.91089045E-01 0.25356322E+04</pdfrwt>
<totfact> 0.23780167E+00</totfact>
</mgrwt>
</event>
<event>
 6    1  0.1817112E-005  0.6854533E+03  0.7818608E-02  0.9742437E-01
         -2   -1    0    0    0  501 -0.00000000000E+00  0.00000000000E+00  0.54326940310E+02  0.54326940310E+02  0.00000000000E+00 0.  1.
          2   -1    0    0  501    0  0.00000000000E+00 -0.00000000000E+00 -0.21621237689E+04  0.21621237689E+04  0.00000000000E+00 0. -1.
         23    2    1    2    0    0  0.27338759369E+02  0.29930435880E+03 -0.57787417815E+03  0.65728624602E+03  0.88068930213E+02 0.  0.
         11    1    3    3    0    0 -0.30127955061E+02  0.12159327070E+03 -0.25994760751E+03  0.28855740470E+03  0.00000000000E+00 0. -1.
        -11    1    3    3    0    0  0.57466714430E+02  0.17771108810E+03 -0.31792657064E+03  0.36872884132E+03  0.00000000000E+00 0.  1.
         22    1    1    2    0    0 -0.27338759369E+02 -0.29930435880E+03 -0.15299226504E+04  0.15591644632E+04  0.00000000000E+00 0. -1.
<mgrwt>
<rscale>  0 0.68545334E+03</rscale>
<asrwt>0</asrwt>
<pdfrwt beam="1">  1        2 0.33263436E+00 0.68545334E+03</pdfrwt>
<pdfrwt beam="2">  1       -2 0.83579924E-02 0.68545334E+03</pdfrwt>
<totfact> 0.51385214E+02</totfact>
</mgrwt>
</event>
<event>
 6    1  0.1817112E-005  0.2163707E+04  0.7818608E-02  0.8533688E-01
          2   -1    0    0  501    0  0.00000000000E+00  0.00000000000E+00  0.20236813770E+04  0.20236813770E+04  0.00000000000E+00 0. -1.
         -2   -1    0    0    0  501 -0.00000000000E+00 -0.00000000000E+00 -0.57835545840E+03  0.57835545840E+03  0.00000000000E+00 0.  1.
         23    2    1    2    0    0 -0.38090158777E+03 -0.10085233992E+04  0.80262142144E+03  0.13469374222E+04  0.88508796155E+02 0.  0.
         11    1    3    3    0    0 -0.15109568851E+03 -0.52460358508E+03  0.41093102738E+03  0.68330310831E+03  0.00000000000E+00 0. -1.
        -11    1    3    3    0    0 -0.22980589926E+03 -0.48391981409E+03  0.39169039406E+03  0.66363431392E+03  0.00000000000E+00 0.  1.
         22    1    1    2    0    0  0.38090158777E+03  0.10085233992E+04  0.64270449713E+03  0.12550994131E+04  0.00000000000E+00 0. -1.
<mgrwt>
<rscale>  0 0.21637072E+04</rscale>
<asrwt>0</asrwt>
<pdfrwt beam="1">  1        2 0.31133559E+00 0.21637072E+04</pdfrwt>
<pdfrwt beam="2">  1       -2 0.88977764E-01 0.21637072E+04</pdfrwt>
<totfact> 0.64465038E+00</totfact>
</mgrwt>
</event>
<event>
 6    1  0.1817112E-005  0.5856127E+04  0.7818608E-02  0.7708501E-01
         -1   -1    0    0    0  501 -0.00000000000E+00  0.00000000000E+00  0.33324905085E+04  0.33324905085E+04  0.00000000000E+00 0.  1.
          1   -1    0    0  501    0  0.00000000000E+00 -0.00000000000E+00 -0.25727169624E+04  0.25727169624E+04  0.00000000000E+00 0. -1.
         23    2    1    2    0    0 -0.93717094281E+03 -0.19864508980E+04  0.23313996212E+04  0.32044140567E+04  0.92567309439E+02 0.  0.
         13    1    3    3    0    0 -0.14932459754E+03 -0.38000681853E+03  0.46828586671E+03  0.62128469362E+03  0.00000000000E+00 0.  1.
        -13    1    3    3    0    0 -0.78784634527E+03 -0.16064440795E+04  0.18631137545E+04  0.25831293631E+04  0.00000000000E+00 0. -1.
         22    1    1    2    0    0  0.93717094281E+03  0.19864508980E+04 -0.15716260751E+04  0.27007934142E+04  0.00000000000E+00 0. -1.
<mgrwt>
<rscale>  0 0.58561267E+04</rscale>
<asrwt>0</asrwt>
<pdfrwt beam="1">  1        1 0.39580261E+00 0.58561267E+04</pdfrwt>
<pdfrwt beam="2">  1       -1 0.51269085E+00 0.58561267E+04</pdfrwt>
<totfact> 0.10191963E-03</totfact>
</mgrwt>
</event>
<event>
 6    1  0.1817112E-005  0.3093783E+04  0.7818608E-02  0.8217446E-01
          2   -1    0    0  501    0  0.00000000000E+00  0.00000000000E+00  0.36726155697E+04  0.36726155697E+04  0.00000000000E+00 0.  1.
         -2   -1    0    0    0  501 -0.00000000000E+00 -0.00000000000E+00 -0.65154465167E+03  0.65154465167E+03  0.00000000000E+00 0. -1.
         23    2    1    2    0    0 -0.92823391778E+03  0.12235972560E+04  0.12701931744E+04  0.19951300962E+04  0.91350694604E+02 0.  0.
         11    1    3    3    0    0 -0.20392057913E+03  0.21026920548E+03  0.23454272702E+03  0.37524263105E+03  0.00000000000E+00 0. -1.
        -11    1    3    3    0    0 -0.72431333865E+03  0.10133280505E+04  0.10356504474E+04  0.16198874651E+04  0.00000000000E+00 0.  1.
         22    1    1    2    0    0  0.92823391778E+03 -0.12235972560E+04  0.17508777437E+04  0.23290301253E+04  0.00000000000E+00 0. -1.
<mgrwt>
<rscale>  0 0.30937828E+04</rscale>
<asrwt>0</asrwt>
<pdfrwt beam="1">  1        2 0.56501777E+00 0.30937828E+04</pdfrwt>
<pdfrwt beam="2">  1       -2 0.10023764E+00 0.30937828E+04</pdfrwt>
<totfact> 0.42614234E-01</totfact>
</mgrwt>
</event>
<event>
 6    1  0.1817112E-005  0.3149244E+03  0.7818608E-02  0.1078009E+00
          2   -1    0    0  501    0  0.00000000000E+00  0.00000000000E+00  0.19040310261E+03  0.19040310261E+03  0.00000000000E+00 0. -1.
         -2   -1    0    0    0  501 -0.00000000000E+00 -0.00000000000E+00 -0.13022024073E+03  0.13022024073E+03  0.00000000000E+00 0.  1.
         23    2    1    2    0    0  0.30386039628E+02  0.12795564322E+03 -0.27805705944E+02  0.16238950971E+03  0.91111127445E+02 0.  0.
         13    1    3    3    0    0  0.56348635075E+02  0.67543062204E+02  0.65409491009E+01  0.88204409991E+02  0.00000000000E+00 0. -1.
        -13    1    3    3    0    0 -0.25962595447E+02  0.60412581019E+02 -0.34346655045E+02  0.74185099720E+02  0.00000000000E+00 0.  1.
         22    1    1    2    0    0 -0.30386039628E+02 -0.12795564322E+03  0.87988567823E+02  0.15823383363E+03  0.00000000000E+00 0.  1.
<mgrwt>
<rscale>  0 0.31492436E+03</rscale>
<asrwt>0</asrwt>
<pdfrwt beam="1">  1        2 0.29292785E-01 0.31492436E+03</pdfrwt>
<pdfrwt beam="2">  1       -2 0.20033883E-01 0.31492436E+03</pdfrwt>
<totfact> 0.37742210E+03</totfact>
</mgrwt>
</event>
<event>
 6    1  0.1817112E-005  0.2134915E+04  0.7818608E-02  0.8546017E-01
          2   -1    0    0  501    0  0.00000000000E+00  0.00000000000E+00  0.15157812003E+04  0.15157812003E+04  0.00000000000E+00 0. -1.
         -2   -1    0    0    0  501 -0.00000000000E+00 -0.00000000000E+00 -0.75173473675E+03  0.75173473675E+03  0.00000000000E+00 0.  1.
         23    2    1    2    0    0  0.50916189795E+03 -0.14357508241E+03 -0.59966198652E+03  0.80479232016E+03  0.90755373982E+02 0.  0.
         13    1    3    3    0    0  0.19001220776E+03 -0.12158562478E+02 -0.23930549410E+03  0.30580972720E+03  0.00000000000E+00 0. -1.
        -13    1    3    3    0    0  0.31914969019E+03 -0.13141651994E+03 -0.36035649241E+03  0.49898259296E+03  0.00000000000E+00 0.  1.
         22    1    1    2    0    0 -0.50916189795E+03  0.14357508241E+03  0.13637084501E+04  0.14627236169E+04  0.00000000000E+00 0. -1.
<mgrwt>
<rscale>  0 0.21349149E+04</rscale>
<asrwt>0</asrwt>
<pdfrwt beam="1">  1        2 0.23319711E+00 0.21349149E+04</pdfrwt>
<pdfrwt beam="2">  1       -2 0.11565150E+00 0.21349149E+04</pdfrwt>
<totfact> 0.66469425E+00</totfact>
</mgrwt>
</event>
<event>
 6    1  0.1817112E-005  0.3407787E+04  0.7818608E-02  0.8135998E-01
         -2   -1    0    0    0  501 -0.00000000000E+00  0.00000000000E+00  0.83865274867E+03  0.83865274867E+03  0.00000000000E+00 0.  1.
          2   -1    0    0  501    0  0.00000000000E+00 -0.00000000000E+00 -0.34618054159E+04  0.34618054159E+04  0.00000000000E+00 0. -1.
         23    2    1    2    0    0 -0.62871499582E+03 -0.12931818930E+04 -0.24634431941E+04  0.28537000403E+04  0.86311035049E+02 0.  0.
         11    1    3    3    0    0 -0.17216183249E+03 -0.30633871329E+03 -0.66394046164E+03  0.75119906844E+03  0.00000000000E+00 0. -1.
        -11    1    3    3    0    0 -0.45655316333E+03 -0.98684317974E+03 -0.17995027324E+04  0.21025009718E+04  0.00000000000E+00 0.  1.
         22    1    1    2    0    0  0.62871499582E+03  0.12931818930E+04 -0.15970947313E+03  0.14467581243E+04  0.00000000000E+00 0. -1.
<mgrwt>
<rscale>  0 0.34077867E+04</rscale>
<asrwt>0</asrwt>
<pdfrwt beam="1">  1        2 0.53258544E+00 0.34077867E+04</pdfrwt>
<pdfrwt beam="2">  1       -2 0.12902350E+00 0.34077867E+04</pdfrwt>
<totfact> 0.31633040E-01</totfact>
</mgrwt>
</event>
<event>
 6    1  0.1817112E-005  0.9004031E+03  0.7818608E-02  0.9425078E-01
          2   -1    0    0  501    0  0.00000000000E+00  0.00000000000E+00  0.17679433191E+04  0.17679433191E+04  0.00000000000E+00 0. -1.
         -2   -1    0    0    0  501 -0.00000000000E+00 -0.00000000000E+00 -0.11464249452E+03  0.11464249452E+03  0.00000000000E+00 0.  1.
         23    2    1    2    0    0 -0.28742789242E+03  0.21039336979E+03  0.27436559703E+03  0.45838690716E+03  0.89229549079E+02 0.  0.
         11    1    3    3    0    0 -0.15415774138E+03  0.12673677176E+03  0.98989729818E+02  0.22276845637E+03  0.00000000000E+00 0.  1.
        -11    1    3    3    0    0 -0.13327015104E+03  0.83656598028E+02  0.17537586722E+03  0.23561845079E+03  0.00000000000E+00 0. -1.
         22    1    1    2    0    0  0.28742789242E+03 -0.21039336979E+03  0.13789352275E+04  0.14241989065E+04  0.00000000000E+00 0. -1.
<mgrwt>
<rscale>  0 0.90040309E+03</rscale>
<asrwt>0</asrwt>
<pdfrwt beam="1">  1        2 0.27199126E+00 0.90040309E+03</pdfrwt>
<pdfrwt beam="2">  1       -2 0.17637308E-01 0.90040309E+03</pdfrwt>
<totfact> 0.24061300E+02</totfact>
</mgrwt>
</event>
<event>
 6    1  0.1817112E-005  0.2950007E+04  0.7818608E-02  0.8258153E-01
          2   -1    0    0  501    0  0.00000000000E+00  0.00000000000E+00  0.18537941750E+04  0.18537941750E+04  0.00000000000E+00 0. -1.
         -2   -1    0    0    0  501 -0.00000000000E+00 -0.00000000000E+00 -0.11736121192E+04  0.11736121192E+04  0.00000000000E+00 0.  1.
         23    2    1    2    0    0 -0.10023531744E+03  0.53365174887E+03  0.17462721816E+04  0.18310035760E+04  0.90973926729E+02 0.  0.
         11    1    3    3    0    0 -0.24140066815E+02  0.35010874914E+03  0.11650287680E+04  0.12167378145E+04  0.00000000000E+00 0.  1.
        -11    1    3    3    0    0 -0.76095250621E+02  0.18354299973E+03  0.58124341358E+03  0.61426576150E+03  0.00000000000E+00 0. -1.
         22    1    1    2    0    0  0.10023531744E+03 -0.53365174887E+03 -0.10660901258E+04  0.11964027182E+04  0.00000000000E+00 0.  1.
<mgrwt>
<rscale>  0 0.29500070E+04</rscale>
<asrwt>0</asrwt>
<pdfrwt beam="1">  1        2 0.28519911E+00 0.29500070E+04</pdfrwt>
<pdfrwt beam="2">  1       -2 0.18055571E+00 0.29500070E+04</pdfrwt>
<totfact> 0.12445978E+00</totfact>
</mgrwt>
</event>
<event>
 6    1  0.2637721E-005  0.4591096E+04  0.7818608E-02  0.7894880E-01
         -2   -1    0    0    0  501 -0.00000000000E+00  0.00000000000E+00  0.27976794939E+04  0.27976794939E+04  0.00000000000E+00 0.  1.
          2   -1    0    0  501    0  0.00000000000E+00 -0.00000000000E+00 -0.18835397653E+04  0.18835397653E+04  0.00000000000E+00 0. -1.
         23    2    1    2    0    0 -0.65211960007E+03  0.67069895831E+03  0.25936808534E+04  0.27587324699E+04  0.91254621235E+02 0.  0.
         11    1    3    3    0    0 -0.37050432923E+03  0.33616111558E+03  0.14805590851E+04  0.15627965184E+04  0.00000000000E+00 0.  1.
        -11    1    3    3    0    0 -0.28161527083E+03  0.33453784273E+03  0.11131217683E+04  0.11959359515E+04  0.00000000000E+00 0. -1.
         22    1    1    2    0    0  0.65211960007E+03 -0.67069895831E+03 -0.16795411247E+04  0.19224867893E+04  0.00000000000E+00 0. -1.
<mgrwt>
<rscale>  0 0.45910960E+04</rscale>
<asrwt>0</asrwt>
<pdfrwt beam="1">  1        2 0.28977535E+00 0.45910960E+04</pdfrwt>
<pdfrwt beam="2">  1       -2 0.43041223E+00 0.45910960E+04</pdfrwt>
<totfact> 0.27316057E-02</totfact>
</mgrwt>
</event>
<event>
 6    1  0.1817112E-005  0.3208263E+04  0.7818608E-02  0.8186638E-01
          2   -1    0    0  501    0  0.00000000000E+00  0.00000000000E+00  0.17817458354E+04  0.17817458354E+04  0.00000000000E+00 0. -1.
         -2   -1    0    0    0  501 -0.00000000000E+00 -0.00000000000E+00 -0.14442224189E+04  0.14442224189E+04  0.00000000000E+00 0.  1.
         23    2    1    2    0    0  0.12543726552E+04  0.77981048103E+03 -0.45655130701E+03  0.15490336071E+04  0.97523717860E+02 0.  0.
         11    1    3    3    0    0  0.60793143399E+03  0.41491867514E+03 -0.18827537994E+03  0.75972742092E+03  0.00000000000E+00 0. -1.
        -11    1    3    3    0    0  0.64644122122E+03  0.36489180589E+03 -0.26827592707E+03  0.78930618618E+03  0.00000000000E+00 0.  1.
         22    1    1    2    0    0 -0.12543726552E+04 -0.77981048103E+03  0.79407472345E+03  0.16769346472E+04  0.00000000000E+00 0.  1.
<mgrwt>
<rscale>  0 0.32082626E+04</rscale>
<asrwt>0</asrwt>
<pdfrwt beam="1">  1        2 0.27411474E+00 0.32082626E+04</pdfrwt>
<pdfrwt beam="2">  1       -2 0.22218807E+00 0.32082626E+04</pdfrwt>
<totfact> 0.71159721E-01</totfact>
</mgrwt>
</event>
<event>
 6    1  0.1817112E-005  0.2468092E+04  0.7818608E-02  0.8414442E-01
          1   -1    0    0  501    0  0.00000000000E+00  0.00000000000E+00  0.66457333687E+03  0.66457333687E+03  0.00000000000E+00 0. -1.
         -1   -1    0    0    0  501 -0.00000000000E+00 -0.00000000000E+00 -0.22914999598E+04  0.22914999598E+04  0.00000000000E+00 0.  1.
         23    2    1    2    0    0 -0.58899618429E+03 -0.10826694798E+04 -0.81522446178E+03  0.14802853356E+04  0.86971514244E+02 0.  0.
         11    1    3    3    0    0 -0.16944059084E+03 -0.25814800353E+03 -0.17130541258E+03  0.35312327866E+03  0.00000000000E+00 0. -1.
        -11    1    3    3    0    0 -0.41955559346E+03 -0.82452147624E+03 -0.64391904920E+03  0.11271620570E+04  0.00000000000E+00 0.  1.
         22    1    1    2    0    0  0.58899618429E+03  0.10826694798E+04 -0.81170216115E+03  0.14757879610E+04  0.00000000000E+00 0. -1.
<mgrwt>
<rscale>  0 0.24680922E+04</rscale>
<asrwt>0</asrwt>
<pdfrwt beam="1">  1        1 0.10224205E+00 0.24680922E+04</pdfrwt>
<pdfrwt beam="2">  1       -1 0.35253846E+00 0.24680922E+04</pdfrwt>
<totfact> 0.39248366E-01</totfact>
</mgrwt>
</event>
<event>
 6    1  0.1817112E-005  0.3894836E+04  0.7818608E-02  0.8026104E-01
          2   -1    0    0  501    0  0.00000000000E+00  0.00000000000E+00  0.24450931020E+04  0.24450931020E+04  0.00000000000E+00 0.  1.
         -2   -1    0    0    0  501 -0.00000000000E+00 -0.00000000000E+00 -0.15510401869E+04  0.15510401869E+04  0.00000000000E+00 0. -1.
         23    2    1    2    0    0  0.10614934369E+04  0.27886734628E+03 -0.12018978492E+04  0.16302201629E+04  0.92325653522E+02 0.  0.
         13    1    3    3    0    0  0.72757498710E+03  0.19965390819E+03 -0.76239577441E+03  0.10726016790E+04  0.00000000000E+00 0.  1.
        -13    1    3    3    0    0  0.33391844976E+03  0.79213438091E+02 -0.43950207484E+03  0.55761848395E+03  0.00000000000E+00 0. -1.
         22    1    1    2    0    0 -0.10614934369E+04 -0.27886734628E+03  0.20959507643E+04  0.23659131260E+04  0.00000000000E+00 0.  1.
<mgrwt>
<rscale>  0 0.38948364E+04</rscale>
<asrwt>0</asrwt>
<pdfrwt beam="1">  1        2 0.37616817E+00 0.38948364E+04</pdfrwt>
<pdfrwt beam="2">  1       -2 0.23862157E+00 0.38948364E+04</pdfrwt>
<totfact> 0.22511050E-01</totfact>
</mgrwt>
</event>
<event>
 6    1  0.1817112E-005  0.6267367E+03  0.7818608E-02  0.9851438E-01
          2   -1    0    0  501    0  0.00000000000E+00  0.00000000000E+00  0.25886988620E+04  0.25886988620E+04  0.00000000000E+00 0.  1.
         -2   -1    0    0    0  501 -0.00000000000E+00 -0.00000000000E+00 -0.37934008372E+02  0.37934008372E+02  0.00000000000E+00 0. -1.
         23    2    1    2    0    0  0.26980809676E+03  0.13266312789E+03  0.15607408129E+04  0.15919621422E+04  0.89641856693E+02 0.  0.
         11    1    3    3    0    0  0.14142050526E+03  0.11853403897E+03  0.90424856096E+03  0.92288435770E+03  0.00000000000E+00 0. -1.
        -11    1    3    3    0    0  0.12838759150E+03  0.14129088927E+02  0.65649225198E+03  0.66907778450E+03  0.00000000000E+00 0.  1.
         22    1    1    2    0    0 -0.26980809676E+03 -0.13266312789E+03  0.99002404067E+03  0.10346707282E+04  0.00000000000E+00 0.  1.
<mgrwt>
<rscale>  0 0.62673670E+03</rscale>
<asrwt>0</asrwt>
<pdfrwt beam="1">  1        2 0.39826122E+00 0.62673670E+03</pdfrwt>
<pdfrwt beam="2">  1       -2 0.58360033E-02 0.62673670E+03</pdfrwt>
<totfact> 0.52737957E+02</totfact>
</mgrwt>
</event>
<event>
 6    1  0.1817112E-005  0.3867009E+04  0.7818608E-02  0.8031926E-01
          2   -1    0    0  501    0  0.00000000000E+00  0.00000000000E+00  0.20336888571E+04  0.20336888571E+04  0.00000000000E+00 0. -1.
         -2   -1    0    0    0  501 -0.00000000000E+00 -0.00000000000E+00 -0.18382554343E+04  0.18382554343E+04  0.00000000000E+00 0.  1.
         23    2    1    2    0    0  0.25322377897E+03  0.20541869221E+03  0.20054640827E+04  0.20327786894E+04  0.63118077331E+02 0.  0.
         11    1    3    3    0    0  0.18050447759E+03  0.16260545923E+03  0.16256401948E+04  0.16436935374E+04  0.00000000000E+00 0. -1.
        -11    1    3    3    0    0  0.72719301383E+02  0.42813232979E+02  0.37982388793E+03  0.38908515206E+03  0.00000000000E+00 0.  1.
         22    1    1    2    0    0 -0.25322377897E+03 -0.20541869221E+03 -0.18100306599E+04  0.18391656019E+04  0.00000000000E+00 0.  1.
<mgrwt>
<rscale>  0 0.38670090E+04</rscale>
<asrwt>0</asrwt>
<pdfrwt beam="1">  1        2 0.31287521E+00 0.38670090E+04</pdfrwt>
<pdfrwt beam="2">  1       -2 0.28280853E+00 0.38670090E+04</pdfrwt>
<totfact> 0.20657857E-01</totfact>
</mgrwt>
</event>
<event>
 6    1  0.1817112E-005  0.1727100E+04  0.7818608E-02  0.8746058E-01
         -1   -1    0    0    0  501 -0.00000000000E+00  0.00000000000E+00  0.40309069919E+03  0.40309069919E+03  0.00000000000E+00 0.  1.
          1   -1    0    0  501    0  0.00000000000E+00 -0.00000000000E+00 -0.18500013208E+04  0.18500013208E+04  0.00000000000E+00 0. -1.
         23    2    1    2    0    0 -0.12200868423E+03  0.20449127275E+03 -0.18049896414E+04  0.18230648301E+04  0.94207057335E+02 0.  0.
         13    1    3    3    0    0 -0.11252905489E+03  0.12440502957E+03 -0.14087126395E+04  0.14186651121E+04  0.00000000000E+00 0. -1.
        -13    1    3    3    0    0 -0.94796293479E+01  0.80086243180E+02 -0.39627700192E+03  0.40439971806E+03  0.00000000000E+00 0.  1.
         22    1    1    2    0    0  0.12200868423E+03 -0.20449127275E+03  0.35807901975E+03  0.43002718990E+03  0.00000000000E+00 0.  1.
<mgrwt>
<rscale>  0 0.17270997E+04</rscale>
<asrwt>0</asrwt>
<pdfrwt beam="1">  1        1 0.28461559E+00 0.17270997E+04</pdfrwt>
<pdfrwt beam="2">  1       -1 0.62013953E-01 0.17270997E+04</pdfrwt>
<totfact> 0.94344455E+00</totfact>
</mgrwt>
</event>
<event>
 6    1  0.1817112E-005  0.3334325E+04  0.7818608E-02  0.8154216E-01
          1   -1    0    0  501    0  0.00000000000E+00  0.00000000000E+00  0.34448043917E+04  0.34448043917E+04  0.00000000000E+00 0. -1.
         -1   -1    0    0    0  501 -0.00000000000E+00 -0.00000000000E+00 -0.80684737701E+03  0.80684737701E+03  0.00000000000E+00 0.  1.
         23    2    1    2    0    0 -0.12203138714E+04 -0.55666185553E+02  0.27641912861E+04  0.30235639215E+04  0.94449203977E+02 0.  0.
         13    1    3    3    0    0 -0.41433450407E+03  0.18046552405E+02  0.99959430852E+03  0.10822141844E+04  0.00000000000E+00 0.  1.
        -13    1    3    3    0    0 -0.80597936737E+03 -0.73712737958E+02  0.17645969776E+04  0.19413497371E+04  0.00000000000E+00 0. -1.
         22    1    1    2    0    0  0.12203138714E+04  0.55666185553E+02 -0.12623427148E+03  0.12280878472E+04  0.00000000000E+00 0.  1.
<mgrwt>
<rscale>  0 0.33343254E+04</rscale>
<asrwt>0</asrwt>
<pdfrwt beam="1">  1        1 0.52996990E+00 0.33343254E+04</pdfrwt>
<pdfrwt beam="2">  1       -1 0.12413037E+00 0.33343254E+04</pdfrwt>
<totfact> 0.12989062E-01</totfact>
</mgrwt>
</event>
<event>
 6    1  0.1817112E-005  0.3757965E+04  0.7818608E-02  0.8055236E-01
          1   -1    0    0  501    0  0.00000000000E+00  0.00000000000E+00  0.28718476628E+04  0.28718476628E+04  0.00000000000E+00 0. -1.
         -1   -1    0    0    0  501 -0.00000000000E+00 -0.00000000000E+00 -0.12293743082E+04  0.12293743082E+04  0.00000000000E+00 0.  1.
         23    2    1    2    0    0  0.74802414081E+02 -0.12654814819E+04  0.23337112934E+04  0.26573214653E+04  0.90056576055E+02 0.  0.
         13    1    3    3    0    0  0.32873299224E+02 -0.39603557373E+03  0.81867681991E+03  0.91003107910E+03  0.00000000000E+00 0.  1.
        -13    1    3    3    0    0  0.41929114857E+02 -0.86944590821E+03  0.15150344735E+04  0.17472903862E+04  0.00000000000E+00 0. -1.
         22    1    1    2    0    0 -0.74802414081E+02  0.12654814819E+04 -0.69123793879E+03  0.14439005057E+04  0.00000000000E+00 0.  1.
<mgrwt>
<rscale>  0 0.37579653E+04</rscale>
<asrwt>0</asrwt>
<pdfrwt beam="1">  1        1 0.44182272E+00 0.37579653E+04</pdfrwt>
<pdfrwt beam="2">  1       -1 0.18913451E+00 0.37579653E+04</pdfrwt>
<totfact> 0.10586712E-01</totfact>
</mgrwt>
</event>
<event>
 6    1  0.1817112E-005  0.2095150E+04  0.7818608E-02  0.8563383E-01
         -2   -1    0    0    0  501 -0.00000000000E+00  0.00000000000E+00  0.84885592462E+03  0.84885592462E+03  0.00000000000E+00 0.  1.
          2   -1    0    0  501    0  0.00000000000E+00 -0.00000000000E+00 -0.12928148651E+04  0.12928148651E+04  0.00000000000E+00 0. -1.
         23    2    1    2    0    0  0.59495429363E+03  0.38837612803E+02  0.65575900407E+03  0.89072773377E+03  0.88865362237E+02 0.  0.
         11    1    3    3    0    0  0.16408626760E+03  0.44925100302E+02  0.15569626431E+03  0.23061633631E+03  0.00000000000E+00 0.  1.
        -11    1    3    3    0    0  0.43086802603E+03 -0.60874874989E+01  0.50006273976E+03  0.66011139746E+03  0.00000000000E+00 0. -1.
         22    1    1    2    0    0 -0.59495429363E+03 -0.38837612803E+02 -0.10997179445E+04  0.12509430559E+04  0.00000000000E+00 0. -1.
<mgrwt>
<rscale>  0 0.20951502E+04</rscale>
<asrwt>0</asrwt>
<pdfrwt beam="1">  1        2 0.19889459E+00 0.20951502E+04</pdfrwt>
<pdfrwt beam="2">  1       -2 0.13059322E+00 0.20951502E+04</pdfrwt>
<totfact> 0.66076798E+00</totfact>
</mgrwt>
</event>
<event>
 6    1  0.1817112E-005  0.1094878E+04  0.7818608E-02  0.9210198E-01
         -2   -1    0    0    0  501 -0.00000000000E+00  0.00000000000E+00  0.25574836055E+03  0.25574836055E+03  0.00000000000E+00 0. -1.
          2   -1    0    0  501    0  0.00000000000E+00 -0.00000000000E+00 -0.11718141678E+04  0.11718141678E+04  0.00000000000E+00 0.  1.
         23    2    1    2    0    0  0.12644184516E+03  0.47433911827E+03 -0.76573601108E+03  0.91415802218E+03  0.91368000525E+02 0.  0.
         13    1    3    3    0    0  0.78260139861E+02  0.13414241545E+03 -0.25636347557E+03  0.29973499749E+03  0.00000000000E+00 0.  1.
        -13    1    3    3    0    0  0.48181705299E+02  0.34019670282E+03 -0.50937253551E+03  0.61442302469E+03  0.00000000000E+00 0. -1.
         22    1    1    2    0    0 -0.12644184516E+03 -0.47433911827E+03 -0.15032979617E+03  0.51340450616E+03  0.00000000000E+00 0. -1.
<mgrwt>
<rscale>  0 0.10948782E+04</rscale>
<asrwt>0</asrwt>
<pdfrwt beam="1">  1        2 0.18027910E+00 0.10948782E+04</pdfrwt>
<pdfrwt beam="2">  1       -2 0.39345902E-01 0.10948782E+04</pdfrwt>
<totfact> 0.11937577E+02</totfact>
</mgrwt>
</event>
<event>
 6    1  0.1817112E-005  0.2662328E+04  0.7818608E-02  0.8347333E-01
         -2   -1    0    0    0  501 -0.00000000000E+00  0.00000000000E+00  0.85056024950E+03  0.85056024950E+03  0.00000000000E+00 0.  1.
          2   -1    0    0  501    0  0.00000000000E+00 -0.00000000000E+00 -0.20833305676E+04  0.20833305676E+04  0.00000000000E+00 0. -1.
         23    2    1    2    0    0  0.66135937659E+03  0.17019613133E+03  0.64014162367E+03  0.94036075972E+03  0.90189311701E+02 0.  0.
         13    1    3    3    0    0  0.49538712224E+03  0.15938360715E+03  0.45248391352E+03  0.68960367394E+03  0.00000000000E+00 0.  1.
        -13    1    3    3    0    0  0.16597225434E+03  0.10812524177E+02  0.18765771015E+03  0.25075708578E+03  0.00000000000E+00 0. -1.
         22    1    1    2    0    0 -0.66135937659E+03 -0.17019613133E+03 -0.18729119418E+04  0.19935300574E+04  0.00000000000E+00 0. -1.
<mgrwt>
<rscale>  0 0.26623284E+04</rscale>
<asrwt>0</asrwt>
<pdfrwt beam="1">  1        2 0.32051239E+00 0.26623284E+04</pdfrwt>
<pdfrwt beam="2">  1       -2 0.13085542E+00 0.26623284E+04</pdfrwt>
<totfact> 0.22565469E+00</totfact>
</mgrwt>
</event>
<event>
 6    1  0.1817112E-005  0.8522080E+03  0.7818608E-02  0.9487378E-01
          1   -1    0    0  501    0  0.00000000000E+00  0.00000000000E+00  0.24458739111E+04  0.24458739111E+04  0.00000000000E+00 0. -1.
         -1   -1    0    0    0  501 -0.00000000000E+00 -0.00000000000E+00 -0.74233022109E+02  0.74233022109E+02  0.00000000000E+00 0.  1.
         23    2    1    2    0    0 -0.19919502480E+03  0.36400980337E+03  0.98018744782E+03  0.10680998830E+04  0.88815158558E+02 0.  0.
         13    1    3    3    0    0 -0.15367880506E+03  0.20524810743E+03  0.65442467284E+03  0.70286244255E+03  0.00000000000E+00 0. -1.
        -13    1    3    3    0    0 -0.45516219736E+02  0.15876169594E+03  0.32576277498E+03  0.36523744046E+03  0.00000000000E+00 0.  1.
         22    1    1    2    0    0  0.19919502480E+03 -0.36400980337E+03  0.13914534412E+04  0.14520070502E+04  0.00000000000E+00 0. -1.
<mgrwt>
<rscale>  0 0.85220798E+03</rscale>
<asrwt>0</asrwt>
<pdfrwt beam="1">  1        1 0.37628823E+00 0.85220798E+03</pdfrwt>
<pdfrwt beam="2">  1       -1 0.11420467E-01 0.85220798E+03</pdfrwt>
<totfact> 0.77707244E+01</totfact>
</mgrwt>
</event>
<event>
 6    1  0.1817112E-005  0.4071200E+04  0.7818608E-02  0.7990335E-01
          2   -1    0    0  501    0  0.00000000000E+00  0.00000000000E+00  0.17064679702E+04  0.17064679702E+04  0.00000000000E+00 0. -1.
         -2   -1    0    0    0  501 -0.00000000000E+00 -0.00000000000E+00 -0.24282130030E+04  0.24282130030E+04  0.00000000000E+00 0.  1.
         23    2    1    2    0    0 -0.77661553531E+03  0.58017725279E+03 -0.21777678028E+04  0.23854698249E+04  0.89757161535E+02 0.  0.
         11    1    3    3    0    0 -0.53242328995E+03  0.44481828449E+03 -0.15890182791E+04  0.17338733971E+04  0.00000000000E+00 0.  1.
        -11    1    3    3    0    0 -0.24419224536E+03  0.13535896830E+03 -0.58874952376E+03  0.65159642780E+03  0.00000000000E+00 0. -1.
         22    1    1    2    0    0  0.77661553531E+03 -0.58017725279E+03  0.14560227701E+04  0.17492111483E+04  0.00000000000E+00 0. -1.
<mgrwt>
<rscale>  0 0.40712002E+04</rscale>
<asrwt>0</asrwt>
<pdfrwt beam="1">  1        2 0.26253354E+00 0.40712002E+04</pdfrwt>
<pdfrwt beam="2">  1       -2 0.37357123E+00 0.40712002E+04</pdfrwt>
<totfact> 0.83989894E-02</totfact>
</mgrwt>
</event>
<event>
 6    1  0.1868740E-005  0.3160318E+04  0.7818608E-02  0.8199376E-01
         -2   -1    0    0    0  501 -0.00000000000E+00  0.00000000000E+00  0.15486097319E+04  0.15486097319E+04  0.00000000000E+00 0.  1.
          2   -1    0    0  501    0  0.00000000000E+00 -0.00000000000E+00 -0.16123514087E+04  0.16123514087E+04  0.00000000000E+00 0. -1.
         23    2    1    2    0    0 -0.36982587660E+03  0.75536677309E+03 -0.13685927097E+04  0.16085480644E+04  0.83849445005E+02 0.  0.
         13    1    3    3    0    0 -0.33824905067E+03  0.62201742368E+03 -0.11359034502E+04  0.13385046671E+04  0.00000000000E+00 0.  1.
        -13    1    3    3    0    0 -0.31576825927E+02  0.13334934941E+03 -0.23268925957E+03  0.27004339734E+03  0.00000000000E+00 0. -1.
         22    1    1    2    0    0  0.36982587660E+03 -0.75536677309E+03  0.13048510330E+04  0.15524130762E+04  0.00000000000E+00 0.  1.
<mgrwt>
<rscale>  0 0.31603184E+04</rscale>
<asrwt>0</asrwt>
<pdfrwt beam="1">  1        2 0.24805406E+00 0.31603184E+04</pdfrwt>
<pdfrwt beam="2">  1       -2 0.23824765E+00 0.31603184E+04</pdfrwt>
<totfact> 0.70430797E-01</totfact>
</mgrwt>
</event>
<event>
 6    1  0.1817112E-005  0.2451395E+04  0.7818608E-02  0.8420509E-01
          2   -1    0    0  501    0  0.00000000000E+00  0.00000000000E+00  0.20454215248E+04  0.20454215248E+04  0.00000000000E+00 0. -1.
         -2   -1    0    0    0  501 -0.00000000000E+00 -0.00000000000E+00 -0.73448625572E+03  0.73448625572E+03  0.00000000000E+00 0.  1.
         23    2    1    2    0    0 -0.46377365725E+03  0.26007590403E+03  0.19065251355E+04  0.19815013865E+04  0.93723910627E+02 0.  0.
         11    1    3    3    0    0 -0.12667276605E+03  0.34647796439E+02  0.56261848743E+03  0.57774217593E+03  0.00000000000E+00 0. -1.
        -11    1    3    3    0    0 -0.33710089120E+03  0.22542810759E+03  0.13439066481E+04  0.14037592106E+04  0.00000000000E+00 0.  1.
         22    1    1    2    0    0  0.46377365725E+03 -0.26007590403E+03 -0.59558986643E+03  0.79840639401E+03  0.00000000000E+00 0.  1.
<mgrwt>
<rscale>  0 0.24513947E+04</rscale>
<asrwt>0</asrwt>
<pdfrwt beam="1">  1        2 0.31468023E+00 0.24513947E+04</pdfrwt>
<pdfrwt beam="2">  1       -2 0.11299789E+00 0.24513947E+04</pdfrwt>
<totfact> 0.34735614E+00</totfact>
</mgrwt>
</event>
<event>
 6    1  0.1817112E-005  0.8116787E+03  0.7818608E-02  0.9543265E-01
         -2   -1    0    0    0  501 -0.00000000000E+00  0.00000000000E+00  0.45432943308E+03  0.45432943308E+03  0.00000000000E+00 0.  1.
          2   -1    0    0  501    0  0.00000000000E+00 -0.00000000000E+00 -0.36252452771E+03  0.36252452771E+03  0.00000000000E+00 0. -1.
         23    2    1    2    0    0  0.23109866643E+03 -0.30232154430E+03  0.17127791286E+03  0.42811128408E+03  0.95594133473E+02 0.  0.
         11    1    3    3    0    0  0.76189958642E+02 -0.11052465585E+03  0.12402577158E+02  0.13481258572E+03  0.00000000000E+00 0. -1.
        -11    1    3    3    0    0  0.15490870779E+03 -0.19179688844E+03  0.15887533570E+03  0.29329869836E+03  0.00000000000E+00 0.  1.
         22    1    1    2    0    0 -0.23109866643E+03  0.30232154430E+03 -0.79473007490E+02  0.38874267670E+03  0.00000000000E+00 0. -1.
<mgrwt>
<rscale>  0 0.81167866E+03</rscale>
<asrwt>0</asrwt>
<pdfrwt beam="1">  1        2 0.55773004E-01 0.81167866E+03</pdfrwt>
<pdfrwt beam="2">  1       -2 0.69896836E-01 0.81167866E+03</pdfrwt>
<totfact> 0.16689280E+02</totfact>
</mgrwt>
</event>
<event>
 6    1  0.1817112E-005  0.1997304E+04  0.7818608E-02  0.8607882E-01
         -2   -1    0    0    0  501 -0.00000000000E+00  0.00000000000E+00  0.47234275547E+03  0.47234275547E+03  0.00000000000E+00 0.  1.
          2   -1    0    0  501    0  0.00000000000E+00 -0.00000000000E+00 -0.21114021728E+04  0.21114021728E+04  0.00000000000E+00 0. -1.
         23    2    1    2    0    0  0.39678851636E+03  0.14380273592E+03 -0.19891361183E+04  0.20354073952E+04  0.90002297168E+02 0.  0.
         11    1    3    3    0    0  0.92586607586E+02  0.24061368278E+01 -0.54565341770E+03  0.55345796737E+03  0.00000000000E+00 0. -1.
        -11    1    3    3    0    0  0.30420190878E+03  0.14139659909E+03 -0.14434827006E+04  0.14819494278E+04  0.00000000000E+00 0.  1.
         22    1    1    2    0    0 -0.39678851636E+03 -0.14380273592E+03  0.35007670103E+03  0.54833753308E+03  0.00000000000E+00 0.  1.
<mgrwt>
<rscale>  0 0.19973037E+04</rscale>
<asrwt>0</asrwt>
<pdfrwt beam="1">  1        2 0.32483110E+00 0.19973037E+04</pdfrwt>
<pdfrwt beam="2">  1       -2 0.72668116E-01 0.19973037E+04</pdfrwt>
<totfact> 0.92131567E+00</totfact>
</mgrwt>
</event>
<event>
 6    1  0.1817112E-005  0.2656658E+04  0.7818608E-02  0.8349206E-01
          2   -1    0    0  501    0  0.00000000000E+00  0.00000000000E+00  0.28045122719E+04  0.28045122719E+04  0.00000000000E+00 0. -1.
         -2   -1    0    0    0  501 -0.00000000000E+00 -0.00000000000E+00 -0.62914982964E+03  0.62914982964E+03  0.00000000000E+00 0.  1.
         23    2    1    2    0    0 -0.12669440815E+03  0.95726997553E+03 -0.86990148494E+02  0.97385387243E+03  0.91688602388E+02 0.  0.
         13    1    3    3    0    0 -0.10179350813E+03  0.78689361145E+03 -0.35960076979E+02  0.79426481804E+03  0.00000000000E+00 0. -1.
        -13    1    3    3    0    0 -0.24900900018E+02  0.17037636408E+03 -0.51030071515E+02  0.17958905439E+03  0.00000000000E+00 0.  1.
         22    1    1    2    0    0  0.12669440815E+03 -0.95726997553E+03  0.22623525907E+04  0.24598082291E+04  0.00000000000E+00 0. -1.
<mgrwt>
<rscale>  0 0.26566584E+04</rscale>
<asrwt>0</asrwt>
<pdfrwt beam="1">  1        2 0.43146342E+00 0.26566584E+04</pdfrwt>
<pdfrwt beam="2">  1       -2 0.96792283E-01 0.26566584E+04</pdfrwt>
<totfact> 0.18042609E+00</totfact>
</mgrwt>
</event>
<event>
 6    1  0.1817112E-005  0.1672121E+04  0.7818608E-02  0.8777426E-01
         -2   -1    0    0    0  501 -0.00000000000E+00  0.00000000000E+00  0.14039558865E+04  0.14039558865E+04  0.00000000000E+00 0.  1.
          2   -1    0    0  501    0  0.00000000000E+00 -0.00000000000E+00 -0.49787700515E+03  0.49787700515E+03  0.00000000000E+00 0. -1.
         23    2    1    2    0    0 -0.25796598140E+03 -0.69759507330E+03  0.88240178922E+03  0.11576918173E+04  0.91826425165E+02 0.  0.
         13    1    3    3    0    0 -0.18779170687E+03 -0.39294653736E+03  0.48018594093E+03  0.64826788001E+03  0.00000000000E+00 0.  1.
        -13    1    3    3    0    0 -0.70174274526E+02 -0.30464853594E+03  0.40221584830E+03  0.50942393729E+03  0.00000000000E+00 0. -1.
         22    1    1    2    0    0  0.25796598140E+03  0.69759507330E+03  0.23677092128E+02  0.74414107436E+03  0.00000000000E+00 0. -1.
<mgrwt>
<rscale>  0 0.16721212E+04</rscale>
<asrwt>0</asrwt>
<pdfrwt beam="1">  1        2 0.76596463E-01 0.16721212E+04</pdfrwt>
<pdfrwt beam="2">  1       -2 0.21599321E+00 0.16721212E+04</pdfrwt>
<totfact> 0.61805645E+00</totfact>
</mgrwt>
</event>
<event>
 6    1  0.1817112E-005  0.2790078E+04  0.7818608E-02  0.8306355E-01
         -1   -1    0    0    0  501 -0.00000000000E+00  0.00000000000E+00  0.23849391330E+04  0.23849391330E+04  0.00000000000E+00 0.  1.
          1   -1    0    0  501    0  0.00000000000E+00 -0.00000000000E+00 -0.81600985220E+03  0.81600985220E+03  0.00000000000E+00 0. -1.
         23    2    1    2    0    0  0.59170903355E+03 -0.66781317389E+03 -0.44285016596E+03  0.10001876265E+04  0.90360406558E+02 0.  0.
         11    1    3    3    0    0  0.33911364895E+03 -0.36646730664E+03 -0.19892538543E+03  0.53746410364E+03  0.00000000000E+00 0. -1.
        -11    1    3    3    0    0  0.25259538460E+03 -0.30134586725E+03 -0.24392478053E+03  0.46272352284E+03  0.00000000000E+00 0.  1.
         22    1    1    2    0    0 -0.59170903355E+03  0.66781317389E+03  0.20117794467E+04  0.22007613587E+04  0.00000000000E+00 0.  1.
<mgrwt>
<rscale>  0 0.27900780E+04</rscale>
<asrwt>0</asrwt>
<pdfrwt beam="1">  1        1 0.12553998E+00 0.27900780E+04</pdfrwt>
<pdfrwt beam="2">  1       -1 0.36691371E+00 0.27900780E+04</pdfrwt>
<totfact> 0.22230199E-01</totfact>
</mgrwt>
</event>
<event>
 6    1  0.1817112E-005  0.3708218E+04  0.7818608E-02  0.8066143E-01
          2   -1    0    0  501    0  0.00000000000E+00  0.00000000000E+00  0.30557316739E+04  0.30557316739E+04  0.00000000000E+00 0. -1.
         -2   -1    0    0    0  501 -0.00000000000E+00 -0.00000000000E+00 -0.11250073687E+04  0.11250073687E+04  0.00000000000E+00 0.  1.
         23    2    1    2    0    0 -0.28433919007E+03 -0.18709756274E+03  0.30195154644E+04  0.30399847039E+04  0.90438304803E+02 0.  0.
         11    1    3    3    0    0 -0.12159642392E+03 -0.75843034848E+02  0.16712661648E+04  0.16773993113E+04  0.00000000000E+00 0. -1.
        -11    1    3    3    0    0 -0.16274276615E+03 -0.11125452789E+03  0.13482492997E+04  0.13625853925E+04  0.00000000000E+00 0.  1.
         22    1    1    2    0    0  0.28433919007E+03  0.18709756274E+03 -0.10887911592E+04  0.11407543388E+04  0.00000000000E+00 0.  1.
<mgrwt>
<rscale>  0 0.37082183E+04</rscale>
<asrwt>0</asrwt>
<pdfrwt beam="1">  1        2 0.47011256E+00 0.37082183E+04</pdfrwt>
<pdfrwt beam="2">  1       -2 0.17307806E+00 0.37082183E+04</pdfrwt>
<totfact> 0.26274885E-01</totfact>
</mgrwt>
</event>
<event>
 6    1  0.1817112E-005  0.2277140E+04  0.7818608E-02  0.8486990E-01
         -2   -1    0    0    0  501 -0.00000000000E+00  0.00000000000E+00  0.94950513031E+03  0.94950513031E+03  0.00000000000E+00 0.  1.
          2   -1    0    0  501    0  0.00000000000E+00 -0.00000000000E+00 -0.13652808727E+04  0.13652808727E+04  0.00000000000E+00 0. -1.
         23    2    1    2    0    0 -0.41733972708E+03  0.10540886829E+04 -0.12308171940E+03  0.11439123163E+04  0.90060415175E+02 0.  0.
         11    1    3    3    0    0 -0.99102985775E+02  0.29690167967E+03  0.25496882156E+01  0.31301519146E+03  0.00000000000E+00 0. -1.
        -11    1    3    3    0    0 -0.31823674130E+03  0.75718700326E+03 -0.12563140761E+03  0.83089712480E+03  0.00000000000E+00 0.  1.
         22    1    1    2    0    0  0.41733972708E+03 -0.10540886829E+04 -0.29269402304E+03  0.11708736868E+04  0.00000000000E+00 0.  1.
<mgrwt>
<rscale>  0 0.22771396E+04</rscale>
<asrwt>0</asrwt>
<pdfrwt beam="1">  1        2 0.21004321E+00 0.22771396E+04</pdfrwt>
<pdfrwt beam="2">  1       -2 0.14607771E+00 0.22771396E+04</pdfrwt>
<totfact> 0.44231293E+00</totfact>
</mgrwt>
</event>
<event>
 6    1  0.1817112E-005  0.3726409E+04  0.7818608E-02  0.8062134E-01
         -2   -1    0    0    0  501 -0.00000000000E+00  0.00000000000E+00  0.17621021766E+04  0.17621021766E+04  0.00000000000E+00 0.  1.
          2   -1    0    0  501    0  0.00000000000E+00 -0.00000000000E+00 -0.19701077183E+04  0.19701077183E+04  0.00000000000E+00 0. -1.
         23    2    1    2    0    0  0.15506072725E+04 -0.10311712884E+04 -0.87110286231E+02  0.18661142912E+04  0.84244920227E+02 0.  0.
         11    1    3    3    0    0  0.94442106150E+03 -0.67677122213E+03 -0.58811032099E+02  0.11633611503E+04  0.00000000000E+00 0. -1.
        -11    1    3    3    0    0  0.60618621095E+03 -0.35440006622E+03 -0.28299254132E+02  0.70275314092E+03  0.00000000000E+00 0.  1.
         22    1    1    2    0    0 -0.15506072725E+04  0.10311712884E+04 -0.12089525556E+03  0.18660956037E+04  0.00000000000E+00 0.  1.
<mgrwt>
<rscale>  0 0.37264090E+04</rscale>
<asrwt>0</asrwt>
<pdfrwt beam="1">  1        2 0.30309349E+00 0.37264090E+04</pdfrwt>
<pdfrwt beam="2">  1       -2 0.27109264E+00 0.37264090E+04</pdfrwt>
<totfact> 0.26728188E-01</totfact>
</mgrwt>
</event>
<event>
 6    1  0.1817112E-005  0.5687654E+04  0.7818608E-02  0.7730383E-01
         -2   -1    0    0    0  501 -0.00000000000E+00  0.00000000000E+00  0.26194718337E+04  0.26194718337E+04  0.00000000000E+00 0.  1.
          2   -1    0    0  501    0  0.00000000000E+00 -0.00000000000E+00 -0.30873981339E+04  0.30873981339E+04  0.00000000000E+00 0. -1.
         23    2    1    2    0    0 -0.81748626483E+03 -0.23615100275E+03  0.24879264243E+04  0.26309771836E+04  0.90619858086E+02 0.  0.
         13    1    3    3    0    0 -0.15564622115E+03 -0.94964018281E+01  0.47656585931E+03  0.50142890430E+03  0.00000000000E+00 0. -1.
        -13    1    3    3    0    0 -0.66184004368E+03 -0.22665460092E+03  0.20113605650E+04  0.21295482793E+04  0.00000000000E+00 0.  1.
         22    1    1    2    0    0  0.81748626483E+03  0.23615100275E+03 -0.29558527245E+04  0.30758927839E+04  0.00000000000E+00 0. -1.
<mgrwt>
<rscale>  0 0.56876542E+04</rscale>
<asrwt>0</asrwt>
<pdfrwt beam="1">  1        2 0.47498433E+00 0.56876542E+04</pdfrwt>
<pdfrwt beam="2">  1       -2 0.40299567E+00 0.56876542E+04</pdfrwt>
<totfact> 0.75039775E-03</totfact>
</mgrwt>
</event>
<event>
 6    1  0.1817112E-005  0.2984137E+04  0.7818608E-02  0.8248275E-01
          2   -1    0    0  501    0  0.00000000000E+00  0.00000000000E+00  0.16297788181E+04  0.16297788181E+04  0.00000000000E+00 0. -1.
         -2   -1    0    0    0  501 -0.00000000000E+00 -0.00000000000E+00 -0.13659943047E+04  0.13659943047E+04  0.00000000000E+00 0.  1.
         23    2    1    2    0    0  0.10851110394E+04  0.52835727883E+03  0.10104583865E+04  0.15765658601E+04  0.88917817285E+02 0.  0.
         11    1    3    3    0    0  0.10224517916E+03  0.64232955414E+02  0.13314081399E+03  0.17973988309E+03  0.00000000000E+00 0.  1.
        -11    1    3    3    0    0  0.98286586028E+03  0.46412432341E+03  0.87731757252E+03  0.13968259770E+04  0.00000000000E+00 0. -1.
         22    1    1    2    0    0 -0.10851110394E+04 -0.52835727883E+03 -0.74667387311E+03  0.14192072628E+04  0.00000000000E+00 0.  1.
<mgrwt>
<rscale>  0 0.29841371E+04</rscale>
<asrwt>0</asrwt>
<pdfrwt beam="1">  1        2 0.25073520E+00 0.29841371E+04</pdfrwt>
<pdfrwt beam="2">  1       -2 0.21015297E+00 0.29841371E+04</pdfrwt>
<totfact> 0.10510915E+00</totfact>
</mgrwt>
</event>
<event>
 6    1  0.1817112E-005  0.4626434E+04  0.7818608E-02  0.7888868E-01
          2   -1    0    0  501    0  0.00000000000E+00  0.00000000000E+00  0.32841752561E+04  0.32841752561E+04  0.00000000000E+00 0. -1.
         -2   -1    0    0    0  501 -0.00000000000E+00 -0.00000000000E+00 -0.16293199679E+04  0.16293199679E+04  0.00000000000E+00 0.  1.
         23    2    1    2    0    0 -0.45986241157E+01  0.20543062858E+04 -0.29953206993E+03  0.20780366351E+04  0.91221339080E+02 0.  0.
         11    1    3    3    0    0  0.41298823640E+02  0.73188884565E+03 -0.98633818909E+02  0.73965904676E+03  0.00000000000E+00 0.  1.
        -11    1    3    3    0    0 -0.45897447756E+02  0.13224174402E+04 -0.20089825102E+03  0.13383775883E+04  0.00000000000E+00 0. -1.
         22    1    1    2    0    0  0.45986241157E+01 -0.20543062858E+04  0.19543873582E+04  0.28354585889E+04  0.00000000000E+00 0. -1.
<mgrwt>
<rscale>  0 0.46264338E+04</rscale>
<asrwt>0</asrwt>
<pdfrwt beam="1">  1        2 0.50525773E+00 0.46264338E+04</pdfrwt>
<pdfrwt beam="2">  1       -2 0.25066461E+00 0.46264338E+04</pdfrwt>
<totfact> 0.54422991E-02</totfact>
</mgrwt>
</event>
<event>
 6    1  0.1817112E-005  0.2173587E+04  0.7818608E-02  0.8529503E-01
          2   -1    0    0  501    0  0.00000000000E+00  0.00000000000E+00  0.31762871967E+04  0.31762871967E+04  0.00000000000E+00 0. -1.
         -2   -1    0    0    0  501 -0.00000000000E+00 -0.00000000000E+00 -0.37185568799E+03  0.37185568799E+03  0.00000000000E+00 0.  1.
         23    2    1    2    0    0 -0.22061302892E+03  0.35349497173E+03  0.30398070098E+04  0.30695716464E+04  0.90634608004E+02 0.  0.
         11    1    3    3    0    0 -0.15188752355E+03  0.29213357487E+03  0.25506139092E+04  0.25717782096E+04  0.00000000000E+00 0. -1.
        -11    1    3    3    0    0 -0.68725505364E+02  0.61361396859E+02  0.48919310051E+03  0.49779343678E+03  0.00000000000E+00 0.  1.
         22    1    1    2    0    0  0.22061302892E+03 -0.35349497173E+03 -0.23537550110E+03  0.47857123826E+03  0.00000000000E+00 0.  1.
<mgrwt>
<rscale>  0 0.21735873E+04</rscale>
<asrwt>0</asrwt>
<pdfrwt beam="1">  1        2 0.48865955E+00 0.21735873E+04</pdfrwt>
<pdfrwt beam="2">  1       -2 0.57208570E-01 0.21735873E+04</pdfrwt>
<totfact> 0.35318552E+00</totfact>
</mgrwt>
</event>
<event>
 6    1  0.1817112E-005  0.1910655E+04  0.7818608E-02  0.8649571E-01
         -2   -1    0    0    0  501 -0.00000000000E+00  0.00000000000E+00  0.11287783904E+04  0.11287783904E+04  0.00000000000E+00 0.  1.
          2   -1    0    0  501    0  0.00000000000E+00 -0.00000000000E+00 -0.80852939834E+03  0.80852939834E+03  0.00000000000E+00 0. -1.
         23    2    1    2    0    0  0.48683070307E+02 -0.38618659685E+03 -0.72167787165E+03  0.82504805367E+03  0.91516181663E+02 0.  0.
         11    1    3    3    0    0  0.61299439618E+02 -0.14419571415E+03 -0.31002547042E+03  0.34736985705E+03  0.00000000000E+00 0.  1.
        -11    1    3    3    0    0 -0.12616369311E+02 -0.24199088270E+03 -0.41165240123E+03  0.47767819662E+03  0.00000000000E+00 0. -1.
         22    1    1    2    0    0 -0.48683070307E+02  0.38618659685E+03  0.10419268637E+04  0.11122597350E+04  0.00000000000E+00 0.  1.
<mgrwt>
<rscale>  0 0.19106549E+04</rscale>
<asrwt>0</asrwt>
<pdfrwt beam="1">  1        2 0.12438914E+00 0.19106549E+04</pdfrwt>
<pdfrwt beam="2">  1       -2 0.17365821E+00 0.19106549E+04</pdfrwt>
<totfact> 0.63782588E+00</totfact>
</mgrwt>
</event>
<event>
 6    1  0.1817112E-005  0.2035137E+04  0.7818608E-02  0.8590367E-01
         -2   -1    0    0    0  501 -0.00000000000E+00  0.00000000000E+00  0.60810849758E+03  0.60810849758E+03  0.00000000000E+00 0.  1.
          2   -1    0    0  501    0  0.00000000000E+00 -0.00000000000E+00 -0.17027317290E+04  0.17027317290E+04  0.00000000000E+00 0. -1.
         23    2    1    2    0    0  0.90201769490E+02 -0.91897325985E+03 -0.68047188824E+02  0.93007718292E+03  0.88118867114E+02 0.  0.
         13    1    3    3    0    0  0.17462790937E+02 -0.60623600654E+03 -0.46757283303E+02  0.60828717579E+03  0.00000000000E+00 0. -1.
        -13    1    3    3    0    0  0.72738978553E+02 -0.31273725331E+03 -0.21289905521E+02  0.32179000713E+03  0.00000000000E+00 0.  1.
         22    1    1    2    0    0 -0.90201769490E+02  0.91897325985E+03 -0.10265760426E+04  0.13807630437E+04  0.00000000000E+00 0. -1.
<mgrwt>
<rscale>  0 0.20351370E+04</rscale>
<asrwt>0</asrwt>
<pdfrwt beam="1">  1        2 0.26195873E+00 0.20351370E+04</pdfrwt>
<pdfrwt beam="2">  1       -2 0.93555154E-01 0.20351370E+04</pdfrwt>
<totfact> 0.87455168E+00</totfact>
</mgrwt>
</event>
<event>
 6    1  0.1817112E-005  0.5531603E+03  0.7818608E-02  0.1000765E+00
         -2   -1    0    0    0  501 -0.00000000000E+00  0.00000000000E+00  0.17468819885E+03  0.17468819885E+03  0.00000000000E+00 0.  1.
          2   -1    0    0  501    0  0.00000000000E+00 -0.00000000000E+00 -0.43790345429E+03  0.43790345429E+03  0.00000000000E+00 0. -1.
         23    2    1    2    0    0 -0.68047119657E+02 -0.14466698070E+03  0.10591168435E+03  0.21033098705E+03  0.86388039880E+02 0.  0.
         13    1    3    3    0    0 -0.95796115547E+01 -0.24096959972E+02 -0.14904008918E+02  0.29909227995E+02  0.00000000000E+00 0.  1.
        -13    1    3    3    0    0 -0.58467508103E+02 -0.12057002073E+03  0.12081569326E+03  0.18042175906E+03  0.00000000000E+00 0. -1.
         22    1    1    2    0    0  0.68047119657E+02  0.14466698070E+03 -0.36912693979E+03  0.40226066609E+03  0.00000000000E+00 0. -1.
<mgrwt>
<rscale>  0 0.55316025E+03</rscale>
<asrwt>0</asrwt>
<pdfrwt beam="1">  1        2 0.67369761E-01 0.55316025E+03</pdfrwt>
<pdfrwt beam="2">  1       -2 0.26875108E-01 0.55316025E+03</pdfrwt>
<totfact> 0.90458681E+02</totfact>
</mgrwt>
</event>
<event>
 6    1  0.1817112E-005  0.7449368E+03  0.7818608E-02  0.9643327E-01
         -2   -1    0    0    0  501 -0.00000000000E+00  0.00000000000E+00  0.24783842320E+03  0.24783842320E+03  0.00000000000E+00 0.  1.
          2   -1    0    0  501    0  0.00000000000E+00 -0.00000000000E+00 -0.55977072918E+03  0.55977072918E+03  0.00000000000E+00 0. -1.
         23    2    1    2    0    0  0.17849973702E+02  0.22943421449E+03 -0.46783694207E+03  0.52964344246E+03  0.93231386527E+02 0.  0.
         11    1    3    3    0    0 -0.13651379962E+02  0.21147951748E+03 -0.39358022001E+03  0.44700708727E+03  0.00000000000E+00 0. -1.
        -11    1    3    3    0    0  0.31501353664E+02  0.17954697012E+02 -0.74256722061E+02  0.82636355187E+02  0.00000000000E+00 0.  1.
         22    1    1    2    0    0 -0.17849973702E+02 -0.22943421449E+03  0.15590463609E+03  0.27796570993E+03  0.00000000000E+00 0.  1.
<mgrwt>
<rscale>  0 0.74493676E+03</rscale>
<asrwt>0</asrwt>
<pdfrwt beam="1">  1        2 0.86118572E-01 0.74493676E+03</pdfrwt>
<pdfrwt beam="2">  1       -2 0.38128989E-01 0.74493676E+03</pdfrwt>
<totfact> 0.35254228E+02</totfact>
</mgrwt>
</event>
<event>
 6    1  0.1817112E-005  0.2120900E+04  0.7818608E-02  0.8552092E-01
          1   -1    0    0  501    0  0.00000000000E+00  0.00000000000E+00  0.20759939468E+04  0.20759939468E+04  0.00000000000E+00 0. -1.
         -1   -1    0    0    0  501 -0.00000000000E+00 -0.00000000000E+00 -0.54169418589E+03  0.54169418589E+03  0.00000000000E+00 0.  1.
         23    2    1    2    0    0  0.25716155383E+03 -0.88720900799E+03  0.14067885847E+04  0.16852016778E+04  0.87055638224E+02 0.  0.
         13    1    3    3    0    0  0.16646991873E+03 -0.58327092363E+03  0.84683499929E+03  0.10416557590E+04  0.00000000000E+00 0.  1.
        -13    1    3    3    0    0  0.90691635099E+02 -0.30393808437E+03  0.55995358537E+03  0.64354591878E+03  0.00000000000E+00 0. -1.
         22    1    1    2    0    0 -0.25716155383E+03  0.88720900799E+03  0.12751117629E+03  0.93248645497E+03  0.00000000000E+00 0.  1.
<mgrwt>
<rscale>  0 0.21208997E+04</rscale>
<asrwt>0</asrwt>
<pdfrwt beam="1">  1        1 0.31938368E+00 0.21208997E+04</pdfrwt>
<pdfrwt beam="2">  1       -1 0.83337568E-01 0.21208997E+04</pdfrwt>
<totfact> 0.34705670E+00</totfact>
</mgrwt>
</event>
<event>
 6    1  0.1817112E-005  0.2280787E+04  0.7818608E-02  0.8485535E-01
          2   -1    0    0  501    0  0.00000000000E+00  0.00000000000E+00  0.22295391168E+04  0.22295391168E+04  0.00000000000E+00 0. -1.
         -2   -1    0    0    0  501 -0.00000000000E+00 -0.00000000000E+00 -0.58330322432E+03  0.58330322432E+03  0.00000000000E+00 0.  1.
         23    2    1    2    0    0 -0.25222014205E+03  0.38613768007E+03 -0.45902069810E+03  0.65765728638E+03  0.95371887954E+02 0.  0.
         13    1    3    3    0    0 -0.14705487490E+02  0.57363584860E+02 -0.27009501234E+02  0.65087213700E+02  0.00000000000E+00 0.  1.
        -13    1    3    3    0    0 -0.23751465456E+03  0.32877409521E+03 -0.43201119687E+03  0.59257007268E+03  0.00000000000E+00 0. -1.
         22    1    1    2    0    0  0.25222014205E+03 -0.38613768007E+03  0.21052565905E+04  0.21551850547E+04  0.00000000000E+00 0. -1.
<mgrwt>
<rscale>  0 0.22807870E+04</rscale>
<asrwt>0</asrwt>
<pdfrwt beam="1">  1        2 0.34300601E+00 0.22807870E+04</pdfrwt>
<pdfrwt beam="2">  1       -2 0.89738959E-01 0.22807870E+04</pdfrwt>
<totfact> 0.48004009E+00</totfact>
</mgrwt>
</event>
<event>
 6    1  0.1817112E-005  0.2546608E+04  0.7818608E-02  0.8386567E-01
          2   -1    0    0  501    0  0.00000000000E+00  0.00000000000E+00  0.33228121447E+04  0.33228121447E+04  0.00000000000E+00 0. -1.
         -2   -1    0    0    0  501 -0.00000000000E+00 -0.00000000000E+00 -0.48793090267E+03  0.48793090267E+03  0.00000000000E+00 0.  1.
         23    2    1    2    0    0 -0.11916102784E+04 -0.10431290556E+03  0.20651778788E+04  0.23883297793E+04  0.91341257746E+02 0.  0.
         13    1    3    3    0    0 -0.72397221865E+03 -0.43941535503E+02  0.11704490475E+04  0.13769595509E+04  0.00000000000E+00 0. -1.
        -13    1    3    3    0    0 -0.46763805979E+03 -0.60371370060E+02  0.89472883130E+03  0.10113702284E+04  0.00000000000E+00 0.  1.
         22    1    1    2    0    0  0.11916102784E+04  0.10431290556E+03  0.76970336322E+03  0.14224132681E+04  0.00000000000E+00 0.  1.
<mgrwt>
<rscale>  0 0.25466077E+04</rscale>
<asrwt>0</asrwt>
<pdfrwt beam="1">  1        2 0.51120185E+00 0.25466077E+04</pdfrwt>
<pdfrwt beam="2">  1       -2 0.75066295E-01 0.25466077E+04</pdfrwt>
<totfact> 0.15235182E+00</totfact>
</mgrwt>
</event>
<event>
 6    1  0.1817112E-005  0.4094303E+04  0.7818608E-02  0.7985788E-01
          1   -1    0    0  501    0  0.00000000000E+00  0.00000000000E+00  0.20293072421E+04  0.20293072421E+04  0.00000000000E+00 0. -1.
         -1   -1    0    0    0  501 -0.00000000000E+00 -0.00000000000E+00 -0.20651530500E+04  0.20651530500E+04  0.00000000000E+00 0.  1.
         23    2    1    2    0    0 -0.11482654945E+04  0.16929404698E+04  0.28998491326E+02  0.20478128228E+04  0.90196254650E+02 0.  0.
         13    1    3    3    0    0 -0.90788262448E+03  0.13390857415E+04 -0.13783710969E+02  0.16178972382E+04  0.00000000000E+00 0.  1.
        -13    1    3    3    0    0 -0.24038287001E+03  0.35385472836E+03  0.42782202294E+02  0.42991558452E+03  0.00000000000E+00 0. -1.
         22    1    1    2    0    0  0.11482654945E+04 -0.16929404698E+04 -0.64844299209E+02  0.20466474693E+04  0.00000000000E+00 0.  1.
<mgrwt>
<rscale>  0 0.40943034E+04</rscale>
<asrwt>0</asrwt>
<pdfrwt beam="1">  1        1 0.31220111E+00 0.40943034E+04</pdfrwt>
<pdfrwt beam="2">  1       -1 0.31771585E+00 0.40943034E+04</pdfrwt>
<totfact> 0.55993104E-02</totfact>
</mgrwt>
</event>
<event>
 6    1  0.1817112E-005  0.2092659E+04  0.7818608E-02  0.8564484E-01
         -2   -1    0    0    0  501 -0.00000000000E+00  0.00000000000E+00  0.91399222266E+03  0.91399222266E+03  0.00000000000E+00 0.  1.
          2   -1    0    0  501    0  0.00000000000E+00 -0.00000000000E+00 -0.11978280117E+04  0.11978280117E+04  0.00000000000E+00 0. -1.
         23    2    1    2    0    0 -0.86952114546E+03  0.25472727430E+03 -0.66573454378E+03  0.11285605202E+04  0.97433866668E+02 0.  0.
         11    1    3    3    0    0 -0.67582715427E+03  0.16729950403E+03 -0.54481485678E+03  0.88405582101E+03  0.00000000000E+00 0.  1.
        -11    1    3    3    0    0 -0.19369399120E+03  0.87427770269E+02 -0.12091968701E+03  0.24450469923E+03  0.00000000000E+00 0. -1.
         22    1    1    2    0    0  0.86952114546E+03 -0.25472727430E+03  0.38189875469E+03  0.98325971417E+03  0.00000000000E+00 0.  1.
<mgrwt>
<rscale>  0 0.20926591E+04</rscale>
<asrwt>0</asrwt>
<pdfrwt beam="1">  1        2 0.18428123E+00 0.20926591E+04</pdfrwt>
<pdfrwt beam="2">  1       -2 0.14061419E+00 0.20926591E+04</pdfrwt>
<totfact> 0.62210712E+00</totfact>
</mgrwt>
</event>
<event>
 6    1  0.1817112E-005  0.2862110E+04  0.7818608E-02  0.8284241E-01
          1   -1    0    0  501    0  0.00000000000E+00  0.00000000000E+00  0.27792645714E+04  0.27792645714E+04  0.00000000000E+00 0. -1.
         -1   -1    0    0    0  501 -0.00000000000E+00 -0.00000000000E+00 -0.73685611920E+03  0.73685611920E+03  0.00000000000E+00 0.  1.
         23    2    1    2    0    0 -0.13629941642E+03 -0.11627951577E+04  0.20301316295E+04  0.23453001108E+04  0.91258244170E+02 0.  0.
         13    1    3    3    0    0 -0.12727671672E+03 -0.75145501681E+03  0.13569789734E+04  0.15563662613E+04  0.00000000000E+00 0. -1.
        -13    1    3    3    0    0 -0.90226996985E+01 -0.41134014085E+03  0.67315265609E+03  0.78893384956E+03  0.00000000000E+00 0.  1.
         22    1    1    2    0    0  0.13629941642E+03  0.11627951577E+04  0.12276822694E+02  0.11708205798E+04  0.00000000000E+00 0.  1.
<mgrwt>
<rscale>  0 0.28621098E+04</rscale>
<asrwt>0</asrwt>
<pdfrwt beam="1">  1        1 0.42757916E+00 0.28621098E+04</pdfrwt>
<pdfrwt beam="2">  1       -1 0.11336248E+00 0.28621098E+04</pdfrwt>
<totfact> 0.52717889E-01</totfact>
</mgrwt>
</event>
<event>
 6    1  0.1817112E-005  0.4959642E+04  0.7818608E-02  0.7834763E-01
          2   -1    0    0  501    0  0.00000000000E+00  0.00000000000E+00  0.30294856967E+04  0.30294856967E+04  0.00000000000E+00 0.  1.
         -2   -1    0    0    0  501 -0.00000000000E+00 -0.00000000000E+00 -0.20298866313E+04  0.20298866313E+04  0.00000000000E+00 0. -1.
         23    2    1    2    0    0 -0.27654613954E+03 -0.19921345459E+04 -0.97835909904E+03  0.22384865953E+04  0.92508887837E+02 0.  0.
         13    1    3    3    0    0 -0.19588648403E+03 -0.12745051100E+04 -0.67160594847E+03  0.14538876642E+04  0.00000000000E+00 0.  1.
        -13    1    3    3    0    0 -0.80659655511E+02 -0.71762943598E+03 -0.30675315057E+03  0.78459893117E+03  0.00000000000E+00 0. -1.
         22    1    1    2    0    0  0.27654613954E+03  0.19921345459E+04  0.19779581644E+04  0.28208857326E+04  0.00000000000E+00 0.  1.
<mgrwt>
<rscale>  0 0.49596421E+04</rscale>
<asrwt>0</asrwt>
<pdfrwt beam="1">  1        2 0.46607472E+00 0.49596421E+04</pdfrwt>
<pdfrwt beam="2">  1       -2 0.31229025E+00 0.49596421E+04</pdfrwt>
<totfact> 0.32533078E-02</totfact>
</mgrwt>
</event>
<event>
 6    1  0.1817112E-005  0.3887508E+04  0.7818608E-02  0.8027632E-01
         -2   -1    0    0    0  501 -0.00000000000E+00  0.00000000000E+00  0.17461812288E+04  0.17461812288E+04  0.00000000000E+00 0.  1.
          2   -1    0    0  501    0  0.00000000000E+00 -0.00000000000E+00 -0.21636808431E+04  0.21636808431E+04  0.00000000000E+00 0. -1.
         23    2    1    2    0    0  0.99091303450E+03  0.10268419922E+04  0.11169362655E+04  0.18144369150E+04  0.91222686600E+02 0.  0.
         11    1    3    3    0    0  0.94165402894E+03  0.94428094804E+03  0.10339112640E+04  0.16874096482E+04  0.00000000000E+00 0.  1.
        -11    1    3    3    0    0  0.49259005558E+02  0.82561044142E+02  0.83025001538E+02  0.12702726683E+03  0.00000000000E+00 0. -1.
         22    1    1    2    0    0 -0.99091303450E+03 -0.10268419922E+04 -0.15344358798E+04  0.20954251569E+04  0.00000000000E+00 0.  1.
<mgrwt>
<rscale>  0 0.38875076E+04</rscale>
<asrwt>0</asrwt>
<pdfrwt beam="1">  1        2 0.33287398E+00 0.38875076E+04</pdfrwt>
<pdfrwt beam="2">  1       -2 0.26864327E+00 0.38875076E+04</pdfrwt>
<totfact> 0.21287227E-01</totfact>
</mgrwt>
</event>
<event>
 6    1  0.1817112E-005  0.6944035E+03  0.7818608E-02  0.9726851E-01
          2   -1    0    0  501    0  0.00000000000E+00  0.00000000000E+00  0.24955608837E+04  0.24955608837E+04  0.00000000000E+00 0. -1.
         -2   -1    0    0    0  501 -0.00000000000E+00 -0.00000000000E+00 -0.48305401685E+02  0.48305401685E+02  0.00000000000E+00 0.  1.
         23    2    1    2    0    0 -0.31679121050E+03  0.24155126621E+02  0.17016300238E+04  0.17333741724E+04  0.90006347779E+02 0.  0.
         11    1    3    3    0    0 -0.61354468968E+02 -0.31077863080E+02  0.37191729450E+03  0.37822305375E+03  0.00000000000E+00 0. -1.
        -11    1    3    3    0    0 -0.25543674153E+03  0.55232989700E+02  0.13297127293E+04  0.13551511187E+04  0.00000000000E+00 0.  1.
         22    1    1    2    0    0  0.31679121050E+03 -0.24155126621E+02  0.74562545823E+03  0.81049211294E+03  0.00000000000E+00 0.  1.
<mgrwt>
<rscale>  0 0.69440355E+03</rscale>
<asrwt>0</asrwt>
<pdfrwt beam="1">  1        2 0.38393234E+00 0.69440355E+03</pdfrwt>
<pdfrwt beam="2">  1       -2 0.74316022E-02 0.69440355E+03</pdfrwt>
<totfact> 0.40423887E+02</totfact>
</mgrwt>
</event>
<event>
 6    1  0.2052067E-005  0.2103765E+04  0.7818608E-02  0.8559587E-01
          2   -1    0    0  501    0  0.00000000000E+00  0.00000000000E+00  0.20677437592E+04  0.20677437592E+04  0.00000000000E+00 0. -1.
         -2   -1    0    0    0  501 -0.00000000000E+00 -0.00000000000E+00 -0.53510325120E+03  0.53510325120E+03  0.00000000000E+00 0.  1.
         23    2    1    2    0    0  0.12987731676E+01 -0.40736397866E+03 -0.42926462027E+03  0.59909582070E+03  0.93276954483E+02 0.  0.
         13    1    3    3    0    0 -0.20123703854E+02 -0.20967123697E+03 -0.16074565929E+03  0.26496444677E+03  0.00000000000E+00 0. -1.
        -13    1    3    3    0    0  0.21422477022E+02 -0.19769274169E+03 -0.26851896097E+03  0.33413137392E+03  0.00000000000E+00 0.  1.
         22    1    1    2    0    0 -0.12987731676E+01  0.40736397866E+03  0.19619051283E+04  0.20037511897E+04  0.00000000000E+00 0. -1.
<mgrwt>
<rscale>  0 0.21037646E+04</rscale>
<asrwt>0</asrwt>
<pdfrwt beam="1">  1        2 0.31811442E+00 0.21037646E+04</pdfrwt>
<pdfrwt beam="2">  1       -2 0.82323578E-01 0.21037646E+04</pdfrwt>
<totfact> 0.73107295E+00</totfact>
</mgrwt>
</event>
<event>
 6    1  0.1817112E-005  0.3245279E+04  0.7818608E-02  0.8176961E-01
         -1   -1    0    0    0  501 -0.00000000000E+00  0.00000000000E+00  0.13251999728E+04  0.13251999728E+04  0.00000000000E+00 0.  1.
          1   -1    0    0  501    0  0.00000000000E+00 -0.00000000000E+00 -0.19868385828E+04  0.19868385828E+04  0.00000000000E+00 0. -1.
         23    2    1    2    0    0 -0.62410475613E+03  0.43024704406E+03  0.11314698282E+04  0.13652830146E+04  0.95679005931E+02 0.  0.
         13    1    3    3    0    0 -0.34622211464E+03  0.18103071112E+03  0.58915529508E+03  0.70692703496E+03  0.00000000000E+00 0.  1.
        -13    1    3    3    0    0 -0.27788264149E+03  0.24921633294E+03  0.54231453313E+03  0.65835597961E+03  0.00000000000E+00 0. -1.
         22    1    1    2    0    0  0.62410475613E+03 -0.43024704406E+03 -0.17931084382E+04  0.19467555410E+04  0.00000000000E+00 0. -1.
<mgrwt>
<rscale>  0 0.32452787E+04</rscale>
<asrwt>0</asrwt>
<pdfrwt beam="1">  1        1 0.30566747E+00 0.32452787E+04</pdfrwt>
<pdfrwt beam="2">  1       -1 0.20387692E+00 0.32452787E+04</pdfrwt>
<totfact> 0.35885440E-01</totfact>
</mgrwt>
</event>
<event>
 6    1  0.1817112E-005  0.1375670E+04  0.7818608E-02  0.8971620E-01
          2   -1    0    0  501    0  0.00000000000E+00  0.00000000000E+00  0.36791138962E+03  0.36791138962E+03  0.00000000000E+00 0. -1.
         -2   -1    0    0    0  501 -0.00000000000E+00 -0.00000000000E+00 -0.12859541338E+04  0.12859541338E+04  0.00000000000E+00 0.  1.
         23    2    1    2    0    0 -0.41229997335E+03 -0.25966442357E+02 -0.11174260473E+04  0.11951507692E+04  0.95283082492E+02 0.  0.
         11    1    3    3    0    0 -0.30409740870E+03 -0.50419935241E+02 -0.73659289582E+03  0.79849013646E+03  0.00000000000E+00 0. -1.
        -11    1    3    3    0    0 -0.10820256465E+03  0.24453492884E+02 -0.38083315146E+03  0.39666063273E+03  0.00000000000E+00 0.  1.
         22    1    1    2    0    0  0.41229997335E+03  0.25966442357E+02  0.19938330313E+03  0.45871475420E+03  0.00000000000E+00 0. -1.
<mgrwt>
<rscale>  0 0.13756703E+04</rscale>
<asrwt>0</asrwt>
<pdfrwt beam="1">  1        2 0.56601753E-01 0.13756703E+04</pdfrwt>
<pdfrwt beam="2">  1       -2 0.19783910E+00 0.13756703E+04</pdfrwt>
<totfact> 0.11696347E+01</totfact>
</mgrwt>
</event>
<event>
 6    1  0.1817112E-005  0.1680665E+04  0.7818608E-02  0.8772469E-01
         -1   -1    0    0    0  501 -0.00000000000E+00  0.00000000000E+00  0.50816126688E+03  0.50816126688E+03  0.00000000000E+00 0.  1.
          1   -1    0    0  501    0  0.00000000000E+00 -0.00000000000E+00 -0.13896355395E+04  0.13896355395E+04  0.00000000000E+00 0. -1.
         23    2    1    2    0    0  0.69976579109E+03 -0.30855855865E+03 -0.82833355075E+03  0.11311779422E+04  0.92447386095E+02 0.  0.
         13    1    3    3    0    0  0.66546540095E+03 -0.27053858338E+03 -0.78521503763E+03  0.10642358668E+04  0.00000000000E+00 0. -1.
        -13    1    3    3    0    0  0.34300390141E+02 -0.38019975271E+02 -0.43118513120E+02  0.66942075387E+02  0.00000000000E+00 0.  1.
         22    1    1    2    0    0 -0.69976579109E+03  0.30855855865E+03 -0.53140721822E+02  0.76661886411E+03  0.00000000000E+00 0.  1.
<mgrwt>
<rscale>  0 0.16806653E+04</rscale>
<asrwt>0</asrwt>
<pdfrwt beam="1">  1        1 0.21379008E+00 0.16806653E+04</pdfrwt>
<pdfrwt beam="2">  1       -1 0.78178657E-01 0.16806653E+04</pdfrwt>
<totfact> 0.12199377E+01</totfact>
</mgrwt>
</event>
<event>
 6    1  0.1817112E-005  0.3081043E+04  0.7818608E-02  0.8220960E-01
          2   -1    0    0  501    0  0.00000000000E+00  0.00000000000E+00  0.16925110213E+04  0.16925110213E+04  0.00000000000E+00 0. -1.
         -2   -1    0    0    0  501 -0.00000000000E+00 -0.00000000000E+00 -0.14021808937E+04  0.14021808937E+04  0.00000000000E+00 0.  1.
         23    2    1    2    0    0 -0.13924017724E+04 -0.65429649214E+03  0.10001452796E+03  0.15444962425E+04  0.92623656760E+02 0.  0.
         11    1    3    3    0    0 -0.83346219270E+03 -0.36934095299E+03  0.10009664150E+03  0.91711030082E+03  0.00000000000E+00 0. -1.
        -11    1    3    3    0    0 -0.55893957971E+03 -0.28495553915E+03 -0.82113540911E-01  0.62738594166E+03  0.00000000000E+00 0.  1.
         22    1    1    2    0    0  0.13924017724E+04  0.65429649214E+03  0.19031559967E+03  0.15501956725E+04  0.00000000000E+00 0. -1.
<mgrwt>
<rscale>  0 0.30810431E+04</rscale>
<asrwt>0</asrwt>
<pdfrwt beam="1">  1        2 0.26038631E+00 0.30810431E+04</pdfrwt>
<pdfrwt beam="2">  1       -2 0.21572014E+00 0.30810431E+04</pdfrwt>
<totfact> 0.88608373E-01</totfact>
</mgrwt>
</event>
<event>
 6    1  0.1817112E-005  0.2422530E+04  0.7818608E-02  0.8431117E-01
         -2   -1    0    0    0  501 -0.00000000000E+00  0.00000000000E+00  0.73857469850E+03  0.73857469850E+03  0.00000000000E+00 0.  1.
          2   -1    0    0  501    0  0.00000000000E+00 -0.00000000000E+00 -0.19864781341E+04  0.19864781341E+04  0.00000000000E+00 0. -1.
         23    2    1    2    0    0 -0.52365012495E+03  0.86950656247E+03 -0.13647363734E+04  0.17033380725E+04  0.92758314695E+02 0.  0.
         13    1    3    3    0    0 -0.17336167106E+03  0.20955751682E+03 -0.35273487065E+03  0.44541049698E+03  0.00000000000E+00 0. -1.
        -13    1    3    3    0    0 -0.35028845389E+03  0.65994904566E+03 -0.10120015027E+04  0.12579275755E+04  0.00000000000E+00 0.  1.
         22    1    1    2    0    0  0.52365012495E+03 -0.86950656247E+03  0.11683293781E+03  0.10217147600E+04  0.00000000000E+00 0.  1.
<mgrwt>
<rscale>  0 0.24225297E+04</rscale>
<asrwt>0</asrwt>
<pdfrwt beam="1">  1        2 0.30561202E+00 0.24225297E+04</pdfrwt>
<pdfrwt beam="2">  1       -2 0.11362688E+00 0.24225297E+04</pdfrwt>
<totfact> 0.37048511E+00</totfact>
</mgrwt>
</event>
<event>
 6    1  0.1817112E-005  0.1428413E+04  0.7818608E-02  0.8933505E-01
          2   -1    0    0  501    0  0.00000000000E+00  0.00000000000E+00  0.80717585709E+03  0.80717585709E+03  0.00000000000E+00 0. -1.
         -2   -1    0    0    0  501 -0.00000000000E+00 -0.00000000000E+00 -0.63194529494E+03  0.63194529494E+03  0.00000000000E+00 0.  1.
         23    2    1    2    0    0 -0.50758527897E+03 -0.43827100336E+03  0.32823399596E+03  0.75127353913E+03  0.83367179846E+02 0.  0.
         13    1    3    3    0    0 -0.17021548001E+03 -0.20039573306E+03  0.13211834799E+03  0.29425672013E+03  0.00000000000E+00 0. -1.
        -13    1    3    3    0    0 -0.33736979896E+03 -0.23787527030E+03  0.19611564797E+03  0.45701681900E+03  0.00000000000E+00 0.  1.
         22    1    1    2    0    0  0.50758527897E+03  0.43827100336E+03 -0.15300343381E+03  0.68784761290E+03  0.00000000000E+00 0.  1.
<mgrwt>
<rscale>  0 0.14284131E+04</rscale>
<asrwt>0</asrwt>
<pdfrwt beam="1">  1        2 0.12418090E+00 0.14284131E+04</pdfrwt>
<pdfrwt beam="2">  1       -2 0.97222353E-01 0.14284131E+04</pdfrwt>
<totfact> 0.29193886E+01</totfact>
</mgrwt>
</event>
<event>
 6    1  0.1817112E-005  0.1467191E+04  0.7818608E-02  0.8906569E-01
         -2   -1    0    0    0  501 -0.00000000000E+00  0.00000000000E+00  0.34943046977E+03  0.34943046977E+03  0.00000000000E+00 0.  1.
          2   -1    0    0  501    0  0.00000000000E+00 -0.00000000000E+00 -0.15401120079E+04  0.15401120079E+04  0.00000000000E+00 0. -1.
         23    2    1    2    0    0 -0.16389144018E+03  0.36425302763E+03  0.19063192283E+03  0.45163860406E+03  0.89979032963E+02 0.  0.
         13    1    3    3    0    0 -0.13067659895E+03  0.18156138125E+03  0.10064548369E+03  0.24529660019E+03  0.00000000000E+00 0.  1.
        -13    1    3    3    0    0 -0.33214841235E+02  0.18269164638E+03  0.89986439141E+02  0.20634200388E+03  0.00000000000E+00 0. -1.
         22    1    1    2    0    0  0.16389144018E+03 -0.36425302763E+03 -0.13813134609E+04  0.14379038736E+04  0.00000000000E+00 0. -1.
<mgrwt>
<rscale>  0 0.14671906E+04</rscale>
<asrwt>0</asrwt>
<pdfrwt beam="1">  1        2 0.23694031E+00 0.14671906E+04</pdfrwt>
<pdfrwt beam="2">  1       -2 0.53758534E-01 0.14671906E+04</pdfrwt>
<totfact> 0.38038579E+01</totfact>
</mgrwt>
</event>
<event>
 6    1  0.1817112E-005  0.1813648E+04  0.7818608E-02  0.8699075E-01
         -2   -1    0    0    0  501 -0.00000000000E+00  0.00000000000E+00  0.62979735654E+03  0.62979735654E+03  0.00000000000E+00 0.  1.
          2   -1    0    0  501    0  0.00000000000E+00 -0.00000000000E+00 -0.13057057833E+04  0.13057057833E+04  0.00000000000E+00 0. -1.
         23    2    1    2    0    0 -0.65748276225E+03  0.41994749331E+03  0.14956512505E+03  0.79970119208E+03  0.92264783005E+02 0.  0.
         13    1    3    3    0    0 -0.27594241282E+03  0.17321126795E+03  0.16373774049E+02  0.32621229133E+03  0.00000000000E+00 0. -1.
        -13    1    3    3    0    0 -0.38154034942E+03  0.24673622537E+03  0.13319135100E+03  0.47348890074E+03  0.00000000000E+00 0.  1.
         22    1    1    2    0    0  0.65748276225E+03 -0.41994749331E+03 -0.82547355182E+03  0.11358019478E+04  0.00000000000E+00 0. -1.
<mgrwt>
<rscale>  0 0.18136483E+04</rscale>
<asrwt>0</asrwt>
<pdfrwt beam="1">  1        2 0.20087781E+00 0.18136483E+04</pdfrwt>
<pdfrwt beam="2">  1       -2 0.96891902E-01 0.18136483E+04</pdfrwt>
<totfact> 0.13769406E+01</totfact>
</mgrwt>
</event>
<event>
 6    1  0.1817112E-005  0.2493501E+04  0.7818608E-02  0.8405305E-01
          2   -1    0    0  501    0  0.00000000000E+00  0.00000000000E+00  0.15087353143E+04  0.15087353143E+04  0.00000000000E+00 0. -1.
         -2   -1    0    0    0  501 -0.00000000000E+00 -0.00000000000E+00 -0.10302578543E+04  0.10302578543E+04  0.00000000000E+00 0.  1.
         23    2    1    2    0    0  0.80532913113E+03  0.37914437321E+03  0.11259558277E+04  0.14382962521E+04  0.92812271647E+02 0.  0.
         11    1    3    3    0    0  0.13988346829E+03  0.28679501191E+02  0.18555723059E+03  0.23413966839E+03  0.00000000000E+00 0. -1.
        -11    1    3    3    0    0  0.66544566284E+03  0.35046487202E+03  0.94039859712E+03  0.12041565837E+04  0.00000000000E+00 0.  1.
         22    1    1    2    0    0 -0.80532913113E+03 -0.37914437321E+03 -0.64747836769E+03  0.11006969164E+04  0.00000000000E+00 0.  1.
<mgrwt>
<rscale>  0 0.24935007E+04</rscale>
<asrwt>0</asrwt>
<pdfrwt beam="1">  1        2 0.23211312E+00 0.24935007E+04</pdfrwt>
<pdfrwt beam="2">  1       -2 0.15850121E+00 0.24935007E+04</pdfrwt>
<totfact> 0.28946938E+00</totfact>
</mgrwt>
</event>
<event>
 6    1  0.1817112E-005  0.1628635E+04  0.7818608E-02  0.8803147E-01
         -2   -1    0    0    0  501 -0.00000000000E+00  0.00000000000E+00  0.58649373563E+03  0.58649373563E+03  0.00000000000E+00 0.  1.
          2   -1    0    0  501    0  0.00000000000E+00 -0.00000000000E+00 -0.11306397805E+04  0.11306397805E+04  0.00000000000E+00 0. -1.
         23    2    1    2    0    0  0.50322337897E+02 -0.22414952857E+03 -0.10938399492E+04  0.11213661644E+04  0.90558772180E+02 0.  0.
         11    1    3    3    0    0  0.69392900569E+02 -0.11610216300E+03 -0.53297370977E+03  0.54986913189E+03  0.00000000000E+00 0. -1.
        -11    1    3    3    0    0 -0.19070562672E+02 -0.10804736557E+03 -0.56086623946E+03  0.57149703248E+03  0.00000000000E+00 0.  1.
         22    1    1    2    0    0 -0.50322337897E+02  0.22414952857E+03  0.54969390439E+03  0.59576735172E+03  0.00000000000E+00 0.  1.
<mgrwt>
<rscale>  0 0.16286352E+04</rscale>
<asrwt>0</asrwt>
<pdfrwt beam="1">  1        2 0.17394458E+00 0.16286352E+04</pdfrwt>
<pdfrwt beam="2">  1       -2 0.90229806E-01 0.16286352E+04</pdfrwt>
<totfact> 0.20974916E+01</totfact>
</mgrwt>
</event>
<event>
 6    1  0.1817112E-005  0.9054241E+03  0.7818608E-02  0.9418826E-01
         -2   -1    0    0    0  501 -0.00000000000E+00  0.00000000000E+00  0.13694663505E+03  0.13694663505E+03  0.00000000000E+00 0.  1.
          2   -1    0    0  501    0  0.00000000000E+00 -0.00000000000E+00 -0.14965552731E+04  0.14965552731E+04  0.00000000000E+00 0. -1.
         23    2    1    2    0    0 -0.38154836743E+03  0.22792061416E+03 -0.79010966739E+03  0.91110586676E+03  0.91179223998E+02 0.  0.
         11    1    3    3    0    0 -0.10846227196E+03  0.11503040784E+03 -0.28433659121E+03  0.32533575929E+03  0.00000000000E+00 0. -1.
        -11    1    3    3    0    0 -0.27308609547E+03  0.11289020631E+03 -0.50577307618E+03  0.58577010747E+03  0.00000000000E+00 0.  1.
         22    1    1    2    0    0  0.38154836743E+03 -0.22792061416E+03 -0.56949897068E+03  0.72239604142E+03  0.00000000000E+00 0.  1.
<mgrwt>
<rscale>  0 0.90542412E+03</rscale>
<asrwt>0</asrwt>
<pdfrwt beam="1">  1        2 0.23023927E+00 0.90542412E+03</pdfrwt>
<pdfrwt beam="2">  1       -2 0.21068713E-01 0.90542412E+03</pdfrwt>
<totfact> 0.24919514E+02</totfact>
</mgrwt>
</event>
<event>
 6    1  0.1817112E-005  0.1059844E+04  0.7818608E-02  0.9245240E-01
          4   -1    0    0  501    0  0.00000000000E+00  0.00000000000E+00  0.10291352959E+04  0.10291352959E+04  0.00000000000E+00 0. -1.
         -4   -1    0    0    0  501 -0.00000000000E+00 -0.00000000000E+00 -0.27286710693E+03  0.27286710693E+03  0.00000000000E+00 0.  1.
         23    2    1    2    0    0 -0.42454867329E+02  0.78094943273E+02  0.10178111336E+04  0.10257670904E+04  0.91418729978E+02 0.  0.
         11    1    3    3    0    0  0.14266293888E+02  0.52765288123E+02  0.27606013479E+03  0.28141943926E+03  0.00000000000E+00 0.  1.
        -11    1    3    3    0    0 -0.56721161217E+02  0.25329655150E+02  0.74175099882E+03  0.74434765117E+03  0.00000000000E+00 0. -1.
         22    1    1    2    0    0  0.42454867329E+02 -0.78094943273E+02 -0.26154294464E+03  0.27623531240E+03  0.00000000000E+00 0.  1.
<mgrwt>
<rscale>  0 0.10598437E+04</rscale>
<asrwt>0</asrwt>
<pdfrwt beam="1">  1        4 0.15832850E+00 0.10598437E+04</pdfrwt>
<pdfrwt beam="2">  1       -4 0.41979556E-01 0.10598437E+04</pdfrwt>
<totfact> 0.28224115E+00</totfact>
</mgrwt>
</event>
<event>
 6    1  0.1817112E-005  0.5243133E+04  0.7818608E-02  0.7792058E-01
         -2   -1    0    0    0  501 -0.00000000000E+00  0.00000000000E+00  0.21080428631E+04  0.21080428631E+04  0.00000000000E+00 0.  1.
          2   -1    0    0  501    0  0.00000000000E+00 -0.00000000000E+00 -0.32601855434E+04  0.32601855434E+04  0.00000000000E+00 0. -1.
         23    2    1    2    0    0 -0.20608948563E+04  0.14893498383E+04 -0.12261298154E+04  0.28244271867E+04  0.92434080536E+02 0.  0.
         13    1    3    3    0    0 -0.76844463066E+03  0.54449464284E+03 -0.40575210653E+03  0.10254834657E+04  0.00000000000E+00 0. -1.
        -13    1    3    3    0    0 -0.12924502256E+04  0.94485519543E+03 -0.82037770890E+03  0.17989437210E+04  0.00000000000E+00 0.  1.
         22    1    1    2    0    0  0.20608948563E+04 -0.14893498383E+04  0.73987135146E+02  0.25438012198E+04  0.00000000000E+00 0.  1.
<mgrwt>
<rscale>  0 0.52431330E+04</rscale>
<asrwt>0</asrwt>
<pdfrwt beam="1">  1        2 0.50156701E+00 0.52431330E+04</pdfrwt>
<pdfrwt beam="2">  1       -2 0.32431429E+00 0.52431330E+04</pdfrwt>
<totfact> 0.19014744E-02</totfact>
</mgrwt>
</event>
<event>
 6    1  0.1817112E-005  0.1090000E+04  0.7818608E-02  0.9214994E-01
         -2   -1    0    0    0  501 -0.00000000000E+00  0.00000000000E+00  0.15074301429E+04  0.15074301429E+04  0.00000000000E+00 0.  1.
          2   -1    0    0  501    0  0.00000000000E+00 -0.00000000000E+00 -0.19704062210E+03  0.19704062210E+03  0.00000000000E+00 0. -1.
         23    2    1    2    0    0  0.46463747126E+03 -0.17155690684E+03  0.99997653942E+03  0.11199402089E+04  0.94832695879E+02 0.  0.
         11    1    3    3    0    0  0.26471932749E+03 -0.87299036133E+02  0.45799129595E+03  0.53614687468E+03  0.00000000000E+00 0. -1.
        -11    1    3    3    0    0  0.19991814377E+03 -0.84257870704E+02  0.54198524346E+03  0.58379333425E+03  0.00000000000E+00 0.  1.
         22    1    1    2    0    0 -0.46463747126E+03  0.17155690684E+03  0.31041298143E+03  0.58453055611E+03  0.00000000000E+00 0. -1.
<mgrwt>
<rscale>  0 0.10900000E+04</rscale>
<asrwt>0</asrwt>
<pdfrwt beam="1">  1        2 0.30313943E-01 0.10900000E+04</pdfrwt>
<pdfrwt beam="2">  1       -2 0.23191232E+00 0.10900000E+04</pdfrwt>
<totfact> 0.14580253E+01</totfact>
</mgrwt>
</event>
<event>
 6    1  0.1817112E-005  0.1691723E+04  0.7818608E-02  0.8766099E-01
         -2   -1    0    0    0  501 -0.00000000000E+00  0.00000000000E+00  0.47457535969E+03  0.47457535969E+03  0.00000000000E+00 0.  1.
          2   -1    0    0  501    0  0.00000000000E+00 -0.00000000000E+00 -0.15076251888E+04  0.15076251888E+04  0.00000000000E+00 0. -1.
         23    2    1    2    0    0 -0.67762789089E+03  0.78536555137E+02  0.63120365085E+02  0.69110154235E+03  0.91047308259E+02 0.  0.
         11    1    3    3    0    0 -0.37134196142E+03  0.80540377729E+02  0.91197464434E+01  0.38008522009E+03  0.00000000000E+00 0. -1.
        -11    1    3    3    0    0 -0.30628592948E+03 -0.20038225926E+01  0.54000618642E+02  0.31101632226E+03  0.00000000000E+00 0.  1.
         22    1    1    2    0    0  0.67762789089E+03 -0.78536555137E+02 -0.10961701942E+04  0.12910990062E+04  0.00000000000E+00 0. -1.
<mgrwt>
<rscale>  0 0.16917231E+04</rscale>
<asrwt>0</asrwt>
<pdfrwt beam="1">  1        2 0.23194234E+00 0.16917231E+04</pdfrwt>
<pdfrwt beam="2">  1       -2 0.73011594E-01 0.16917231E+04</pdfrwt>
<totfact> 0.20279212E+01</totfact>
</mgrwt>
</event>
<event>
 6    1  0.1817112E-005  0.3756770E+04  0.7818608E-02  0.8055496E-01
         -2   -1    0    0    0  501 -0.00000000000E+00  0.00000000000E+00  0.10137366013E+04  0.10137366013E+04  0.00000000000E+00 0.  1.
          2   -1    0    0  501    0  0.00000000000E+00 -0.00000000000E+00 -0.34805198676E+04  0.34805198676E+04  0.00000000000E+00 0. -1.
         23    2    1    2    0    0 -0.94762582954E+03 -0.37408166336E+03  0.65217935717E+03  0.12131195242E+04  0.91592916453E+02 0.  0.
         13    1    3    3    0    0 -0.77403149487E+03 -0.26711961205E+03  0.53091938168E+03  0.97588576792E+03  0.00000000000E+00 0. -1.
        -13    1    3    3    0    0 -0.17359433467E+03 -0.10696205131E+03  0.12125997549E+03  0.23723375625E+03  0.00000000000E+00 0.  1.
         22    1    1    2    0    0  0.94762582954E+03  0.37408166336E+03 -0.31189626234E+04  0.32811369447E+04  0.00000000000E+00 0. -1.
<mgrwt>
<rscale>  0 0.37567701E+04</rscale>
<asrwt>0</asrwt>
<pdfrwt beam="1">  1        2 0.53546460E+00 0.37567701E+04</pdfrwt>
<pdfrwt beam="2">  1       -2 0.15595947E+00 0.37567701E+04</pdfrwt>
<totfact> 0.18193538E-01</totfact>
</mgrwt>
</event>
<event>
 6    1  0.1817112E-005  0.4858617E+04  0.7818608E-02  0.7850695E-01
          2   -1    0    0  501    0  0.00000000000E+00  0.00000000000E+00  0.29727508965E+04  0.29727508965E+04  0.00000000000E+00 0. -1.
         -2   -1    0    0    0  501 -0.00000000000E+00 -0.00000000000E+00 -0.19852119587E+04  0.19852119587E+04  0.00000000000E+00 0.  1.
         23    2    1    2    0    0 -0.13026329574E+04  0.20351911017E+04  0.24587645689E+03  0.24303318145E+04  0.84864919221E+02 0.  0.
         13    1    3    3    0    0 -0.75282988105E+03  0.12001701918E+04  0.18408108435E+03  0.14286522197E+04  0.00000000000E+00 0. -1.
        -13    1    3    3    0    0 -0.54980307636E+03  0.83502090988E+03  0.61795372539E+02  0.10016795949E+04  0.00000000000E+00 0.  1.
         22    1    1    2    0    0  0.13026329574E+04 -0.20351911017E+04  0.74166248083E+03  0.25276310406E+04  0.00000000000E+00 0. -1.
<mgrwt>
<rscale>  0 0.48586173E+04</rscale>
<asrwt>0</asrwt>
<pdfrwt beam="1">  1        2 0.45734629E+00 0.48586173E+04</pdfrwt>
<pdfrwt beam="2">  1       -2 0.30541723E+00 0.48586173E+04</pdfrwt>
<totfact> 0.39237083E-02</totfact>
</mgrwt>
</event>
<event>
 6    1  0.1817112E-005  0.4055114E+04  0.7818608E-02  0.7993520E-01
         -2   -1    0    0    0  501 -0.00000000000E+00  0.00000000000E+00  0.11084065143E+04  0.11084065143E+04  0.00000000000E+00 0.  1.
          2   -1    0    0  501    0  0.00000000000E+00 -0.00000000000E+00 -0.37089158813E+04  0.37089158813E+04  0.00000000000E+00 0. -1.
         23    2    1    2    0    0 -0.13211722674E+04 -0.29165565963E+03 -0.30932224703E+04  0.33774177509E+04  0.91467093164E+02 0.  0.
         11    1    3    3    0    0 -0.29657787236E+03 -0.56941296836E+02 -0.60141548261E+03  0.67297944128E+03  0.00000000000E+00 0. -1.
        -11    1    3    3    0    0 -0.10245943950E+04 -0.23471436280E+03 -0.24918069877E+04  0.27044383096E+04  0.00000000000E+00 0.  1.
         22    1    1    2    0    0  0.13211722674E+04  0.29165565963E+03  0.49271310334E+03  0.14399046448E+04  0.00000000000E+00 0.  1.
<mgrwt>
<rscale>  0 0.40551136E+04</rscale>
<asrwt>0</asrwt>
<pdfrwt beam="1">  1        2 0.57060244E+00 0.40551136E+04</pdfrwt>
<pdfrwt beam="2">  1       -2 0.17052408E+00 0.40551136E+04</pdfrwt>
<totfact> 0.95168739E-02</totfact>
</mgrwt>
</event>
<event>
 6    1  0.1817112E-005  0.4072496E+04  0.7818608E-02  0.7990079E-01
         -2   -1    0    0    0  501 -0.00000000000E+00  0.00000000000E+00  0.23480253430E+04  0.23480253430E+04  0.00000000000E+00 0.  1.
          2   -1    0    0  501    0  0.00000000000E+00 -0.00000000000E+00 -0.17658696831E+04  0.17658696831E+04  0.00000000000E+00 0. -1.
         23    2    1    2    0    0  0.16308418967E+04 -0.86195842164E+03  0.11598401780E+04  0.21809343397E+04  0.92885643496E+02 0.  0.
         13    1    3    3    0    0  0.13616034761E+04 -0.74577959872E+03  0.10044295194E+04  0.18490618960E+04  0.00000000000E+00 0. -1.
        -13    1    3    3    0    0  0.26923842065E+03 -0.11617882293E+03  0.15541065863E+03  0.33187244367E+03  0.00000000000E+00 0.  1.
         22    1    1    2    0    0 -0.16308418967E+04  0.86195842164E+03 -0.57768451811E+03  0.19329606864E+04  0.00000000000E+00 0. -1.
<mgrwt>
<rscale>  0 0.40724964E+04</rscale>
<asrwt>0</asrwt>
<pdfrwt beam="1">  1        2 0.27167226E+00 0.40724964E+04</pdfrwt>
<pdfrwt beam="2">  1       -2 0.36123467E+00 0.40724964E+04</pdfrwt>
<totfact> 0.93335314E-02</totfact>
</mgrwt>
</event>
<event>
 6    1  0.1817112E-005  0.4831100E+03  0.7818608E-02  0.1018284E+00
          2   -1    0    0  501    0  0.00000000000E+00  0.00000000000E+00  0.24558803611E+03  0.24558803611E+03  0.00000000000E+00 0. -1.
         -2   -1    0    0    0  501 -0.00000000000E+00 -0.00000000000E+00 -0.23758820632E+03  0.23758820632E+03  0.00000000000E+00 0.  1.
         23    2    1    2    0    0  0.87925897823E+02 -0.38772373198E+02  0.21635452809E+03  0.25372920991E+03  0.91296055260E+02 0.  0.
         13    1    3    3    0    0  0.10433211266E+03 -0.20502986726E+02  0.15829194862E+03  0.19068797339E+03  0.00000000000E+00 0.  1.
        -13    1    3    3    0    0 -0.16406214841E+02 -0.18269386473E+02  0.58062579469E+02  0.63041236521E+02  0.00000000000E+00 0. -1.
         22    1    1    2    0    0 -0.87925897823E+02  0.38772373198E+02 -0.20835469829E+03  0.22944703252E+03  0.00000000000E+00 0.  1.
<mgrwt>
<rscale>  0 0.48311001E+03</rscale>
<asrwt>0</asrwt>
<pdfrwt beam="1">  1        2 0.37782775E-01 0.48311001E+03</pdfrwt>
<pdfrwt beam="2">  1       -2 0.36552032E-01 0.48311001E+03</pdfrwt>
<totfact> 0.96893784E+02</totfact>
</mgrwt>
</event>
<event>
 6    1  0.1817112E-005  0.5229947E+04  0.7818608E-02  0.7793983E-01
         -2   -1    0    0    0  501 -0.00000000000E+00  0.00000000000E+00  0.22240692881E+04  0.22240692881E+04  0.00000000000E+00 0.  1.
          2   -1    0    0  501    0  0.00000000000E+00 -0.00000000000E+00 -0.30745833403E+04  0.30745833403E+04  0.00000000000E+00 0. -1.
         23    2    1    2    0    0 -0.10831591015E+04 -0.61747807421E+02 -0.28350403147E+04  0.30369296309E+04  0.91877996540E+02 0.  0.
         11    1    3    3    0    0 -0.43497811279E+03  0.18658125738E+02 -0.11674496506E+04  0.12459906786E+04  0.00000000000E+00 0. -1.
        -11    1    3    3    0    0 -0.64818098872E+03 -0.80405933159E+02 -0.16675906641E+04  0.17909389524E+04  0.00000000000E+00 0.  1.
         22    1    1    2    0    0  0.10831591015E+04  0.61747807421E+02  0.19845262625E+04  0.22617229975E+04  0.00000000000E+00 0.  1.
<mgrwt>
<rscale>  0 0.52299470E+04</rscale>
<asrwt>0</asrwt>
<pdfrwt beam="1">  1        2 0.47301282E+00 0.52299470E+04</pdfrwt>
<pdfrwt beam="2">  1       -2 0.34216451E+00 0.52299470E+04</pdfrwt>
<totfact> 0.19451324E-02</totfact>
</mgrwt>
</event>
<event>
 6    1  0.1817112E-005  0.7994349E+03  0.7818608E-02  0.9560835E-01
         -2   -1    0    0    0  501 -0.00000000000E+00  0.00000000000E+00  0.15005657179E+03  0.15005657179E+03  0.00000000000E+00 0.  1.
          2   -1    0    0  501    0  0.00000000000E+00 -0.00000000000E+00 -0.10647588077E+04  0.10647588077E+04  0.00000000000E+00 0. -1.
         23    2    1    2    0    0  0.28217402645E+03  0.13261033427E+03 -0.95073943843E+02  0.33788994417E+03  0.89010547785E+02 0.  0.
         13    1    3    3    0    0  0.33464821760E+02  0.47755882889E+02  0.34930342118E+00  0.58315012294E+02  0.00000000000E+00 0.  1.
        -13    1    3    3    0    0  0.24870920469E+03  0.84854451381E+02 -0.95423247264E+02  0.27957493188E+03  0.00000000000E+00 0. -1.
         22    1    1    2    0    0 -0.28217402645E+03 -0.13261033427E+03 -0.81962829206E+03  0.87692543531E+03  0.00000000000E+00 0. -1.
<mgrwt>
<rscale>  0 0.79943494E+03</rscale>
<asrwt>0</asrwt>
<pdfrwt beam="1">  1        2 0.16380904E+00 0.79943494E+03</pdfrwt>
<pdfrwt beam="2">  1       -2 0.23085627E-01 0.79943494E+03</pdfrwt>
<totfact> 0.38103280E+02</totfact>
</mgrwt>
</event>
<event>
 6    1  0.1817112E-005  0.1823070E+04  0.7818608E-02  0.8694127E-01
         -1   -1    0    0    0  501 -0.00000000000E+00  0.00000000000E+00  0.90363970744E+03  0.90363970744E+03  0.00000000000E+00 0.  1.
          1   -1    0    0  501    0  0.00000000000E+00 -0.00000000000E+00 -0.91949896609E+03  0.91949896609E+03  0.00000000000E+00 0. -1.
         23    2    1    2    0    0 -0.46436734433E+03  0.43372080502E+03  0.64256413713E+03  0.90811291690E+03  0.89608215755E+02 0.  0.
         11    1    3    3    0    0 -0.36588531681E+03  0.34228342038E+03  0.45101840718E+03  0.67412729401E+03  0.00000000000E+00 0. -1.
        -11    1    3    3    0    0 -0.98482027520E+02  0.91437384643E+02  0.19154572996E+03  0.23398562289E+03  0.00000000000E+00 0.  1.
         22    1    1    2    0    0  0.46436734433E+03 -0.43372080502E+03 -0.65842339578E+03  0.91502575663E+03  0.00000000000E+00 0. -1.
<mgrwt>
<rscale>  0 0.18230697E+04</rscale>
<asrwt>0</asrwt>
<pdfrwt beam="1">  1        1 0.14146138E+00 0.18230697E+04</pdfrwt>
<pdfrwt beam="2">  1       -1 0.13902149E+00 0.18230697E+04</pdfrwt>
<totfact> 0.70533569E+00</totfact>
</mgrwt>
</event>
<event>
 6    1  0.1817112E-005  0.2311460E+04  0.7818608E-02  0.8473416E-01
         -2   -1    0    0    0  501 -0.00000000000E+00  0.00000000000E+00  0.88043167937E+03  0.88043167937E+03  0.00000000000E+00 0.  1.
          2   -1    0    0  501    0  0.00000000000E+00 -0.00000000000E+00 -0.15171105599E+04  0.15171105599E+04  0.00000000000E+00 0. -1.
         23    2    1    2    0    0 -0.36621450740E+03 -0.10170729405E+04 -0.73764065322E+03  0.13118425979E+04  0.90922146148E+02 0.  0.
         11    1    3    3    0    0 -0.28452843291E+03 -0.76526914155E+03 -0.50955594030E+03  0.96241391534E+03  0.00000000000E+00 0. -1.
        -11    1    3    3    0    0 -0.81686074488E+02 -0.25180379898E+03 -0.22808471292E+03  0.34942868258E+03  0.00000000000E+00 0.  1.
         22    1    1    2    0    0  0.36621450740E+03  0.10170729405E+04  0.10096177265E+03  0.10856996414E+04  0.00000000000E+00 0.  1.
<mgrwt>
<rscale>  0 0.23114603E+04</rscale>
<asrwt>0</asrwt>
<pdfrwt beam="1">  1        2 0.23340162E+00 0.23114603E+04</pdfrwt>
<pdfrwt beam="2">  1       -2 0.13545103E+00 0.23114603E+04</pdfrwt>
<totfact> 0.43992419E+00</totfact>
</mgrwt>
</event>
<event>
 6    1  0.1817112E-005  0.2620807E+04  0.7818608E-02  0.8361168E-01
          2   -1    0    0  501    0  0.00000000000E+00  0.00000000000E+00  0.12806716059E+04  0.12806716059E+04  0.00000000000E+00 0. -1.
         -2   -1    0    0    0  501 -0.00000000000E+00 -0.00000000000E+00 -0.13408259759E+04  0.13408259759E+04  0.00000000000E+00 0.  1.
         23    2    1    2    0    0 -0.10081911002E+04 -0.58843989266E+03 -0.62212784013E+03  0.13259185673E+04  0.91138333480E+02 0.  0.
         11    1    3    3    0    0 -0.31057957802E+03 -0.19520675988E+03 -0.24204112342E+03  0.43948749562E+03  0.00000000000E+00 0. -1.
        -11    1    3    3    0    0 -0.69761152220E+03 -0.39323313278E+03 -0.38008671672E+03  0.88643107168E+03  0.00000000000E+00 0.  1.
         22    1    1    2    0    0  0.10081911002E+04  0.58843989266E+03  0.56197347012E+03  0.12955790146E+04  0.00000000000E+00 0. -1.
<mgrwt>
<rscale>  0 0.26208073E+04</rscale>
<asrwt>0</asrwt>
<pdfrwt beam="1">  1        2 0.19702640E+00 0.26208073E+04</pdfrwt>
<pdfrwt beam="2">  1       -2 0.20628092E+00 0.26208073E+04</pdfrwt>
<totfact> 0.18133083E+00</totfact>
</mgrwt>
</event>
<event>
 6    1  0.1817112E-005  0.1506396E+04  0.7818608E-02  0.8880210E-01
         -2   -1    0    0    0  501 -0.00000000000E+00  0.00000000000E+00  0.96654286083E+03  0.96654286083E+03  0.00000000000E+00 0.  1.
          2   -1    0    0  501    0  0.00000000000E+00 -0.00000000000E+00 -0.58694508024E+03  0.58694508024E+03  0.00000000000E+00 0. -1.
         23    2    1    2    0    0  0.69614965967E+02 -0.52627531019E+03 -0.35658441458E+03  0.64586678107E+03  0.90440635609E+02 0.  0.
         11    1    3    3    0    0  0.47426130119E+01 -0.12113332043E+03 -0.40099340723E+02  0.12768606355E+03  0.00000000000E+00 0. -1.
        -11    1    3    3    0    0  0.64872352955E+02 -0.40514198975E+03 -0.31648507386E+03  0.51818071752E+03  0.00000000000E+00 0.  1.
         22    1    1    2    0    0 -0.69614965967E+02  0.52627531019E+03  0.73618219517E+03  0.90762116000E+03  0.00000000000E+00 0.  1.
<mgrwt>
<rscale>  0 0.15063965E+04</rscale>
<asrwt>0</asrwt>
<pdfrwt beam="1">  1        2 0.90299243E-01 0.15063965E+04</pdfrwt>
<pdfrwt beam="2">  1       -2 0.14869890E+00 0.15063965E+04</pdfrwt>
<totfact> 0.15070664E+01</totfact>
</mgrwt>
</event>
<event>
 6    1  0.1817112E-005  0.6338113E+03  0.7818608E-02  0.9837639E-01
         -2   -1    0    0    0  501 -0.00000000000E+00  0.00000000000E+00  0.54518720388E+02  0.54518720388E+02  0.00000000000E+00 0.  1.
          2   -1    0    0  501    0  0.00000000000E+00 -0.00000000000E+00 -0.18421044867E+04  0.18421044867E+04  0.00000000000E+00 0. -1.
         23    2    1    2    0    0  0.14102107362E+03  0.88118921780E+02 -0.16966080383E+04  0.17070741776E+04  0.89283394744E+02 0.  0.
         11    1    3    3    0    0  0.46838954734E+02  0.38381399969E+02 -0.28028339483E+03  0.28675041580E+03  0.00000000000E+00 0. -1.
        -11    1    3    3    0    0  0.94182118889E+02  0.49737521811E+02 -0.14163246435E+04  0.14203237618E+04  0.00000000000E+00 0.  1.
         22    1    1    2    0    0 -0.14102107362E+03 -0.88118921780E+02 -0.90977727965E+02  0.18954902945E+03  0.00000000000E+00 0.  1.
<mgrwt>
<rscale>  0 0.63381126E+03</rscale>
<asrwt>0</asrwt>
<pdfrwt beam="1">  1        2 0.28340064E+00 0.63381126E+03</pdfrwt>
<pdfrwt beam="2">  1       -2 0.83874968E-02 0.63381126E+03</pdfrwt>
<totfact> 0.76571460E+02</totfact>
</mgrwt>
</event>
<event>
 6    1  0.1817112E-005  0.5418811E+04  0.7818608E-02  0.7766961E-01
          2   -1    0    0  501    0  0.00000000000E+00  0.00000000000E+00  0.41937032328E+04  0.41937032328E+04  0.00000000000E+00 0. -1.
         -2   -1    0    0    0  501 -0.00000000000E+00 -0.00000000000E+00 -0.17504523083E+04  0.17504523083E+04  0.00000000000E+00 0.  1.
         23    2    1    2    0    0 -0.23725364313E+04  0.74677026952E+03  0.45552439109E+02  0.24893685751E+04  0.91027053967E+02 0.  0.
         11    1    3    3    0    0 -0.10494782566E+04  0.29472017445E+03 -0.98126631635E+01  0.10901196634E+04  0.00000000000E+00 0. -1.
        -11    1    3    3    0    0 -0.13230581747E+04  0.45205009507E+03  0.55365102272E+02  0.13992489116E+04  0.00000000000E+00 0.  1.
         22    1    1    2    0    0  0.23725364313E+04 -0.74677026952E+03  0.23976984854E+04  0.34547869660E+04  0.00000000000E+00 0. -1.
<mgrwt>
<rscale>  0 0.54188108E+04</rscale>
<asrwt>0</asrwt>
<pdfrwt beam="1">  1        2 0.64518511E+00 0.54188108E+04</pdfrwt>
<pdfrwt beam="2">  1       -2 0.26930036E+00 0.54188108E+04</pdfrwt>
<totfact> 0.80623994E-03</totfact>
</mgrwt>
</event>
<event>
 6    1  0.1817112E-005  0.1914875E+04  0.7818608E-02  0.8647487E-01
         -2   -1    0    0    0  501 -0.00000000000E+00  0.00000000000E+00  0.40560287866E+03  0.40560287866E+03  0.00000000000E+00 0.  1.
          2   -1    0    0  501    0  0.00000000000E+00 -0.00000000000E+00 -0.22600595271E+04  0.22600595271E+04  0.00000000000E+00 0. -1.
         23    2    1    2    0    0  0.46553819625E+03 -0.41612435081E+03 -0.19341333388E+04  0.20361914672E+04  0.12376845822E+03 0.  0.
         13    1    3    3    0    0  0.21850973096E+03 -0.12128263258E+03 -0.68428714719E+03  0.72849494117E+03  0.00000000000E+00 0. -1.
        -13    1    3    3    0    0  0.24702846528E+03 -0.29484171822E+03 -0.12498461916E+04  0.13076965260E+04  0.00000000000E+00 0.  1.
         22    1    1    2    0    0 -0.46553819625E+03  0.41612435081E+03  0.79676690393E+02  0.62947093856E+03  0.00000000000E+00 0.  1.
<mgrwt>
<rscale>  0 0.19148751E+04</rscale>
<asrwt>0</asrwt>
<pdfrwt beam="1">  1        2 0.34770147E+00 0.19148751E+04</pdfrwt>
<pdfrwt beam="2">  1       -2 0.62400442E-01 0.19148751E+04</pdfrwt>
<totfact> 0.10647993E+01</totfact>
</mgrwt>
</event>
<event>
 6    1  0.1817112E-005  0.3111263E+04  0.7818608E-02  0.8212654E-01
          2   -1    0    0  501    0  0.00000000000E+00  0.00000000000E+00  0.12856439963E+04  0.12856439963E+04  0.00000000000E+00 0. -1.
         -2   -1    0    0    0  501 -0.00000000000E+00 -0.00000000000E+00 -0.18823164652E+04  0.18823164652E+04  0.00000000000E+00 0.  1.
         23    2    1    2    0    0  0.10859929876E+04  0.97411921125E+03 -0.84442606333E+03  0.16882068164E+04  0.93262380224E+02 0.  0.
         13    1    3    3    0    0  0.55297826592E+03  0.44346251897E+03 -0.38044818943E+03  0.80447796313E+03  0.00000000000E+00 0. -1.
        -13    1    3    3    0    0  0.53301472165E+03  0.53065669229E+03 -0.46397787390E+03  0.88372885323E+03  0.00000000000E+00 0.  1.
         22    1    1    2    0    0 -0.10859929876E+04 -0.97411921125E+03  0.24775359444E+03  0.14797536452E+04  0.00000000000E+00 0. -1.
<mgrwt>
<rscale>  0 0.31112627E+04</rscale>
<asrwt>0</asrwt>
<pdfrwt beam="1">  1        2 0.19779139E+00 0.31112627E+04</pdfrwt>
<pdfrwt beam="2">  1       -2 0.28958715E+00 0.31112627E+04</pdfrwt>
<totfact> 0.52610736E-01</totfact>
</mgrwt>
</event>
<event>
 6    1  0.1817112E-005  0.4991581E+04  0.7818608E-02  0.7829807E-01
          2   -1    0    0  501    0  0.00000000000E+00  0.00000000000E+00  0.40728688006E+04  0.40728688006E+04  0.00000000000E+00 0. -1.
         -2   -1    0    0    0  501 -0.00000000000E+00 -0.00000000000E+00 -0.15293817462E+04  0.15293817462E+04  0.00000000000E+00 0.  1.
         23    2    1    2    0    0  0.13341785057E+04 -0.15697230333E+03 -0.10874904904E+04  0.17307301065E+04  0.90102972472E+02 0.  0.
         11    1    3    3    0    0  0.61505305140E+03 -0.45878116470E+02 -0.54579856145E+03  0.82358431705E+03  0.00000000000E+00 0.  1.
        -11    1    3    3    0    0  0.71912545428E+03 -0.11109418687E+03 -0.54169192894E+03  0.90714578941E+03  0.00000000000E+00 0. -1.
         22    1    1    2    0    0 -0.13341785057E+04  0.15697230333E+03  0.36309775448E+04  0.38715204403E+04  0.00000000000E+00 0. -1.
<mgrwt>
<rscale>  0 0.49915814E+04</rscale>
<asrwt>0</asrwt>
<pdfrwt beam="1">  1        2 0.62659520E+00 0.49915814E+04</pdfrwt>
<pdfrwt beam="2">  1       -2 0.23528950E+00 0.49915814E+04</pdfrwt>
<totfact> 0.17120606E-02</totfact>
</mgrwt>
</event>
<event>
 6    1  0.1817112E-005  0.2581091E+04  0.7818608E-02  0.8374653E-01
          2   -1    0    0  501    0  0.00000000000E+00  0.00000000000E+00  0.15261741413E+04  0.15261741413E+04  0.00000000000E+00 0. -1.
         -2   -1    0    0    0  501 -0.00000000000E+00 -0.00000000000E+00 -0.10912962110E+04  0.10912962110E+04  0.00000000000E+00 0.  1.
         23    2    1    2    0    0 -0.58133419216E+03  0.99361041261E+03  0.80568560138E+03  0.14080451070E+04  0.90833033379E+02 0.  0.
         13    1    3    3    0    0 -0.16699579853E+03  0.26360211598E+03  0.17200655257E+03  0.35631436458E+03  0.00000000000E+00 0. -1.
        -13    1    3    3    0    0 -0.41433839363E+03  0.73000829663E+03  0.63367904881E+03  0.10517307424E+04  0.00000000000E+00 0.  1.
         22    1    1    2    0    0  0.58133419216E+03 -0.99361041261E+03 -0.37080767114E+03  0.12094252453E+04  0.00000000000E+00 0.  1.
<mgrwt>
<rscale>  0 0.25810913E+04</rscale>
<asrwt>0</asrwt>
<pdfrwt beam="1">  1        2 0.23479602E+00 0.25810913E+04</pdfrwt>
<pdfrwt beam="2">  1       -2 0.16789172E+00 0.25810913E+04</pdfrwt>
<totfact> 0.23989083E+00</totfact>
</mgrwt>
</event>
<event>
 6    1  0.1817112E-005  0.5081841E+03  0.7818608E-02  0.1011665E+00
         -2   -1    0    0    0  501 -0.00000000000E+00  0.00000000000E+00  0.78242059740E+02  0.78242059740E+02  0.00000000000E+00 0.  1.
          2   -1    0    0  501    0  0.00000000000E+00 -0.00000000000E+00 -0.82516700054E+03  0.82516700054E+03  0.00000000000E+00 0. -1.
         23    2    1    2    0    0  0.15900532589E+03 -0.13367186270E+03 -0.15251156136E+03  0.27374396977E+03  0.92331598597E+02 0.  0.
         13    1    3    3    0    0  0.78329023915E+01 -0.37863061268E+02 -0.98520538478E-01  0.38664912708E+02  0.00000000000E+00 0.  1.
        -13    1    3    3    0    0  0.15117242350E+03 -0.95808801437E+02 -0.15241304082E+03  0.23507905707E+03  0.00000000000E+00 0. -1.
         22    1    1    2    0    0 -0.15900532589E+03  0.13367186270E+03 -0.59441337945E+03  0.62966509051E+03  0.00000000000E+00 0. -1.
<mgrwt>
<rscale>  0 0.50818408E+03</rscale>
<asrwt>0</asrwt>
<pdfrwt beam="1">  1        2 0.12694877E+00 0.50818408E+03</pdfrwt>
<pdfrwt beam="2">  1       -2 0.12037240E-01 0.50818408E+03</pdfrwt>
<totfact> 0.16785039E+03</totfact>
</mgrwt>
</event>
<event>
 6    1  0.1817112E-005  0.2098325E+04  0.7818608E-02  0.8561982E-01
          2   -1    0    0  501    0  0.00000000000E+00  0.00000000000E+00  0.25247129077E+04  0.25247129077E+04  0.00000000000E+00 0. -1.
         -2   -1    0    0    0  501 -0.00000000000E+00 -0.00000000000E+00 -0.43598684342E+03  0.43598684342E+03  0.00000000000E+00 0.  1.
         23    2    1    2    0    0 -0.10462890406E+04  0.31039596836E+02  0.10893715040E+04  0.15134977092E+04  0.90889101897E+02 0.  0.
         13    1    3    3    0    0 -0.81799517484E+03  0.27984018365E+02  0.79559998085E+03  0.11414370508E+04  0.00000000000E+00 0.  1.
        -13    1    3    3    0    0 -0.22829386576E+03  0.30555784707E+01  0.29377152316E+03  0.37206065840E+03  0.00000000000E+00 0. -1.
         22    1    1    2    0    0  0.10462890406E+04 -0.31039596836E+02  0.99935456026E+03  0.14472020419E+04  0.00000000000E+00 0.  1.
<mgrwt>
<rscale>  0 0.20983247E+04</rscale>
<asrwt>0</asrwt>
<pdfrwt beam="1">  1        2 0.38841736E+00 0.20983247E+04</pdfrwt>
<pdfrwt beam="2">  1       -2 0.67074901E-01 0.20983247E+04</pdfrwt>
<totfact> 0.63343902E+00</totfact>
</mgrwt>
</event>
<event>
 6    1  0.1817112E-005  0.2044329E+04  0.7818608E-02  0.8586171E-01
         -1   -1    0    0    0  501 -0.00000000000E+00  0.00000000000E+00  0.67533531138E+03  0.67533531138E+03  0.00000000000E+00 0.  1.
          1   -1    0    0  501    0  0.00000000000E+00 -0.00000000000E+00 -0.15471128278E+04  0.15471128278E+04  0.00000000000E+00 0. -1.
         23    2    1    2    0    0  0.75860239426E+03  0.62477383234E+03 -0.13949592079E+03  0.99686408682E+03  0.91972612886E+02 0.  0.
         13    1    3    3    0    0  0.67089757358E+03  0.51585914502E+03 -0.13467738141E+03  0.85694352719E+03  0.00000000000E+00 0. -1.
        -13    1    3    3    0    0  0.87704820682E+02  0.10891468732E+03 -0.48185393817E+01  0.13992055963E+03  0.00000000000E+00 0.  1.
         22    1    1    2    0    0 -0.75860239426E+03 -0.62477383234E+03 -0.73228159567E+03  0.12255840524E+04  0.00000000000E+00 0.  1.
<mgrwt>
<rscale>  0 0.20443287E+04</rscale>
<asrwt>0</asrwt>
<pdfrwt beam="1">  1        1 0.23801735E+00 0.20443287E+04</pdfrwt>
<pdfrwt beam="2">  1       -1 0.10389774E+00 0.20443287E+04</pdfrwt>
<totfact> 0.48929262E+00</totfact>
</mgrwt>
</event>
<event>
 6    1  0.1817112E-005  0.1433106E+04  0.7818608E-02  0.8930197E-01
          2   -1    0    0  501    0  0.00000000000E+00  0.00000000000E+00  0.82231083052E+03  0.82231083052E+03  0.00000000000E+00 0.  1.
         -2   -1    0    0    0  501 -0.00000000000E+00 -0.00000000000E+00 -0.62439664514E+03  0.62439664514E+03  0.00000000000E+00 0. -1.
         23    2    1    2    0    0 -0.41022632133E+03 -0.30406801803E+03 -0.40405397132E+03  0.65733515795E+03  0.89927214116E+02 0.  0.
         11    1    3    3    0    0 -0.22686134520E+03 -0.15547779191E+03 -0.27236716566E+03  0.38707013144E+03  0.00000000000E+00 0. -1.
        -11    1    3    3    0    0 -0.18336497613E+03 -0.14859022613E+03 -0.13168680565E+03  0.27026502651E+03  0.00000000000E+00 0.  1.
         22    1    1    2    0    0  0.41022632133E+03  0.30406801803E+03  0.60196815670E+03  0.78937231772E+03  0.00000000000E+00 0.  1.
<mgrwt>
<rscale>  0 0.14331059E+04</rscale>
<asrwt>0</asrwt>
<pdfrwt beam="1">  1        2 0.12650936E+00 0.14331059E+04</pdfrwt>
<pdfrwt beam="2">  1       -2 0.96061022E-01 0.14331059E+04</pdfrwt>
<totfact> 0.29279799E+01</totfact>
</mgrwt>
</event>
<event>
 6    1  0.1817112E-005  0.3172486E+04  0.7818608E-02  0.8196121E-01
         -2   -1    0    0    0  501 -0.00000000000E+00  0.00000000000E+00  0.16549284140E+04  0.16549284140E+04  0.00000000000E+00 0. -1.
          2   -1    0    0  501    0  0.00000000000E+00 -0.00000000000E+00 -0.15204084995E+04  0.15204084995E+04  0.00000000000E+00 0.  1.
         23    2    1    2    0    0 -0.85739718632E+03  0.12430984027E+04 -0.41425641567E+03  0.15686076163E+04  0.92184066729E+02 0.  0.
         13    1    3    3    0    0 -0.73971622443E+03  0.10979907379E+04 -0.33488433658E+03  0.13656175424E+04  0.00000000000E+00 0. -1.
        -13    1    3    3    0    0 -0.11768096190E+03  0.14510766479E+03 -0.79372079096E+02  0.20299007393E+03  0.00000000000E+00 0.  1.
         22    1    1    2    0    0  0.85739718632E+03 -0.12430984027E+04  0.54877633022E+03  0.16067292972E+04  0.00000000000E+00 0. -1.
<mgrwt>
<rscale>  0 0.31724862E+04</rscale>
<asrwt>0</asrwt>
<pdfrwt beam="1">  1        2 0.23390900E+00 0.31724862E+04</pdfrwt>
<pdfrwt beam="2">  1       -2 0.25460437E+00 0.31724862E+04</pdfrwt>
<totfact> 0.62813766E-01</totfact>
</mgrwt>
</event>
<event>
 6    1  0.1817112E-005  0.1568584E+04  0.7818608E-02  0.8840084E-01
          2   -1    0    0  501    0  0.00000000000E+00  0.00000000000E+00  0.84413669207E+03  0.84413669207E+03  0.00000000000E+00 0.  1.
         -2   -1    0    0    0  501 -0.00000000000E+00 -0.00000000000E+00 -0.72869035114E+03  0.72869035114E+03  0.00000000000E+00 0. -1.
         23    2    1    2    0    0  0.22581735306E+03 -0.14743285781E+03  0.79298771523E+03  0.84358617876E+03  0.10039023848E+03 0.  0.
         13    1    3    3    0    0  0.51257656375E+01 -0.36545034972E+02  0.15809739746E+03  0.16234715932E+03  0.00000000000E+00 0.  1.
        -13    1    3    3    0    0  0.22069158742E+03 -0.11088782284E+03  0.63489031777E+03  0.68123901944E+03  0.00000000000E+00 0. -1.
         22    1    1    2    0    0 -0.22581735306E+03  0.14743285781E+03 -0.67754137430E+03  0.72924086445E+03  0.00000000000E+00 0.  1.
<mgrwt>
<rscale>  0 0.15685844E+04</rscale>
<asrwt>0</asrwt>
<pdfrwt beam="1">  1        2 0.12986718E+00 0.15685844E+04</pdfrwt>
<pdfrwt beam="2">  1       -2 0.11210621E+00 0.15685844E+04</pdfrwt>
<totfact> 0.19325496E+01</totfact>
</mgrwt>
</event>
<event>
 6    1  0.1817112E-005  0.2663568E+04  0.7818608E-02  0.8346924E-01
         -2   -1    0    0    0  501 -0.00000000000E+00  0.00000000000E+00  0.53740136149E+03  0.53740136149E+03  0.00000000000E+00 0.  1.
          2   -1    0    0  501    0  0.00000000000E+00 -0.00000000000E+00 -0.33004173462E+04  0.33004173462E+04  0.00000000000E+00 0. -1.
         23    2    1    2    0    0  0.42708200164E+03 -0.59571120111E+03  0.21648219822E+03  0.76948360647E+03  0.89272656721E+02 0.  0.
         11    1    3    3    0    0  0.24708359893E+02 -0.67486025880E+02  0.40684612241E+02  0.82583923441E+02  0.00000000000E+00 0. -1.
        -11    1    3    3    0    0  0.40237364174E+03 -0.52822517523E+03  0.17579758598E+03  0.68689968303E+03  0.00000000000E+00 0.  1.
         22    1    1    2    0    0 -0.42708200164E+03  0.59571120111E+03 -0.29794981829E+04  0.30683351012E+04  0.00000000000E+00 0. -1.
<mgrwt>
<rscale>  0 0.26635681E+04</rscale>
<asrwt>0</asrwt>
<pdfrwt beam="1">  1        2 0.50775652E+00 0.26635681E+04</pdfrwt>
<pdfrwt beam="2">  1       -2 0.82677132E-01 0.26635681E+04</pdfrwt>
<totfact> 0.12569670E+00</totfact>
</mgrwt>
</event>
<event>
 6    1  0.1817112E-005  0.3167178E+04  0.7818608E-02  0.8197540E-01
         -2   -1    0    0    0  501 -0.00000000000E+00  0.00000000000E+00  0.14640859938E+04  0.14640859938E+04  0.00000000000E+00 0.  1.
          2   -1    0    0  501    0  0.00000000000E+00 -0.00000000000E+00 -0.17128462233E+04  0.17128462233E+04  0.00000000000E+00 0. -1.
         23    2    1    2    0    0  0.17234059583E+03  0.83173131565E+03 -0.14635173749E+04  0.16946659843E+04  0.92365736679E+02 0.  0.
         11    1    3    3    0    0  0.40035862177E+02  0.36378377534E+03 -0.68823310941E+03  0.77949106367E+03  0.00000000000E+00 0. -1.
        -11    1    3    3    0    0  0.13230473365E+03  0.46794754031E+03 -0.77528426550E+03  0.91517492063E+03  0.00000000000E+00 0.  1.
         22    1    1    2    0    0 -0.17234059583E+03 -0.83173131565E+03  0.12147571454E+04  0.14822662328E+04  0.00000000000E+00 0.  1.
<mgrwt>
<rscale>  0 0.31671780E+04</rscale>
<asrwt>0</asrwt>
<pdfrwt beam="1">  1        2 0.26351480E+00 0.31671780E+04</pdfrwt>
<pdfrwt beam="2">  1       -2 0.22524400E+00 0.31671780E+04</pdfrwt>
<totfact> 0.74598859E-01</totfact>
</mgrwt>
</event>
<event>
 6    1  0.1817112E-005  0.3931692E+04  0.7818608E-02  0.8018470E-01
          2   -1    0    0  501    0  0.00000000000E+00  0.00000000000E+00  0.16411994424E+04  0.16411994424E+04  0.00000000000E+00 0. -1.
         -2   -1    0    0    0  501 -0.00000000000E+00 -0.00000000000E+00 -0.23547106754E+04  0.23547106754E+04  0.00000000000E+00 0.  1.
         23    2    1    2    0    0 -0.10619141728E+03  0.56732390736E+03  0.15518086606E+04  0.16582173978E+04  0.91879194416E+02 0.  0.
         11    1    3    3    0    0 -0.94505397492E+02  0.26096005921E+03  0.76442550495E+03  0.81325136045E+03  0.00000000000E+00 0. -1.
        -11    1    3    3    0    0 -0.11686019789E+02  0.30636384815E+03  0.78738315566E+03  0.84496603738E+03  0.00000000000E+00 0.  1.
         22    1    1    2    0    0  0.10619141728E+03 -0.56732390736E+03 -0.22653198935E+04  0.23376927200E+04  0.00000000000E+00 0.  1.
<mgrwt>
<rscale>  0 0.39316917E+04</rscale>
<asrwt>0</asrwt>
<pdfrwt beam="1">  1        2 0.25249222E+00 0.39316917E+04</pdfrwt>
<pdfrwt beam="2">  1       -2 0.36226318E+00 0.39316917E+04</pdfrwt>
<totfact> 0.10909300E-01</totfact>
</mgrwt>
</event>
<event>
 6    1  0.1817112E-005  0.1281193E+04  0.7818608E-02  0.9044614E-01
          1   -1    0    0  501    0  0.00000000000E+00  0.00000000000E+00  0.14091673768E+04  0.14091673768E+04  0.00000000000E+00 0. -1.
         -1   -1    0    0    0  501 -0.00000000000E+00 -0.00000000000E+00 -0.29121001269E+03  0.29121001269E+03  0.00000000000E+00 0.  1.
         23    2    1    2    0    0 -0.59820302288E+03 -0.13259222438E+03  0.32857492967E+03  0.70110156053E+03  0.90301490669E+02 0.  0.
         11    1    3    3    0    0 -0.17777925395E+03 -0.62739760021E+02  0.62217810205E+02  0.19852656379E+03  0.00000000000E+00 0. -1.
        -11    1    3    3    0    0 -0.42042376894E+03 -0.69852464360E+02  0.26635711947E+03  0.50257499675E+03  0.00000000000E+00 0.  1.
         22    1    1    2    0    0  0.59820302288E+03  0.13259222438E+03  0.78938243442E+03  0.99927582895E+03  0.00000000000E+00 0. -1.
<mgrwt>
<rscale>  0 0.12811926E+04</rscale>
<asrwt>0</asrwt>
<pdfrwt beam="1">  1        1 0.21679498E+00 0.12811926E+04</pdfrwt>
<pdfrwt beam="2">  1       -1 0.44801541E-01 0.12811926E+04</pdfrwt>
<totfact> 0.36769257E+01</totfact>
</mgrwt>
</event>
<event>
 6    1  0.1817112E-005  0.3799205E+04  0.7818608E-02  0.8046325E-01
          2   -1    0    0  501    0  0.00000000000E+00  0.00000000000E+00  0.17821251630E+04  0.17821251630E+04  0.00000000000E+00 0.  1.
         -2   -1    0    0    0  501 -0.00000000000E+00 -0.00000000000E+00 -0.20248244406E+04  0.20248244406E+04  0.00000000000E+00 0. -1.
         23    2    1    2    0    0 -0.16570297724E+04  0.42216889204E+03 -0.94795280737E+03  0.19572586074E+04  0.90953236710E+02 0.  0.
         11    1    3    3    0    0 -0.53564416275E+03  0.17859141647E+03 -0.29811950596E+03  0.63850199918E+03  0.00000000000E+00 0. -1.
        -11    1    3    3    0    0 -0.11213856097E+04  0.24357747557E+03 -0.64983330140E+03  0.13187566083E+04  0.00000000000E+00 0.  1.
         22    1    1    2    0    0  0.16570297724E+04 -0.42216889204E+03  0.70525352971E+03  0.18496909962E+04  0.00000000000E+00 0.  1.
<mgrwt>
<rscale>  0 0.37992055E+04</rscale>
<asrwt>0</asrwt>
<pdfrwt beam="1">  1        2 0.27417310E+00 0.37992055E+04</pdfrwt>
<pdfrwt beam="2">  1       -2 0.31151145E+00 0.37992055E+04</pdfrwt>
<totfact> 0.19119580E-01</totfact>
</mgrwt>
</event>
<event>
 6    1  0.1817112E-005  0.8904895E+03  0.7818608E-02  0.9437549E-01
         -2   -1    0    0    0  501 -0.00000000000E+00  0.00000000000E+00  0.21727478314E+03  0.21727478314E+03  0.00000000000E+00 0.  1.
          2   -1    0    0  501    0  0.00000000000E+00 -0.00000000000E+00 -0.91240642966E+03  0.91240642966E+03  0.00000000000E+00 0. -1.
         23    2    1    2    0    0 -0.33102315108E+03 -0.18810782871E+03 -0.70255975650E+02  0.39795005600E+03  0.92018819713E+02 0.  0.
         11    1    3    3    0    0 -0.23432480096E+02 -0.35210402208E+02  0.13486864878E+02  0.44393119640E+02  0.00000000000E+00 0.  1.
        -11    1    3    3    0    0 -0.30759067099E+03 -0.15289742650E+03 -0.83742840527E+02  0.35355693636E+03  0.00000000000E+00 0. -1.
         22    1    1    2    0    0  0.33102315108E+03  0.18810782871E+03 -0.62487567087E+03  0.73173115679E+03  0.00000000000E+00 0. -1.
<mgrwt>
<rscale>  0 0.89048955E+03</rscale>
<asrwt>0</asrwt>
<pdfrwt beam="1">  1        2 0.14037022E+00 0.89048955E+03</pdfrwt>
<pdfrwt beam="2">  1       -2 0.33426890E-01 0.89048955E+03</pdfrwt>
<totfact> 0.24098281E+02</totfact>
</mgrwt>
</event>
<event>
 6    1  0.1817112E-005  0.8806491E+03  0.7818608E-02  0.9450100E-01
          2   -1    0    0  501    0  0.00000000000E+00  0.00000000000E+00  0.69075259553E+03  0.69075259553E+03  0.00000000000E+00 0. -1.
         -2   -1    0    0    0  501 -0.00000000000E+00 -0.00000000000E+00 -0.28068762411E+03  0.28068762411E+03  0.00000000000E+00 0.  1.
         23    2    1    2    0    0  0.39846744573E+03  0.13812943667E+03  0.88276810590E+02  0.44096527487E+03  0.93816479222E+02 0.  0.
         13    1    3    3    0    0  0.12460748958E+03  0.71430971437E+02 -0.59908850789E+01  0.14375430722E+03  0.00000000000E+00 0.  1.
        -13    1    3    3    0    0  0.27385995614E+03  0.66698465233E+02  0.94267695669E+02  0.29721096765E+03  0.00000000000E+00 0. -1.
         22    1    1    2    0    0 -0.39846744573E+03 -0.13812943667E+03  0.32178816083E+03  0.53047494477E+03  0.00000000000E+00 0.  1.
<mgrwt>
<rscale>  0 0.88064909E+03</rscale>
<asrwt>0</asrwt>
<pdfrwt beam="1">  1        2 0.10626963E+00 0.88064909E+03</pdfrwt>
<pdfrwt beam="2">  1       -2 0.43182712E-01 0.88064909E+03</pdfrwt>
<totfact> 0.21260778E+02</totfact>
</mgrwt>
</event>
<event>
 6    1  0.1817112E-005  0.2148933E+04  0.7818608E-02  0.8539989E-01
         -2   -1    0    0    0  501 -0.00000000000E+00  0.00000000000E+00  0.38854901994E+03  0.38854901994E+03  0.00000000000E+00 0.  1.
          2   -1    0    0  501    0  0.00000000000E+00 -0.00000000000E+00 -0.29712539604E+04  0.29712539604E+04  0.00000000000E+00 0. -1.
         23    2    1    2    0    0  0.27184290732E+03 -0.82184121698E+03 -0.22835458259E+04  0.24439330507E+04  0.94369833251E+02 0.  0.
         13    1    3    3    0    0  0.17008458017E+03 -0.37475694286E+03 -0.10314447946E+04  0.11105178499E+04  0.00000000000E+00 0.  1.
        -13    1    3    3    0    0  0.10175832715E+03 -0.44708427412E+03 -0.12521010313E+04  0.13334152009E+04  0.00000000000E+00 0. -1.
         22    1    1    2    0    0 -0.27184290732E+03  0.82184121698E+03 -0.29915911464E+03  0.91586992966E+03  0.00000000000E+00 0.  1.
<mgrwt>
<rscale>  0 0.21489326E+04</rscale>
<asrwt>0</asrwt>
<pdfrwt beam="1">  1        2 0.45711598E+00 0.21489326E+04</pdfrwt>
<pdfrwt beam="2">  1       -2 0.59776774E-01 0.21489326E+04</pdfrwt>
<totfact> 0.43544185E+00</totfact>
</mgrwt>
</event>
<event>
 6    1  0.1817112E-005  0.4535210E+03  0.7818608E-02  0.1026677E+00
          4   -1    0    0  501    0  0.00000000000E+00  0.00000000000E+00  0.55265054996E+03  0.55265054996E+03  0.00000000000E+00 0. -1.
         -4   -1    0    0    0  501 -0.00000000000E+00 -0.00000000000E+00 -0.93043093695E+02  0.93043093695E+02  0.00000000000E+00 0.  1.
         23    2    1    2    0    0 -0.10430818095E+03  0.13105613117E+03  0.43726985505E+03  0.47671176724E+03  0.89405127144E+02 0.  0.
         11    1    3    3    0    0 -0.85197374334E+02  0.86037475035E+02  0.19484429051E+03  0.22940213000E+03  0.00000000000E+00 0. -1.
        -11    1    3    3    0    0 -0.19110806611E+02  0.45018656138E+02  0.24242556454E+03  0.24730963724E+03  0.00000000000E+00 0.  1.
         22    1    1    2    0    0  0.10430818095E+03 -0.13105613117E+03  0.22337601221E+02  0.16898187642E+03  0.00000000000E+00 0.  1.
<mgrwt>
<rscale>  0 0.45352097E+03</rscale>
<asrwt>0</asrwt>
<pdfrwt beam="1">  1        4 0.85023160E-01 0.45352097E+03</pdfrwt>
<pdfrwt beam="2">  1       -4 0.14314322E-01 0.45352097E+03</pdfrwt>
<totfact> 0.98741823E+01</totfact>
</mgrwt>
</event>
<event>
 6    1  0.1817112E-005  0.1112975E+04  0.7818608E-02  0.9192637E-01
          2   -1    0    0  501    0  0.00000000000E+00  0.00000000000E+00  0.32292634023E+03  0.32292634023E+03  0.00000000000E+00 0. -1.
         -2   -1    0    0    0  501 -0.00000000000E+00 -0.00000000000E+00 -0.95897460648E+03  0.95897460648E+03  0.00000000000E+00 0.  1.
         23    2    1    2    0    0  0.40380617051E+03 -0.14884609372E+03 -0.71894235102E+03  0.84362476410E+03  0.98030890823E+02 0.  0.
         13    1    3    3    0    0  0.22683859954E+03 -0.36557656888E+02 -0.33538378967E+03  0.40653966459E+03  0.00000000000E+00 0. -1.
        -13    1    3    3    0    0  0.17696757097E+03 -0.11228843684E+03 -0.38355856135E+03  0.43708509951E+03  0.00000000000E+00 0.  1.
         22    1    1    2    0    0 -0.40380617051E+03  0.14884609372E+03  0.82894084766E+02  0.43827618261E+03  0.00000000000E+00 0. -1.
<mgrwt>
<rscale>  0 0.11129747E+04</rscale>
<asrwt>0</asrwt>
<pdfrwt beam="1">  1        2 0.49680976E-01 0.11129747E+04</pdfrwt>
<pdfrwt beam="2">  1       -2 0.14753455E+00 0.11129747E+04</pdfrwt>
<totfact> 0.31374127E+01</totfact>
</mgrwt>
</event>
<event>
 6    1  0.1817112E-005  0.2464187E+04  0.7818608E-02  0.8415856E-01
          1   -1    0    0  501    0  0.00000000000E+00  0.00000000000E+00  0.11820172470E+04  0.11820172470E+04  0.00000000000E+00 0. -1.
         -1   -1    0    0    0  501 -0.00000000000E+00 -0.00000000000E+00 -0.12842916557E+04  0.12842916557E+04  0.00000000000E+00 0.  1.
         23    2    1    2    0    0 -0.91396839592E+03 -0.81984194213E+03  0.27711698076E+02  0.12316529073E+04  0.93391150985E+02 0.  0.
         13    1    3    3    0    0 -0.78094961578E+03 -0.71932559041E+03  0.52742494326E+02  0.10630585017E+04  0.00000000000E+00 0.  1.
        -13    1    3    3    0    0 -0.13301878014E+03 -0.10051635172E+03 -0.25030796250E+02  0.16859440558E+03  0.00000000000E+00 0. -1.
         22    1    1    2    0    0  0.91396839592E+03  0.81984194213E+03 -0.12998610679E+03  0.12346559953E+04  0.00000000000E+00 0.  1.
<mgrwt>
<rscale>  0 0.24641874E+04</rscale>
<asrwt>0</asrwt>
<pdfrwt beam="1">  1        1 0.18184881E+00 0.24641874E+04</pdfrwt>
<pdfrwt beam="2">  1       -1 0.19758333E+00 0.24641874E+04</pdfrwt>
<totfact> 0.15354683E+00</totfact>
</mgrwt>
</event>
<event>
 6    1  0.1817112E-005  0.2027515E+04  0.7818608E-02  0.8593863E-01
          2   -1    0    0  501    0  0.00000000000E+00  0.00000000000E+00  0.23467715159E+04  0.23467715159E+04  0.00000000000E+00 0. -1.
         -2   -1    0    0    0  501 -0.00000000000E+00 -0.00000000000E+00 -0.43792263044E+03  0.43792263044E+03  0.00000000000E+00 0.  1.
         23    2    1    2    0    0 -0.84937115164E+03 -0.16894089154E+03  0.16749785814E+04  0.18876614283E+04  0.87977506779E+02 0.  0.
         13    1    3    3    0    0 -0.49176295799E+03 -0.12975777585E+03  0.10452746534E+04  0.11624401010E+04  0.00000000000E+00 0. -1.
        -13    1    3    3    0    0 -0.35760819365E+03 -0.39183115685E+02  0.62970392797E+03  0.72522132733E+03  0.00000000000E+00 0.  1.
         22    1    1    2    0    0  0.84937115164E+03  0.16894089154E+03  0.23387030404E+03  0.89703271801E+03  0.00000000000E+00 0. -1.
<mgrwt>
<rscale>  0 0.20275151E+04</rscale>
<asrwt>0</asrwt>
<pdfrwt beam="1">  1        2 0.36104177E+00 0.20275151E+04</pdfrwt>
<pdfrwt beam="2">  1       -2 0.67372714E-01 0.20275151E+04</pdfrwt>
<totfact> 0.79878095E+00</totfact>
</mgrwt>
</event>
<event>
 6    1  0.1817112E-005  0.3020578E+04  0.7818608E-02  0.8237879E-01
         -2   -1    0    0    0  501 -0.00000000000E+00  0.00000000000E+00  0.75232855802E+03  0.75232855802E+03  0.00000000000E+00 0.  1.
          2   -1    0    0  501    0  0.00000000000E+00 -0.00000000000E+00 -0.30318834918E+04  0.30318834918E+04  0.00000000000E+00 0. -1.
         23    2    1    2    0    0  0.71438698445E+03  0.20452091039E+03 -0.27860981668E+04  0.28848991937E+04  0.90126556831E+02 0.  0.
         13    1    3    3    0    0  0.27636002177E+03  0.59464367971E+02 -0.12144868610E+04  0.12469519671E+04  0.00000000000E+00 0.  1.
        -13    1    3    3    0    0  0.43802696269E+03  0.14505654241E+03 -0.15716113058E+04  0.16379472266E+04  0.00000000000E+00 0. -1.
         22    1    1    2    0    0 -0.71438698445E+03 -0.20452091039E+03  0.50654323302E+03  0.89931285616E+03  0.00000000000E+00 0.  1.
<mgrwt>
<rscale>  0 0.30205778E+04</rscale>
<asrwt>0</asrwt>
<pdfrwt beam="1">  1        2 0.46644362E+00 0.30205778E+04</pdfrwt>
<pdfrwt beam="2">  1       -2 0.11574285E+00 0.30205778E+04</pdfrwt>
<totfact> 0.82414171E-01</totfact>
</mgrwt>
</event>
<event>
 6    1  0.1817112E-005  0.4592897E+04  0.7818608E-02  0.7894572E-01
         -2   -1    0    0    0  501 -0.00000000000E+00  0.00000000000E+00  0.28030675411E+04  0.28030675411E+04  0.00000000000E+00 0.  1.
          2   -1    0    0  501    0  0.00000000000E+00 -0.00000000000E+00 -0.18813946741E+04  0.18813946741E+04  0.00000000000E+00 0. -1.
         23    2    1    2    0    0 -0.36495397057E+03  0.87727743965E+03  0.25919186333E+04  0.27628670376E+04  0.11218270346E+03 0.  0.
         13    1    3    3    0    0 -0.31004920987E+03  0.67978366881E+03  0.19150047173E+04  0.20555970948E+04  0.00000000000E+00 0.  1.
        -13    1    3    3    0    0 -0.54904760691E+02  0.19749377084E+03  0.67691391604E+03  0.70726994281E+03  0.00000000000E+00 0. -1.
         22    1    1    2    0    0  0.36495397057E+03 -0.87727743965E+03 -0.16702457663E+04  0.19215951776E+04  0.00000000000E+00 0. -1.
<mgrwt>
<rscale>  0 0.45928973E+04</rscale>
<asrwt>0</asrwt>
<pdfrwt beam="1">  1        2 0.28944534E+00 0.45928973E+04</pdfrwt>
<pdfrwt beam="2">  1       -2 0.43124116E+00 0.45928973E+04</pdfrwt>
<totfact> 0.27043799E-02</totfact>
</mgrwt>
</event>
<event>
 6    1  0.1817112E-005  0.5995888E+04  0.7818608E-02  0.7690912E-01
         -2   -1    0    0    0  501 -0.00000000000E+00  0.00000000000E+00  0.19716244883E+04  0.19716244883E+04  0.00000000000E+00 0.  1.
          2   -1    0    0  501    0  0.00000000000E+00 -0.00000000000E+00 -0.45585097322E+04  0.45585097322E+04  0.00000000000E+00 0. -1.
         23    2    1    2    0    0  0.71231238050E+03  0.21503588944E+04 -0.34312160626E+04  0.41126299633E+04  0.95127517361E+02 0.  0.
         11    1    3    3    0    0  0.40446936159E+03  0.11014534704E+04 -0.17235417107E+04  0.20850398654E+04  0.00000000000E+00 0. -1.
        -11    1    3    3    0    0  0.30784301891E+03  0.10489054240E+04 -0.17076743519E+04  0.20275900978E+04  0.00000000000E+00 0.  1.
         22    1    1    2    0    0 -0.71231238050E+03 -0.21503588944E+04  0.84433081872E+03  0.24175042572E+04  0.00000000000E+00 0.  1.
<mgrwt>
<rscale>  0 0.59958884E+04</rscale>
<asrwt>0</asrwt>
<pdfrwt beam="1">  1        2 0.70130919E+00 0.59958884E+04</pdfrwt>
<pdfrwt beam="2">  1       -2 0.30332685E+00 0.59958884E+04</pdfrwt>
<totfact> 0.21707805E-03</totfact>
</mgrwt>
</event>
<event>
 6    1  0.1817112E-005  0.3302854E+04  0.7818608E-02  0.8162170E-01
         -2   -1    0    0    0  501 -0.00000000000E+00  0.00000000000E+00  0.99814601896E+03  0.99814601896E+03  0.00000000000E+00 0.  1.
          2   -1    0    0  501    0  0.00000000000E+00 -0.00000000000E+00 -0.27322763951E+04  0.27322763951E+04  0.00000000000E+00 0. -1.
         23    2    1    2    0    0 -0.13989926937E+03 -0.44027368970E+03  0.92174936068E+03  0.10346646535E+04  0.86581370862E+02 0.  0.
         13    1    3    3    0    0 -0.43644881095E+02 -0.25461855647E+03  0.45530465204E+03  0.52348620910E+03  0.00000000000E+00 0.  1.
        -13    1    3    3    0    0 -0.96254388280E+02 -0.18565513323E+03  0.46644470864E+03  0.51117844436E+03  0.00000000000E+00 0. -1.
         22    1    1    2    0    0  0.13989926937E+03  0.44027368970E+03 -0.26558797368E+04  0.26957577606E+04  0.00000000000E+00 0. -1.
<mgrwt>
<rscale>  0 0.33028538E+04</rscale>
<asrwt>0</asrwt>
<pdfrwt beam="1">  1        2 0.42035021E+00 0.33028538E+04</pdfrwt>
<pdfrwt beam="2">  1       -2 0.15356093E+00 0.33028538E+04</pdfrwt>
<totfact> 0.59677172E-01</totfact>
</mgrwt>
</event>
<event>
 6    1  0.1817112E-005  0.3617583E+04  0.7818608E-02  0.8086476E-01
         -2   -1    0    0    0  501 -0.00000000000E+00  0.00000000000E+00  0.21380072109E+04  0.21380072109E+04  0.00000000000E+00 0. -1.
          2   -1    0    0  501    0  0.00000000000E+00 -0.00000000000E+00 -0.15302692656E+04  0.15302692656E+04  0.00000000000E+00 0.  1.
         23    2    1    2    0    0  0.19098418044E+03  0.11854391899E+04 -0.10661217310E+04  0.16082892809E+04  0.90762523777E+02 0.  0.
         11    1    3    3    0    0  0.97055046843E+02  0.52496498691E+03 -0.53217326086E+03  0.75380123320E+03  0.00000000000E+00 0. -1.
        -11    1    3    3    0    0  0.93929133600E+02  0.66047420297E+03 -0.53394847013E+03  0.85448804771E+03  0.00000000000E+00 0.  1.
         22    1    1    2    0    0 -0.19098418044E+03 -0.11854391899E+04  0.16738596763E+04  0.20599871956E+04  0.00000000000E+00 0. -1.
<mgrwt>
<rscale>  0 0.36175830E+04</rscale>
<asrwt>0</asrwt>
<pdfrwt beam="1">  1        2 0.23542604E+00 0.36175830E+04</pdfrwt>
<pdfrwt beam="2">  1       -2 0.32892418E+00 0.36175830E+04</pdfrwt>
<totfact> 0.20933453E-01</totfact>
</mgrwt>
</event>
<event>
 6    1  0.1817112E-005  0.1895653E+04  0.7818608E-02  0.8657023E-01
         -2   -1    0    0    0  501 -0.00000000000E+00  0.00000000000E+00  0.62385360499E+03  0.62385360499E+03  0.00000000000E+00 0.  1.
          2   -1    0    0  501    0  0.00000000000E+00 -0.00000000000E+00 -0.14400419749E+04  0.14400419749E+04  0.00000000000E+00 0. -1.
         23    2    1    2    0    0 -0.29043991916E+03  0.60689355136E+03 -0.11325150960E+04  0.13204322473E+04  0.90971136447E+02 0.  0.
         13    1    3    3    0    0 -0.11713903630E+03  0.29448489926E+03 -0.45503700867E+03  0.55452825805E+03  0.00000000000E+00 0. -1.
        -13    1    3    3    0    0 -0.17330088285E+03  0.31240865210E+03 -0.67747808732E+03  0.76590398922E+03  0.00000000000E+00 0.  1.
         22    1    1    2    0    0  0.29043991916E+03 -0.60689355136E+03  0.31632672608E+03  0.74346333262E+03  0.00000000000E+00 0.  1.
<mgrwt>
<rscale>  0 0.18956533E+04</rscale>
<asrwt>0</asrwt>
<pdfrwt beam="1">  1        2 0.22154492E+00 0.18956533E+04</pdfrwt>
<pdfrwt beam="2">  1       -2 0.95977478E-01 0.18956533E+04</pdfrwt>
<totfact> 0.11704500E+01</totfact>
</mgrwt>
</event>
<event>
 6    1  0.1817112E-005  0.1063450E+04  0.7818608E-02  0.9241567E-01
          2   -1    0    0  501    0  0.00000000000E+00  0.00000000000E+00  0.28861579232E+04  0.28861579232E+04  0.00000000000E+00 0. -1.
         -2   -1    0    0    0  501 -0.00000000000E+00 -0.00000000000E+00 -0.97961215542E+02  0.97961215542E+02  0.00000000000E+00 0.  1.
         23    2    1    2    0    0  0.13939594743E+03  0.28729305285E+03  0.25837389045E+04  0.26049469857E+04  0.89852897012E+02 0.  0.
         13    1    3    3    0    0  0.38540797025E+02  0.17046015770E+03  0.12076913442E+04  0.12202706426E+04  0.00000000000E+00 0.  1.
        -13    1    3    3    0    0  0.10085515041E+03  0.11683289514E+03  0.13760475604E+04  0.13846763431E+04  0.00000000000E+00 0. -1.
         22    1    1    2    0    0 -0.13939594743E+03 -0.28729305285E+03  0.20445780309E+03  0.37917215301E+03  0.00000000000E+00 0.  1.
<mgrwt>
<rscale>  0 0.10634501E+04</rscale>
<asrwt>0</asrwt>
<pdfrwt beam="1">  1        2 0.44402423E+00 0.10634501E+04</pdfrwt>
<pdfrwt beam="2">  1       -2 0.15070958E-01 0.10634501E+04</pdfrwt>
<totfact> 0.72295064E+01</totfact>
</mgrwt>
</event>
<event>
 6    1  0.1817112E-005  0.1969152E+04  0.7818608E-02  0.8621180E-01
          2   -1    0    0  501    0  0.00000000000E+00  0.00000000000E+00  0.15683211855E+04  0.15683211855E+04  0.00000000000E+00 0. -1.
         -2   -1    0    0    0  501 -0.00000000000E+00 -0.00000000000E+00 -0.61810698814E+03  0.61810698814E+03  0.00000000000E+00 0.  1.
         23    2    1    2    0    0  0.61925978582E+03 -0.66323198228E+03  0.57072200630E+02  0.91321885424E+03  0.85744358403E+02 0.  0.
         13    1    3    3    0    0  0.46774705175E+03 -0.54791969259E+03  0.31502013621E+02  0.72110725333E+03  0.00000000000E+00 0. -1.
        -13    1    3    3    0    0  0.15151273406E+03 -0.11531228970E+03  0.25570187009E+02  0.19211160091E+03  0.00000000000E+00 0.  1.
         22    1    1    2    0    0 -0.61925978582E+03  0.66323198228E+03  0.89314199671E+03  0.12732093194E+04  0.00000000000E+00 0.  1.
<mgrwt>
<rscale>  0 0.19691524E+04</rscale>
<asrwt>0</asrwt>
<pdfrwt beam="1">  1        2 0.24128018E+00 0.19691524E+04</pdfrwt>
<pdfrwt beam="2">  1       -2 0.95093383E-01 0.19691524E+04</pdfrwt>
<totfact> 0.10061999E+01</totfact>
</mgrwt>
</event>
<event>
 6    1  0.1817112E-005  0.2301445E+04  0.7818608E-02  0.8477352E-01
         -2   -1    0    0    0  501 -0.00000000000E+00  0.00000000000E+00  0.48405610461E+03  0.48405610461E+03  0.00000000000E+00 0.  1.
          2   -1    0    0  501    0  0.00000000000E+00 -0.00000000000E+00 -0.27355542044E+04  0.27355542044E+04  0.00000000000E+00 0. -1.
         23    2    1    2    0    0 -0.26459186922E+03 -0.10878947236E+04 -0.76649919268E+03  0.13598400165E+04  0.90111437601E+02 0.  0.
         13    1    3    3    0    0 -0.16659553445E+03 -0.68196003453E+03 -0.53274339574E+03  0.88127128996E+03  0.00000000000E+00 0.  1.
        -13    1    3    3    0    0 -0.97996334778E+02 -0.40593468905E+03 -0.23375579694E+03  0.47856872652E+03  0.00000000000E+00 0. -1.
         22    1    1    2    0    0  0.26459186922E+03  0.10878947236E+04 -0.14849989071E+04  0.18597702926E+04  0.00000000000E+00 0.  1.
<mgrwt>
<rscale>  0 0.23014445E+04</rscale>
<asrwt>0</asrwt>
<pdfrwt beam="1">  1        2 0.42085448E+00 0.23014445E+04</pdfrwt>
<pdfrwt beam="2">  1       -2 0.74470172E-01 0.23014445E+04</pdfrwt>
<totfact> 0.37192468E+00</totfact>
</mgrwt>
</event>
<event>
 6    1  0.1817112E-005  0.3616471E+04  0.7818608E-02  0.8086729E-01
          2   -1    0    0  501    0  0.00000000000E+00  0.00000000000E+00  0.23813542883E+04  0.23813542883E+04  0.00000000000E+00 0. -1.
         -2   -1    0    0    0  501 -0.00000000000E+00 -0.00000000000E+00 -0.13730491018E+04  0.13730491018E+04  0.00000000000E+00 0.  1.
         23    2    1    2    0    0 -0.70805205804E+03  0.15300747877E+04 -0.17075977056E+03  0.16970602623E+04  0.91586361650E+02 0.  0.
         13    1    3    3    0    0 -0.63326507221E+03  0.13996482383E+04 -0.13264920962E+03  0.15419583832E+04  0.00000000000E+00 0. -1.
        -13    1    3    3    0    0 -0.74786985824E+02  0.13042654945E+03 -0.38110560943E+02  0.15510187912E+03  0.00000000000E+00 0.  1.
         22    1    1    2    0    0  0.70805205804E+03 -0.15300747877E+04  0.11790649570E+04  0.20573431278E+04  0.00000000000E+00 0. -1.
<mgrwt>
<rscale>  0 0.36164714E+04</rscale>
<asrwt>0</asrwt>
<pdfrwt beam="1">  1        2 0.36636220E+00 0.36164714E+04</pdfrwt>
<pdfrwt beam="2">  1       -2 0.21123832E+00 0.36164714E+04</pdfrwt>
<totfact> 0.37284206E-01</totfact>
</mgrwt>
</event>
<event>
 6    1  0.1817112E-005  0.1636513E+04  0.7818608E-02  0.8798425E-01
          2   -1    0    0  501    0  0.00000000000E+00  0.00000000000E+00  0.24098100855E+04  0.24098100855E+04  0.00000000000E+00 0. -1.
         -2   -1    0    0    0  501 -0.00000000000E+00 -0.00000000000E+00 -0.27784086794E+03  0.27784086794E+03  0.00000000000E+00 0.  1.
         23    2    1    2    0    0 -0.52933356788E+02 -0.23620949076E+03  0.23485861794E+04  0.23628128831E+04  0.91819466171E+02 0.  0.
         11    1    3    3    0    0  0.11165388579E+02 -0.10456810935E+03  0.12677807264E+04  0.12721348693E+04  0.00000000000E+00 0. -1.
        -11    1    3    3    0    0 -0.64098745368E+02 -0.13164138142E+03  0.10808054530E+04  0.10906780138E+04  0.00000000000E+00 0.  1.
         22    1    1    2    0    0  0.52933356788E+02  0.23620949076E+03 -0.21661696187E+03  0.32483807037E+03  0.00000000000E+00 0.  1.
<mgrwt>
<rscale>  0 0.16365130E+04</rscale>
<asrwt>0</asrwt>
<pdfrwt beam="1">  1        2 0.37074000E+00 0.16365130E+04</pdfrwt>
<pdfrwt beam="2">  1       -2 0.42744750E-01 0.16365130E+04</pdfrwt>
<totfact> 0.19500252E+01</totfact>
</mgrwt>
</event>
<event>
 6    1  0.1817112E-005  0.4945818E+04  0.7818608E-02  0.7836920E-01
         -2   -1    0    0    0  501 -0.00000000000E+00  0.00000000000E+00  0.16018564117E+04  0.16018564117E+04  0.00000000000E+00 0.  1.
          2   -1    0    0  501    0  0.00000000000E+00 -0.00000000000E+00 -0.38176199083E+04  0.38176199083E+04  0.00000000000E+00 0. -1.
         23    2    1    2    0    0 -0.17178256652E+04 -0.13338369008E+04  0.18055586337E+03  0.21833687246E+04  0.66728359778E+02 0.  0.
         13    1    3    3    0    0 -0.63986604000E+03 -0.51595987359E+03  0.96959450005E+02  0.82767401508E+03  0.00000000000E+00 0.  1.
        -13    1    3    3    0    0 -0.10779596252E+04 -0.81787702720E+03  0.83596413368E+02  0.13556947096E+04  0.00000000000E+00 0. -1.
         22    1    1    2    0    0  0.17178256652E+04  0.13338369008E+04 -0.23963193600E+04  0.32361075954E+04  0.00000000000E+00 0. -1.
<mgrwt>
<rscale>  0 0.49458180E+04</rscale>
<asrwt>0</asrwt>
<pdfrwt beam="1">  1        2 0.58732612E+00 0.49458180E+04</pdfrwt>
<pdfrwt beam="2">  1       -2 0.24643945E+00 0.49458180E+04</pdfrwt>
<totfact> 0.23449522E-02</totfact>
</mgrwt>
</event>
<event>
 6    1  0.1817112E-005  0.4707970E+04  0.7818608E-02  0.7875206E-01
         -2   -1    0    0    0  501 -0.00000000000E+00  0.00000000000E+00  0.17182234292E+04  0.17182234292E+04  0.00000000000E+00 0.  1.
          2   -1    0    0  501    0  0.00000000000E+00 -0.00000000000E+00 -0.32249858644E+04  0.32249858644E+04  0.00000000000E+00 0. -1.
         23    2    1    2    0    0  0.13418117585E+04 -0.15191024444E+04  0.50141828614E+03  0.20899793972E+04  0.91992126877E+02 0.  0.
         13    1    3    3    0    0  0.71218699174E+03 -0.78467582949E+03  0.21712697424E+03  0.10816980131E+04  0.00000000000E+00 0. -1.
        -13    1    3    3    0    0  0.62962476674E+03 -0.73442661493E+03  0.28429131189E+03  0.10082813842E+04  0.00000000000E+00 0.  1.
         22    1    1    2    0    0 -0.13418117585E+04  0.15191024444E+04 -0.20081807213E+04  0.28532298963E+04  0.00000000000E+00 0. -1.
<mgrwt>
<rscale>  0 0.47079704E+04</rscale>
<asrwt>0</asrwt>
<pdfrwt beam="1">  1        2 0.49615167E+00 0.47079704E+04</pdfrwt>
<pdfrwt beam="2">  1       -2 0.26434206E+00 0.47079704E+04</pdfrwt>
<totfact> 0.48784592E-02</totfact>
</mgrwt>
</event>
<event>
 6    1  0.1817112E-005  0.2546626E+04  0.7818608E-02  0.8386560E-01
          2   -1    0    0  501    0  0.00000000000E+00  0.00000000000E+00  0.31245537028E+04  0.31245537028E+04  0.00000000000E+00 0. -1.
         -2   -1    0    0    0  501 -0.00000000000E+00 -0.00000000000E+00 -0.51889851468E+03  0.51889851468E+03  0.00000000000E+00 0.  1.
         23    2    1    2    0    0  0.20629611019E+03 -0.12442350663E+04  0.15371602475E+04  0.19904669110E+04  0.91749180274E+02 0.  0.
         11    1    3    3    0    0  0.36901436109E+02 -0.43969914390E+03  0.57743711871E+03  0.72672600008E+03  0.00000000000E+00 0. -1.
        -11    1    3    3    0    0  0.16939467408E+03 -0.80453592240E+03  0.95972312875E+03  0.12637409109E+04  0.00000000000E+00 0.  1.
         22    1    1    2    0    0 -0.20629611019E+03  0.12442350663E+04  0.10684949407E+04  0.16529853065E+04  0.00000000000E+00 0.  1.
<mgrwt>
<rscale>  0 0.25466262E+04</rscale>
<asrwt>0</asrwt>
<pdfrwt beam="1">  1        2 0.48070056E+00 0.25466262E+04</pdfrwt>
<pdfrwt beam="2">  1       -2 0.79830542E-01 0.25466262E+04</pdfrwt>
<totfact> 0.17912343E+00</totfact>
</mgrwt>
</event>
<event>
 6    1  0.1817112E-005  0.1663049E+04  0.7818608E-02  0.8782724E-01
         -1   -1    0    0    0  501 -0.00000000000E+00  0.00000000000E+00  0.10233616408E+04  0.10233616408E+04  0.00000000000E+00 0.  1.
          1   -1    0    0  501    0  0.00000000000E+00 -0.00000000000E+00 -0.67564843192E+03  0.67564843192E+03  0.00000000000E+00 0. -1.
         23    2    1    2    0    0 -0.41368753714E+03  0.94852927598E+02  0.90206082449E+03  0.10008440931E+04  0.88547791402E+02 0.  0.
         11    1    3    3    0    0 -0.73558259362E+02 -0.13854485217E+02  0.19145216061E+03  0.20556433077E+03  0.00000000000E+00 0.  1.
        -11    1    3    3    0    0 -0.34012927777E+03  0.10870741281E+03  0.71060866387E+03  0.79527976233E+03  0.00000000000E+00 0. -1.
         22    1    1    2    0    0  0.41368753714E+03 -0.94852927598E+02 -0.55434761557E+03  0.69816597965E+03  0.00000000000E+00 0. -1.
<mgrwt>
<rscale>  0 0.16630486E+04</rscale>
<asrwt>0</asrwt>
<pdfrwt beam="1">  1        1 0.10394591E+00 0.16630486E+04</pdfrwt>
<pdfrwt beam="2">  1       -1 0.15744025E+00 0.16630486E+04</pdfrwt>
<totfact> 0.83867511E+00</totfact>
</mgrwt>
</event>
<event>
 6    1  0.1817112E-005  0.6557093E+03  0.7818608E-02  0.9796125E-01
          2   -1    0    0  501    0  0.00000000000E+00  0.00000000000E+00  0.78129314999E+03  0.78129314999E+03  0.00000000000E+00 0. -1.
         -2   -1    0    0    0  501 -0.00000000000E+00 -0.00000000000E+00 -0.13757791618E+03  0.13757791618E+03  0.00000000000E+00 0.  1.
         23    2    1    2    0    0 -0.11946590988E+03 -0.50034081464E+02 -0.84726917304E+02  0.17900386157E+03  0.89934526241E+02 0.  0.
         13    1    3    3    0    0 -0.12659811704E+03 -0.22355553170E+02 -0.74868797999E+02  0.14876891782E+03  0.00000000000E+00 0. -1.
        -13    1    3    3    0    0  0.71322071585E+01 -0.27678528294E+02 -0.98581193046E+01  0.30234943752E+02  0.00000000000E+00 0.  1.
         22    1    1    2    0    0  0.11946590988E+03  0.50034081464E+02  0.72844215111E+03  0.73986720460E+03  0.00000000000E+00 0. -1.
<mgrwt>
<rscale>  0 0.65570934E+03</rscale>
<asrwt>0</asrwt>
<pdfrwt beam="1">  1        2 0.12019894E+00 0.65570934E+03</pdfrwt>
<pdfrwt beam="2">  1       -2 0.21165834E-01 0.65570934E+03</pdfrwt>
<totfact> 0.69044014E+02</totfact>
</mgrwt>
</event>
<event>
 6    1  0.1817112E-005  0.4262385E+04  0.7818608E-02  0.7953610E-01
         -2   -1    0    0    0  501 -0.00000000000E+00  0.00000000000E+00  0.19577265361E+04  0.19577265361E+04  0.00000000000E+00 0.  1.
          2   -1    0    0  501    0  0.00000000000E+00 -0.00000000000E+00 -0.23200283660E+04  0.23200283660E+04  0.00000000000E+00 0. -1.
         23    2    1    2    0    0  0.13034012691E+03 -0.78400802066E+03 -0.21647843968E+04  0.23078309115E+04  0.90193713587E+02 0.  0.
         13    1    3    3    0    0  0.13512448670E+03 -0.72751172114E+03 -0.19495028988E+04  0.20852082591E+04  0.00000000000E+00 0. -1.
        -13    1    3    3    0    0 -0.47843597840E+01 -0.56496299523E+02 -0.21528149800E+03  0.22262265235E+03  0.00000000000E+00 0.  1.
         22    1    1    2    0    0 -0.13034012691E+03  0.78400802066E+03  0.18024825669E+04  0.19699239907E+04  0.00000000000E+00 0.  1.
<mgrwt>
<rscale>  0 0.42623848E+04</rscale>
<asrwt>0</asrwt>
<pdfrwt beam="1">  1        2 0.35692744E+00 0.42623848E+04</pdfrwt>
<pdfrwt beam="2">  1       -2 0.30118870E+00 0.42623848E+04</pdfrwt>
<totfact> 0.10661726E-01</totfact>
</mgrwt>
</event>
<event>
 6    1  0.2515146E-005  0.5291463E+04  0.7818608E-02  0.7785054E-01
          1   -1    0    0  501    0  0.00000000000E+00  0.00000000000E+00  0.38626755591E+04  0.38626755591E+04  0.00000000000E+00 0. -1.
         -1   -1    0    0    0  501 -0.00000000000E+00 -0.00000000000E+00 -0.18121880405E+04  0.18121880405E+04  0.00000000000E+00 0.  1.
         23    2    1    2    0    0  0.81889676602E+03  0.21285036368E+04 -0.41111964270E+03  0.23191774609E+04  0.91897166259E+02 0.  0.
         13    1    3    3    0    0  0.66056465365E+03  0.16100984517E+04 -0.30586752152E+03  0.17670081003E+04  0.00000000000E+00 0. -1.
        -13    1    3    3    0    0  0.15833211237E+03  0.51840518507E+03 -0.10525212118E+03  0.55216936055E+03  0.00000000000E+00 0.  1.
         22    1    1    2    0    0 -0.81889676602E+03 -0.21285036368E+04  0.24616071613E+04  0.33556861387E+04  0.00000000000E+00 0. -1.
<mgrwt>
<rscale>  0 0.52914627E+04</rscale>
<asrwt>0</asrwt>
<pdfrwt beam="1">  1        1 0.59425777E+00 0.52914627E+04</pdfrwt>
<pdfrwt beam="2">  1       -1 0.27879816E+00 0.52914627E+04</pdfrwt>
<totfact> 0.40227554E-03</totfact>
</mgrwt>
</event>
<event>
 6    1  0.1817112E-005  0.1884532E+04  0.7818608E-02  0.8662594E-01
         -2   -1    0    0    0  501 -0.00000000000E+00  0.00000000000E+00  0.90200277129E+03  0.90200277129E+03  0.00000000000E+00 0. -1.
          2   -1    0    0  501    0  0.00000000000E+00 -0.00000000000E+00 -0.98432694949E+03  0.98432694949E+03  0.00000000000E+00 0.  1.
         23    2    1    2    0    0  0.50067263236E+03 -0.62571999221E+03 -0.53316972745E+03  0.96684056765E+03  0.91170891951E+02 0.  0.
         11    1    3    3    0    0  0.24404816912E+03 -0.34310992131E+03 -0.32604141099E+03  0.53252880545E+03  0.00000000000E+00 0. -1.
        -11    1    3    3    0    0  0.25662446324E+03 -0.28261007090E+03 -0.20712831647E+03  0.43431176221E+03  0.00000000000E+00 0.  1.
         22    1    1    2    0    0 -0.50067263236E+03  0.62571999221E+03  0.45084554925E+03  0.91948915313E+03  0.00000000000E+00 0. -1.
<mgrwt>
<rscale>  0 0.18845324E+04</rscale>
<asrwt>0</asrwt>
<pdfrwt beam="1">  1        2 0.15143492E+00 0.18845324E+04</pdfrwt>
<pdfrwt beam="2">  1       -2 0.13876966E+00 0.18845324E+04</pdfrwt>
<totfact> 0.88842279E+00</totfact>
</mgrwt>
</event>
<event>
 6    1  0.1817112E-005  0.3155120E+04  0.7818608E-02  0.8200771E-01
          2   -1    0    0  501    0  0.00000000000E+00  0.00000000000E+00  0.14491288403E+04  0.14491288403E+04  0.00000000000E+00 0. -1.
         -2   -1    0    0    0  501 -0.00000000000E+00 -0.00000000000E+00 -0.17173740211E+04  0.17173740211E+04  0.00000000000E+00 0.  1.
         23    2    1    2    0    0  0.75228430070E+03  0.79920831434E+03 -0.12695722703E+04  0.16807971237E+04  0.92734151277E+02 0.  0.
         13    1    3    3    0    0  0.48476275296E+03  0.44996754263E+03 -0.74914613974E+03  0.99934261130E+03  0.00000000000E+00 0. -1.
        -13    1    3    3    0    0  0.26752154775E+03  0.34924077171E+03 -0.52042613059E+03  0.68145451245E+03  0.00000000000E+00 0.  1.
         22    1    1    2    0    0 -0.75228430070E+03 -0.79920831434E+03  0.10013270895E+04  0.14857057377E+04  0.00000000000E+00 0. -1.
<mgrwt>
<rscale>  0 0.31551204E+04</rscale>
<asrwt>0</asrwt>
<pdfrwt beam="1">  1        2 0.22294290E+00 0.31551204E+04</pdfrwt>
<pdfrwt beam="2">  1       -2 0.26421139E+00 0.31551204E+04</pdfrwt>
<totfact> 0.60284782E-01</totfact>
</mgrwt>
</event>
<event>
 6    1  0.2963046E-005  0.3552947E+04  0.7818608E-02  0.8101356E-01
          2   -1    0    0  501    0  0.00000000000E+00  0.00000000000E+00  0.18166200912E+04  0.18166200912E+04  0.00000000000E+00 0.  1.
         -2   -1    0    0    0  501 -0.00000000000E+00 -0.00000000000E+00 -0.17372143480E+04  0.17372143480E+04  0.00000000000E+00 0. -1.
         23    2    1    2    0    0 -0.66463873880E+03  0.12744535558E+04 -0.10025103658E+04  0.17548016475E+04  0.91242916677E+02 0.  0.
         13    1    3    3    0    0 -0.35047193973E+03  0.59510185434E+03 -0.44641104966E+03  0.82235006101E+03  0.00000000000E+00 0.  1.
        -13    1    3    3    0    0 -0.31416679906E+03  0.67935170142E+03 -0.55609931610E+03  0.93245158653E+03  0.00000000000E+00 0. -1.
         22    1    1    2    0    0  0.66463873880E+03 -0.12744535558E+04  0.10819161089E+04  0.17990327917E+04  0.00000000000E+00 0. -1.
<mgrwt>
<rscale>  0 0.35529472E+04</rscale>
<asrwt>0</asrwt>
<pdfrwt beam="1">  1        2 0.27948002E+00 0.35529472E+04</pdfrwt>
<pdfrwt beam="2">  1       -2 0.26726374E+00 0.35529472E+04</pdfrwt>
<totfact> 0.34813416E-01</totfact>
</mgrwt>
</event>
<event>
 6    1  0.1817112E-005  0.1668971E+04  0.7818608E-02  0.8779262E-01
          1   -1    0    0  501    0  0.00000000000E+00  0.00000000000E+00  0.12376374284E+04  0.12376374284E+04  0.00000000000E+00 0. -1.
         -1   -1    0    0    0  501 -0.00000000000E+00 -0.00000000000E+00 -0.56265733431E+03  0.56265733431E+03  0.00000000000E+00 0.  1.
         23    2    1    2    0    0  0.75141696803E+03  0.25715884920E+03  0.70622701589E+02  0.80229376498E+03  0.89048221672E+02 0.  0.
         11    1    3    3    0    0  0.15204690695E+03  0.67431379477E+02  0.48365356932E+02  0.17321795693E+03  0.00000000000E+00 0. -1.
        -11    1    3    3    0    0  0.59937006108E+03  0.18972746972E+03  0.22257344657E+02  0.62907580806E+03  0.00000000000E+00 0.  1.
         22    1    1    2    0    0 -0.75141696803E+03 -0.25715884920E+03  0.60435739250E+03  0.99800099771E+03  0.00000000000E+00 0.  1.
<mgrwt>
<rscale>  0 0.16689707E+04</rscale>
<asrwt>0</asrwt>
<pdfrwt beam="1">  1        1 0.19040576E+00 0.16689707E+04</pdfrwt>
<pdfrwt beam="2">  1       -1 0.86562667E-01 0.16689707E+04</pdfrwt>
<totfact> 0.12594813E+01</totfact>
</mgrwt>
</event>
<event>
 6    1  0.1817112E-005  0.3367231E+04  0.7818608E-02  0.8145996E-01
         -2   -1    0    0    0  501 -0.00000000000E+00  0.00000000000E+00  0.20709438154E+04  0.20709438154E+04  0.00000000000E+00 0.  1.
          2   -1    0    0  501    0  0.00000000000E+00 -0.00000000000E+00 -0.13687295255E+04  0.13687295255E+04  0.00000000000E+00 0. -1.
         23    2    1    2    0    0  0.64506344256E+03  0.14912324402E+04 -0.94575693123E+02  0.16300448397E+04  0.90667425458E+02 0.  0.
         13    1    3    3    0    0  0.41460305793E+03  0.85091258182E+03 -0.68336849644E+02  0.94900887381E+03  0.00000000000E+00 0. -1.
        -13    1    3    3    0    0  0.23046038462E+03  0.64031985838E+03 -0.26238843479E+02  0.68103596588E+03  0.00000000000E+00 0.  1.
         22    1    1    2    0    0 -0.64506344256E+03 -0.14912324402E+04  0.79678998303E+03  0.18096285013E+04  0.00000000000E+00 0. -1.
<mgrwt>
<rscale>  0 0.33672315E+04</rscale>
<asrwt>0</asrwt>
<pdfrwt beam="1">  1        2 0.21057377E+00 0.33672315E+04</pdfrwt>
<pdfrwt beam="2">  1       -2 0.31860674E+00 0.33672315E+04</pdfrwt>
<totfact> 0.30590549E-01</totfact>
</mgrwt>
</event>
<event>
 6    1  0.1817112E-005  0.3416695E+04  0.7818608E-02  0.8133821E-01
         -2   -1    0    0    0  501 -0.00000000000E+00  0.00000000000E+00  0.11578762175E+04  0.11578762175E+04  0.00000000000E+00 0. -1.
          2   -1    0    0  501    0  0.00000000000E+00 -0.00000000000E+00 -0.25205208381E+04  0.25205208381E+04  0.00000000000E+00 0.  1.
         23    2    1    2    0    0  0.93442604032E+03  0.15269807321E+03 -0.22111290095E+04  0.24070220186E+04  0.90524995789E+02 0.  0.
         13    1    3    3    0    0  0.55976595331E+03  0.13130047376E+03 -0.12860351071E+04  0.14087100602E+04  0.00000000000E+00 0.  1.
        -13    1    3    3    0    0  0.37466008701E+03  0.21397599442E+02 -0.92509390244E+03  0.99831195846E+03  0.00000000000E+00 0. -1.
         22    1    1    2    0    0 -0.93442604032E+03 -0.15269807321E+03  0.84848438897E+03  0.12713750370E+04  0.00000000000E+00 0. -1.
<mgrwt>
<rscale>  0 0.34166950E+04</rscale>
<asrwt>0</asrwt>
<pdfrwt beam="1">  1        2 0.38777244E+00 0.34166950E+04</pdfrwt>
<pdfrwt beam="2">  1       -2 0.17813480E+00 0.34166950E+04</pdfrwt>
<totfact> 0.52336092E-01</totfact>
</mgrwt>
</event>
<event>
 6    1  0.1817112E-005  0.2301387E+04  0.7818608E-02  0.8477374E-01
          2   -1    0    0  501    0  0.00000000000E+00  0.00000000000E+00  0.11953915848E+04  0.11953915848E+04  0.00000000000E+00 0.  1.
         -2   -1    0    0    0  501 -0.00000000000E+00 -0.00000000000E+00 -0.11076669170E+04  0.11076669170E+04  0.00000000000E+00 0. -1.
         23    2    1    2    0    0  0.30034958100E+03 -0.10785846200E+04  0.30181282786E+03  0.11631513155E+04  0.90968930471E+02 0.  0.
         13    1    3    3    0    0  0.15530368877E+03 -0.45842478008E+03  0.16804754465E+03  0.51235972910E+03  0.00000000000E+00 0. -1.
        -13    1    3    3    0    0  0.14504589223E+03 -0.62015983992E+03  0.13376528321E+03  0.65079158638E+03  0.00000000000E+00 0.  1.
         22    1    1    2    0    0 -0.30034958100E+03  0.10785846200E+04 -0.21408816003E+03  0.11399071864E+04  0.00000000000E+00 0. -1.
<mgrwt>
<rscale>  0 0.23013872E+04</rscale>
<asrwt>0</asrwt>
<pdfrwt beam="1">  1        2 0.18390640E+00 0.23013872E+04</pdfrwt>
<pdfrwt beam="2">  1       -2 0.17041029E+00 0.23013872E+04</pdfrwt>
<totfact> 0.36582494E+00</totfact>
</mgrwt>
</event>
<event>
 6    1  0.1817112E-005  0.1849066E+04  0.7818608E-02  0.8680633E-01
         -2   -1    0    0    0  501 -0.00000000000E+00  0.00000000000E+00  0.24230948680E+03  0.24230948680E+03  0.00000000000E+00 0.  1.
          2   -1    0    0  501    0  0.00000000000E+00 -0.00000000000E+00 -0.35275617109E+04  0.35275617109E+04  0.00000000000E+00 0. -1.
         23    2    1    2    0    0  0.50741054197E+03 -0.18662261386E+03 -0.12457333934E+03  0.56328664858E+03  0.97364641840E+02 0.  0.
         11    1    3    3    0    0  0.17827490609E+03 -0.28985888904E+02 -0.72623830087E+02  0.19466983484E+03  0.00000000000E+00 0. -1.
        -11    1    3    3    0    0  0.32913563588E+03 -0.15763672496E+03 -0.51949509249E+02  0.36861681374E+03  0.00000000000E+00 0.  1.
         22    1    1    2    0    0 -0.50741054197E+03  0.18662261386E+03 -0.31606788847E+04  0.32065845491E+04  0.00000000000E+00 0. -1.
<mgrwt>
<rscale>  0 0.18490664E+04</rscale>
<asrwt>0</asrwt>
<pdfrwt beam="1">  1        2 0.54270180E+00 0.18490664E+04</pdfrwt>
<pdfrwt beam="2">  1       -2 0.37278383E-01 0.18490664E+04</pdfrwt>
<totfact> 0.49992218E+00</totfact>
</mgrwt>
</event>
<event>
 6    1  0.1817112E-005  0.6061598E+03  0.7818608E-02  0.9892708E-01
         -2   -1    0    0    0  501 -0.00000000000E+00  0.00000000000E+00  0.31393739882E+02  0.31393739882E+02  0.00000000000E+00 0.  1.
          2   -1    0    0  501    0  0.00000000000E+00 -0.00000000000E+00 -0.29259789971E+04  0.29259789971E+04  0.00000000000E+00 0. -1.
         23    2    1    2    0    0  0.56399904904E+02  0.20080147219E+02 -0.28952710220E+04  0.28975009418E+04  0.96608774308E+02 0.  0.
         11    1    3    3    0    0 -0.26969110085E+02  0.17197250442E+01 -0.52786292247E+03  0.52855421224E+03  0.00000000000E+00 0. -1.
        -11    1    3    3    0    0  0.83369014989E+02  0.18360422175E+02 -0.23674080995E+04  0.23689467296E+04  0.00000000000E+00 0.  1.
         22    1    1    2    0    0 -0.56399904904E+02 -0.20080147219E+02  0.68576478335E+00  0.59871795187E+02  0.00000000000E+00 0.  1.
<mgrwt>
<rscale>  0 0.60615979E+03</rscale>
<asrwt>0</asrwt>
<pdfrwt beam="1">  1        2 0.45015058E+00 0.60615979E+03</pdfrwt>
<pdfrwt beam="2">  1       -2 0.48298065E-02 0.60615979E+03</pdfrwt>
<totfact> 0.45077682E+02</totfact>
</mgrwt>
</event>
<event>
 6    1  0.1817112E-005  0.3272355E+04  0.7818608E-02  0.8169966E-01
         -1   -1    0    0    0  501 -0.00000000000E+00  0.00000000000E+00  0.62804749727E+03  0.62804749727E+03  0.00000000000E+00 0.  1.
          1   -1    0    0  501    0  0.00000000000E+00 -0.00000000000E+00 -0.42625384492E+04  0.42625384492E+04  0.00000000000E+00 0. -1.
         23    2    1    2    0    0 -0.52192325069E+03  0.15307395034E+04 -0.21771181120E+04  0.27135460062E+04  0.89001950557E+02 0.  0.
         13    1    3    3    0    0 -0.48142445089E+03  0.13602896167E+04 -0.19767666818E+04  0.24473994070E+04  0.00000000000E+00 0.  1.
        -13    1    3    3    0    0 -0.40498799806E+02  0.17044988673E+03 -0.20035143020E+03  0.26614659918E+03  0.00000000000E+00 0. -1.
         22    1    1    2    0    0  0.52192325069E+03 -0.15307395034E+04 -0.14573728399E+04  0.21770399402E+04  0.00000000000E+00 0. -1.
<mgrwt>
<rscale>  0 0.32723549E+04</rscale>
<asrwt>0</asrwt>
<pdfrwt beam="1">  1        1 0.65577515E+00 0.32723549E+04</pdfrwt>
<pdfrwt beam="2">  1       -1 0.96622692E-01 0.32723549E+04</pdfrwt>
<totfact> 0.47238804E-02</totfact>
</mgrwt>
</event>
<event>
 6    1  0.1817112E-005  0.1139707E+04  0.7818608E-02  0.9167332E-01
         -2   -1    0    0    0  501 -0.00000000000E+00  0.00000000000E+00  0.55969433032E+03  0.55969433032E+03  0.00000000000E+00 0.  1.
          2   -1    0    0  501    0  0.00000000000E+00 -0.00000000000E+00 -0.58019695227E+03  0.58019695227E+03  0.00000000000E+00 0. -1.
         23    2    1    2    0    0 -0.20486778894E+02 -0.92384342325E+02 -0.56865672904E+03  0.58362920413E+03  0.91093345617E+02 0.  0.
         13    1    3    3    0    0 -0.11415395136E+02 -0.93017894417E+02 -0.28880258339E+03  0.30362735730E+03  0.00000000000E+00 0. -1.
        -13    1    3    3    0    0 -0.90713837580E+01  0.63355209260E+00 -0.27985414565E+03  0.28000184683E+03  0.00000000000E+00 0.  1.
         22    1    1    2    0    0  0.20486778894E+02  0.92384342325E+02  0.54815410709E+03  0.55626207846E+03  0.00000000000E+00 0.  1.
<mgrwt>
<rscale>  0 0.11397069E+04</rscale>
<asrwt>0</asrwt>
<pdfrwt beam="1">  1        2 0.89261070E-01 0.11397069E+04</pdfrwt>
<pdfrwt beam="2">  1       -2 0.86106820E-01 0.11397069E+04</pdfrwt>
<totfact> 0.59875824E+01</totfact>
</mgrwt>
</event>
<event>
 6    1  0.1817112E-005  0.4187919E+04  0.7818608E-02  0.7967674E-01
          2   -1    0    0  501    0  0.00000000000E+00  0.00000000000E+00  0.22313221166E+04  0.22313221166E+04  0.00000000000E+00 0. -1.
         -2   -1    0    0    0  501 -0.00000000000E+00 -0.00000000000E+00 -0.19650533691E+04  0.19650533691E+04  0.00000000000E+00 0.  1.
         23    2    1    2    0    0 -0.39739964856E+03 -0.31991508443E+03 -0.19008081759E+04  0.19700568800E+04  0.88205706992E+02 0.  0.
         13    1    3    3    0    0 -0.42375775023E+02 -0.59641826174E+01 -0.19469990965E+03  0.19934726635E+03  0.00000000000E+00 0.  1.
        -13    1    3    3    0    0 -0.35502387354E+03 -0.31395090181E+03 -0.17061082663E+04  0.17707096136E+04  0.00000000000E+00 0. -1.
         22    1    1    2    0    0  0.39739964856E+03  0.31991508443E+03  0.21670769235E+04  0.22263186057E+04  0.00000000000E+00 0. -1.
<mgrwt>
<rscale>  0 0.41879193E+04</rscale>
<asrwt>0</asrwt>
<pdfrwt beam="1">  1        2 0.34328033E+00 0.41879193E+04</pdfrwt>
<pdfrwt beam="2">  1       -2 0.30231590E+00 0.41879193E+04</pdfrwt>
<totfact> 0.11851739E-01</totfact>
</mgrwt>
</event>
<event>
 6    1  0.1817112E-005  0.1800197E+04  0.7818608E-02  0.8706195E-01
         -2   -1    0    0    0  501 -0.00000000000E+00  0.00000000000E+00  0.97555811746E+03  0.97555811746E+03  0.00000000000E+00 0.  1.
          2   -1    0    0  501    0  0.00000000000E+00 -0.00000000000E+00 -0.83047564975E+03  0.83047564975E+03  0.00000000000E+00 0. -1.
         23    2    1    2    0    0 -0.87148752218E+03 -0.21130890042E+03  0.25750448947E+02  0.90138903948E+03  0.87733472380E+02 0.  0.
         13    1    3    3    0    0 -0.84077519591E+02 -0.47470454894E+02  0.85471090968E+01  0.96930523894E+02  0.00000000000E+00 0. -1.
        -13    1    3    3    0    0 -0.78741000258E+03 -0.16383844552E+03  0.17203339850E+02  0.80445851559E+03  0.00000000000E+00 0.  1.
         22    1    1    2    0    0  0.87148752218E+03  0.21130890042E+03  0.11933201877E+03  0.90464472773E+03  0.00000000000E+00 0.  1.
<mgrwt>
<rscale>  0 0.18001969E+04</rscale>
<asrwt>0</asrwt>
<pdfrwt beam="1">  1        2 0.12776548E+00 0.18001969E+04</pdfrwt>
<pdfrwt beam="2">  1       -2 0.15008586E+00 0.18001969E+04</pdfrwt>
<totfact> 0.92487390E+00</totfact>
</mgrwt>
</event>
<event>
 6    1  0.1817112E-005  0.1472722E+04  0.7818608E-02  0.8902798E-01
         -2   -1    0    0    0  501 -0.00000000000E+00  0.00000000000E+00  0.65795640997E+03  0.65795640997E+03  0.00000000000E+00 0.  1.
          2   -1    0    0  501    0  0.00000000000E+00 -0.00000000000E+00 -0.82410810152E+03  0.82410810152E+03  0.00000000000E+00 0. -1.
         23    2    1    2    0    0 -0.88502331798E+01  0.45914429682E+03  0.49238193291E+03  0.67922059983E+03  0.89492141763E+02 0.  0.
         13    1    3    3    0    0  0.24374801552E+02  0.42183350945E+02  0.64756099683E+02  0.81036525678E+02  0.00000000000E+00 0. -1.
        -13    1    3    3    0    0 -0.33225034732E+02  0.41696094588E+03  0.42762583323E+03  0.59818407415E+03  0.00000000000E+00 0.  1.
         22    1    1    2    0    0  0.88502331798E+01 -0.45914429682E+03 -0.65853362446E+03  0.80284391165E+03  0.00000000000E+00 0. -1.
<mgrwt>
<rscale>  0 0.14727216E+04</rscale>
<asrwt>0</asrwt>
<pdfrwt beam="1">  1        2 0.12678586E+00 0.14727216E+04</pdfrwt>
<pdfrwt beam="2">  1       -2 0.10122406E+00 0.14727216E+04</pdfrwt>
<totfact> 0.25720946E+01</totfact>
</mgrwt>
</event>
<event>
 6    1  0.1817112E-005  0.7739526E+03  0.7818608E-02  0.9598504E-01
          2   -1    0    0  501    0  0.00000000000E+00  0.00000000000E+00  0.30635379257E+04  0.30635379257E+04  0.00000000000E+00 0.  1.
         -2   -1    0    0    0  501 -0.00000000000E+00 -0.00000000000E+00 -0.48881611914E+02  0.48881611914E+02  0.00000000000E+00 0. -1.
         23    2    1    2    0    0  0.21236578001E+03 -0.14010029825E+03  0.26720757420E+04  0.26857009345E+04  0.90958344704E+02 0.  0.
         11    1    3    3    0    0  0.13991949064E+03 -0.12427716568E+03  0.21866923185E+04  0.21946857574E+04  0.00000000000E+00 0. -1.
        -11    1    3    3    0    0  0.72446289369E+02 -0.15823132574E+02  0.48538342342E+03  0.49101517705E+03  0.00000000000E+00 0.  1.
         22    1    1    2    0    0 -0.21236578001E+03  0.14010029825E+03  0.34258057182E+03  0.42671860316E+03  0.00000000000E+00 0. -1.
<mgrwt>
<rscale>  0 0.77395264E+03</rscale>
<asrwt>0</asrwt>
<pdfrwt beam="1">  1        2 0.47131338E+00 0.77395264E+03</pdfrwt>
<pdfrwt beam="2">  1       -2 0.75202504E-02 0.77395264E+03</pdfrwt>
<totfact> 0.18188812E+02</totfact>
</mgrwt>
</event>
<event>
 6    1  0.1817112E-005  0.1377085E+04  0.7818608E-02  0.8970575E-01
         -2   -1    0    0    0  501 -0.00000000000E+00  0.00000000000E+00  0.29921334900E+03  0.29921334900E+03  0.00000000000E+00 0.  1.
          2   -1    0    0  501    0  0.00000000000E+00 -0.00000000000E+00 -0.15844576464E+04  0.15844576464E+04  0.00000000000E+00 0. -1.
         23    2    1    2    0    0 -0.39632884890E+02  0.57843567872E+03 -0.11458284871E+04  0.12873528185E+04  0.90530422551E+02 0.  0.
         11    1    3    3    0    0 -0.49631575836E+02  0.31449272385E+03 -0.54804706451E+03  0.63381744342E+03  0.00000000000E+00 0.  1.
        -11    1    3    3    0    0  0.99986909465E+01  0.26394295487E+03 -0.59778142260E+03  0.65353537506E+03  0.00000000000E+00 0. -1.
         22    1    1    2    0    0  0.39632884890E+02 -0.57843567872E+03 -0.13941581032E+03  0.59631817694E+03  0.00000000000E+00 0.  1.
<mgrwt>
<rscale>  0 0.13770852E+04</rscale>
<asrwt>0</asrwt>
<pdfrwt beam="1">  1        2 0.24376271E+00 0.13770852E+04</pdfrwt>
<pdfrwt beam="2">  1       -2 0.46032823E-01 0.13770852E+04</pdfrwt>
<totfact> 0.49622327E+01</totfact>
</mgrwt>
</event>
<event>
 6    1  0.1817112E-005  0.1857521E+04  0.7818608E-02  0.8676295E-01
         -2   -1    0    0    0  501 -0.00000000000E+00  0.00000000000E+00  0.64960893945E+03  0.64960893945E+03  0.00000000000E+00 0.  1.
          2   -1    0    0  501    0  0.00000000000E+00 -0.00000000000E+00 -0.13278700813E+04  0.13278700813E+04  0.00000000000E+00 0. -1.
         23    2    1    2    0    0  0.65002119901E+03  0.39014761092E+03 -0.90694777555E+03  0.11856202619E+04  0.91642896449E+02 0.  0.
         13    1    3    3    0    0  0.32910496664E+03  0.17121445061E+03 -0.50503230548E+03  0.62664351648E+03  0.00000000000E+00 0. -1.
        -13    1    3    3    0    0  0.32091623238E+03  0.21893316031E+03 -0.40191547007E+03  0.55897674546E+03  0.00000000000E+00 0.  1.
         22    1    1    2    0    0 -0.65002119901E+03 -0.39014761092E+03  0.22868663371E+03  0.79185875881E+03  0.00000000000E+00 0.  1.
<mgrwt>
<rscale>  0 0.18575212E+04</rscale>
<asrwt>0</asrwt>
<pdfrwt beam="1">  1        2 0.20428770E+00 0.18575212E+04</pdfrwt>
<pdfrwt beam="2">  1       -2 0.99939837E-01 0.18575212E+04</pdfrwt>
<totfact> 0.12381345E+01</totfact>
</mgrwt>
</event>
<event>
 6    1  0.1817112E-005  0.2508914E+04  0.7818608E-02  0.8399817E-01
          2   -1    0    0  501    0  0.00000000000E+00  0.00000000000E+00  0.33948151926E+04  0.33948151926E+04  0.00000000000E+00 0. -1.
         -2   -1    0    0    0  501 -0.00000000000E+00 -0.00000000000E+00 -0.46354877530E+03  0.46354877530E+03  0.00000000000E+00 0.  1.
         23    2    1    2    0    0  0.87650062747E+03  0.10504279729E+03  0.10507508763E+03  0.89751193324E+03  0.12328648367E+03 0.  0.
         11    1    3    3    0    0  0.38423380499E+03  0.89234835302E+02  0.27249980020E+01  0.39446913484E+03  0.00000000000E+00 0. -1.
        -11    1    3    3    0    0  0.49226682248E+03  0.15807961985E+02  0.10235008963E+03  0.50304279840E+03  0.00000000000E+00 0.  1.
         22    1    1    2    0    0 -0.87650062747E+03 -0.10504279729E+03  0.28261913297E+04  0.29608520347E+04  0.00000000000E+00 0. -1.
<mgrwt>
<rscale>  0 0.25089140E+04</rscale>
<asrwt>0</asrwt>
<pdfrwt beam="1">  1        2 0.52227925E+00 0.25089140E+04</pdfrwt>
<pdfrwt beam="2">  1       -2 0.71315198E-01 0.25089140E+04</pdfrwt>
<totfact> 0.15302487E+00</totfact>
</mgrwt>
</event>
<event>
 6    1  0.1817112E-005  0.2307687E+04  0.7818608E-02  0.8474896E-01
         -2   -1    0    0    0  501 -0.00000000000E+00  0.00000000000E+00  0.60133504941E+03  0.60133504941E+03  0.00000000000E+00 0.  1.
          2   -1    0    0  501    0  0.00000000000E+00 -0.00000000000E+00 -0.22139983355E+04  0.22139983355E+04  0.00000000000E+00 0. -1.
         23    2    1    2    0    0 -0.54539844983E+03  0.80931770633E+02  0.42585893052E+03  0.70356108463E+03  0.98147595627E+02 0.  0.
         13    1    3    3    0    0 -0.40736113450E+03  0.59359000366E+02  0.36860376566E+03  0.55257155273E+03  0.00000000000E+00 0.  1.
        -13    1    3    3    0    0 -0.13803731533E+03  0.21572770268E+02  0.57255164857E+02  0.15098953190E+03  0.00000000000E+00 0. -1.
         22    1    1    2    0    0  0.54539844983E+03 -0.80931770633E+02 -0.20385222166E+04  0.21117723003E+04  0.00000000000E+00 0. -1.
<mgrwt>
<rscale>  0 0.23076870E+04</rscale>
<asrwt>0</asrwt>
<pdfrwt beam="1">  1        2 0.34061512E+00 0.23076870E+04</pdfrwt>
<pdfrwt beam="2">  1       -2 0.92513086E-01 0.23076870E+04</pdfrwt>
<totfact> 0.45547199E+00</totfact>
</mgrwt>
</event>
<event>
 6    1  0.1817112E-005  0.2403812E+04  0.7818608E-02  0.8438078E-01
          2   -1    0    0  501    0  0.00000000000E+00  0.00000000000E+00  0.33733730316E+04  0.33733730316E+04  0.00000000000E+00 0. -1.
         -2   -1    0    0    0  501 -0.00000000000E+00 -0.00000000000E+00 -0.42822954125E+03  0.42822954125E+03  0.00000000000E+00 0.  1.
         23    2    1    2    0    0 -0.51205036071E+03  0.99939765233E+03  0.80458673914E+03  0.13843780395E+04  0.90285636225E+02 0.  0.
         11    1    3    3    0    0 -0.30260463525E+03  0.54319203674E+03  0.49330754934E+03  0.79371247457E+03  0.00000000000E+00 0. -1.
        -11    1    3    3    0    0 -0.20944572546E+03  0.45620561559E+03  0.31127918979E+03  0.59066556494E+03  0.00000000000E+00 0.  1.
         22    1    1    2    0    0  0.51205036071E+03 -0.99939765233E+03  0.21405567512E+04  0.24172245333E+04  0.00000000000E+00 0.  1.
<mgrwt>
<rscale>  0 0.24038120E+04</rscale>
<asrwt>0</asrwt>
<pdfrwt beam="1">  1        2 0.51898045E+00 0.24038120E+04</pdfrwt>
<pdfrwt beam="2">  1       -2 0.65881470E-01 0.24038120E+04</pdfrwt>
<totfact> 0.18978531E+00</totfact>
</mgrwt>
</event>
<event>
 6    1  0.1817112E-005  0.1823990E+04  0.7818608E-02  0.8693645E-01
         -2   -1    0    0    0  501 -0.00000000000E+00  0.00000000000E+00  0.71236026453E+03  0.71236026453E+03  0.00000000000E+00 0.  1.
          2   -1    0    0  501    0  0.00000000000E+00 -0.00000000000E+00 -0.11675763060E+04  0.11675763060E+04  0.00000000000E+00 0. -1.
         23    2    1    2    0    0  0.65241327144E+03 -0.28272287543E+03  0.35665705389E+03  0.80071776789E+03  0.91484363024E+02 0.  0.
         13    1    3    3    0    0  0.27313338228E+03 -0.90884222615E+02  0.10290941786E+03  0.30569941890E+03  0.00000000000E+00 0. -1.
        -13    1    3    3    0    0  0.37927988916E+03 -0.19183865282E+03  0.25374763603E+03  0.49501834898E+03  0.00000000000E+00 0.  1.
         22    1    1    2    0    0 -0.65241327144E+03  0.28272287543E+03 -0.81187309540E+03  0.10792188027E+04  0.00000000000E+00 0. -1.
<mgrwt>
<rscale>  0 0.18239901E+04</rscale>
<asrwt>0</asrwt>
<pdfrwt beam="1">  1        2 0.17962712E+00 0.18239901E+04</pdfrwt>
<pdfrwt beam="2">  1       -2 0.10959389E+00 0.18239901E+04</pdfrwt>
<totfact> 0.12376986E+01</totfact>
</mgrwt>
</event>
<event>
 6    1  0.1817112E-005  0.2136825E+04  0.7818608E-02  0.8545193E-01
         -2   -1    0    0    0  501 -0.00000000000E+00  0.00000000000E+00  0.21047984952E+04  0.21047984952E+04  0.00000000000E+00 0. -1.
          2   -1    0    0  501    0  0.00000000000E+00 -0.00000000000E+00 -0.54233454096E+03  0.54233454096E+03  0.00000000000E+00 0.  1.
         23    2    1    2    0    0 -0.53541069822E+03 -0.64773230563E+03 -0.30696932955E+02  0.84591584547E+03  0.91703655376E+02 0.  0.
         11    1    3    3    0    0 -0.34815138905E+03 -0.48180005539E+03 -0.37698157294E+02  0.59561886650E+03  0.00000000000E+00 0. -1.
        -11    1    3    3    0    0 -0.18725930917E+03 -0.16593225024E+03  0.70012243383E+01  0.25029697897E+03  0.00000000000E+00 0.  1.
         22    1    1    2    0    0  0.53541069822E+03  0.64773230563E+03  0.15931608872E+04  0.18012171907E+04  0.00000000000E+00 0. -1.
<mgrwt>
<rscale>  0 0.21368247E+04</rscale>
<asrwt>0</asrwt>
<pdfrwt beam="1">  1        2 0.83436085E-01 0.21368247E+04</pdfrwt>
<pdfrwt beam="2">  1       -2 0.32381515E+00 0.21368247E+04</pdfrwt>
<totfact> 0.11676758E+00</totfact>
</mgrwt>
</event>
<event>
 6    1  0.1817112E-005  0.3976125E+04  0.7818608E-02  0.8009380E-01
         -2   -1    0    0    0  501 -0.00000000000E+00  0.00000000000E+00  0.11790677214E+04  0.11790677214E+04  0.00000000000E+00 0.  1.
          2   -1    0    0  501    0  0.00000000000E+00 -0.00000000000E+00 -0.33521340066E+04  0.33521340066E+04  0.00000000000E+00 0. -1.
         23    2    1    2    0    0  0.76290642487E+03  0.88693113631E+02  0.10013058850E+04  0.12652361194E+04  0.91193646473E+02 0.  0.
         11    1    3    3    0    0  0.53047172809E+03  0.48352531798E+02  0.75692591362E+03  0.92556742615E+03  0.00000000000E+00 0. -1.
        -11    1    3    3    0    0  0.23243469678E+03  0.40340581833E+02  0.24437997135E+03  0.33966869330E+03  0.00000000000E+00 0.  1.
         22    1    1    2    0    0 -0.76290642487E+03 -0.88693113631E+02 -0.31743721702E+04  0.32659656086E+04  0.00000000000E+00 0. -1.
<mgrwt>
<rscale>  0 0.39761253E+04</rscale>
<asrwt>0</asrwt>
<pdfrwt beam="1">  1        2 0.51571292E+00 0.39761253E+04</pdfrwt>
<pdfrwt beam="2">  1       -2 0.18139504E+00 0.39761253E+04</pdfrwt>
<totfact> 0.14384208E-01</totfact>
</mgrwt>
</event>
<event>
 6    1  0.1817112E-005  0.4242970E+04  0.7818608E-02  0.7957248E-01
          2   -1    0    0  501    0  0.00000000000E+00  0.00000000000E+00  0.24408163911E+04  0.24408163911E+04  0.00000000000E+00 0. -1.
         -2   -1    0    0    0  501 -0.00000000000E+00 -0.00000000000E+00 -0.18439315069E+04  0.18439315069E+04  0.00000000000E+00 0.  1.
         23    2    1    2    0    0 -0.91369167282E+03  0.16284752692E+04 -0.71639847517E+03  0.20018818578E+04  0.86833299219E+02 0.  0.
         11    1    3    3    0    0 -0.46898379622E+03  0.74880874935E+03 -0.34723094337E+03  0.94933117101E+03  0.00000000000E+00 0. -1.
        -11    1    3    3    0    0 -0.44470787661E+03  0.87966651984E+03 -0.36916753180E+03  0.10525506868E+04  0.00000000000E+00 0.  1.
         22    1    1    2    0    0  0.91369167282E+03 -0.16284752692E+04  0.13132833594E+04  0.22828660402E+04  0.00000000000E+00 0. -1.
<mgrwt>
<rscale>  0 0.42429698E+04</rscale>
<asrwt>0</asrwt>
<pdfrwt beam="1">  1        2 0.37551022E+00 0.42429698E+04</pdfrwt>
<pdfrwt beam="2">  1       -2 0.28368177E+00 0.42429698E+04</pdfrwt>
<totfact> 0.11652049E-01</totfact>
</mgrwt>
</event>
<event>
 6    1  0.1817112E-005  0.5622821E+03  0.7818608E-02  0.9986904E-01
          2   -1    0    0  501    0  0.00000000000E+00  0.00000000000E+00  0.16791736172E+04  0.16791736172E+04  0.00000000000E+00 0. -1.
         -2   -1    0    0    0  501 -0.00000000000E+00 -0.00000000000E+00 -0.47070937895E+02  0.47070937895E+02  0.00000000000E+00 0.  1.
         23    2    1    2    0    0  0.13315954185E+03  0.19910002745E+03  0.42958573559E+03  0.50010456128E+03  0.90489687110E+02 0.  0.
         13    1    3    3    0    0  0.30407969374E+02  0.66161328987E+02  0.21849502769E+03  0.23030858252E+03  0.00000000000E+00 0. -1.
        -13    1    3    3    0    0  0.10275157248E+03  0.13293869846E+03  0.21109070790E+03  0.26979597877E+03  0.00000000000E+00 0.  1.
         22    1    1    2    0    0 -0.13315954185E+03 -0.19910002745E+03  0.12025169437E+04  0.12261399938E+04  0.00000000000E+00 0. -1.
<mgrwt>
<rscale>  0 0.56228205E+03</rscale>
<asrwt>0</asrwt>
<pdfrwt beam="1">  1        2 0.25833436E+00 0.56228205E+03</pdfrwt>
<pdfrwt beam="2">  1       -2 0.72416840E-02 0.56228205E+03</pdfrwt>
<totfact> 0.11902430E+03</totfact>
</mgrwt>
</event>
<event>
 6    1  0.1817112E-005  0.1070063E+04  0.7818608E-02  0.9234872E-01
          2   -1    0    0  501    0  0.00000000000E+00  0.00000000000E+00  0.61718192895E+03  0.61718192895E+03  0.00000000000E+00 0. -1.
         -2   -1    0    0    0  501 -0.00000000000E+00 -0.00000000000E+00 -0.46381550177E+03  0.46381550177E+03  0.00000000000E+00 0.  1.
         23    2    1    2    0    0  0.24094465190E+03 -0.27402803784E+03 -0.31229130247E+03  0.48940397911E+03  0.94046299068E+02 0.  0.
         11    1    3    3    0    0  0.14763173133E+02 -0.67227622731E+02 -0.41052189918E+02  0.80142291183E+02  0.00000000000E+00 0. -1.
        -11    1    3    3    0    0  0.22618147877E+03 -0.20680041511E+03 -0.27123911255E+03  0.40926168793E+03  0.00000000000E+00 0.  1.
         22    1    1    2    0    0 -0.24094465190E+03  0.27402803784E+03  0.46565772966E+03  0.59159345161E+03  0.00000000000E+00 0. -1.
<mgrwt>
<rscale>  0 0.10700627E+04</rscale>
<asrwt>0</asrwt>
<pdfrwt beam="1">  1        2 0.94951066E-01 0.10700627E+04</pdfrwt>
<pdfrwt beam="2">  1       -2 0.71356231E-01 0.10700627E+04</pdfrwt>
<totfact> 0.85009830E+01</totfact>
</mgrwt>
</event>
<event>
 6    1  0.1817112E-005  0.2044143E+04  0.7818608E-02  0.8586256E-01
          2   -1    0    0  501    0  0.00000000000E+00  0.00000000000E+00  0.11688808862E+04  0.11688808862E+04  0.00000000000E+00 0. -1.
         -2   -1    0    0    0  501 -0.00000000000E+00 -0.00000000000E+00 -0.89370145499E+03  0.89370145499E+03  0.00000000000E+00 0.  1.
         23    2    1    2    0    0  0.89867930734E+03  0.24555565189E+03 -0.28125540510E+03  0.97743635896E+03  0.91406549482E+02 0.  0.
         13    1    3    3    0    0  0.62303606853E+03  0.20908402816E+03 -0.17829665273E+03  0.68094035708E+03  0.00000000000E+00 0. -1.
        -13    1    3    3    0    0  0.27564323881E+03  0.36471623734E+02 -0.10295875237E+03  0.29649600188E+03  0.00000000000E+00 0.  1.
         22    1    1    2    0    0 -0.89867930734E+03 -0.24555565189E+03  0.55643483627E+03  0.10851459822E+04  0.00000000000E+00 0.  1.
<mgrwt>
<rscale>  0 0.20441434E+04</rscale>
<asrwt>0</asrwt>
<pdfrwt beam="1">  1        2 0.17982783E+00 0.20441434E+04</pdfrwt>
<pdfrwt beam="2">  1       -2 0.13749253E+00 0.20441434E+04</pdfrwt>
<totfact> 0.68911954E+00</totfact>
</mgrwt>
</event>
<event>
 6    1  0.1817112E-005  0.4353442E+04  0.7818608E-02  0.7936809E-01
         -2   -1    0    0    0  501 -0.00000000000E+00  0.00000000000E+00  0.17974707145E+04  0.17974707145E+04  0.00000000000E+00 0. -1.
          2   -1    0    0  501    0  0.00000000000E+00 -0.00000000000E+00 -0.26359899614E+04  0.26359899614E+04  0.00000000000E+00 0.  1.
         23    2    1    2    0    0  0.19592582047E+04  0.75578589321E+03 -0.99927101717E+03  0.23273395586E+04  0.89787672828E+02 0.  0.
         11    1    3    3    0    0  0.94199037316E+03  0.41099436098E+03 -0.49566004686E+03  0.11410263406E+04  0.00000000000E+00 0.  1.
        -11    1    3    3    0    0  0.10172678315E+04  0.34479153222E+03 -0.50361097032E+03  0.11863132180E+04  0.00000000000E+00 0. -1.
         22    1    1    2    0    0 -0.19592582047E+04 -0.75578589321E+03  0.16075177029E+03  0.21061211173E+04  0.00000000000E+00 0. -1.
<mgrwt>
<rscale>  0 0.43534422E+04</rscale>
<asrwt>0</asrwt>
<pdfrwt beam="1">  1        2 0.40553692E+00 0.43534422E+04</pdfrwt>
<pdfrwt beam="2">  1       -2 0.27653396E+00 0.43534422E+04</pdfrwt>
<totfact> 0.98241683E-02</totfact>
</mgrwt>
</event>
<event>
 6    1  0.1817112E-005  0.1271115E+04  0.7818608E-02  0.9052790E-01
         -1   -1    0    0    0  501 -0.00000000000E+00  0.00000000000E+00  0.83613513306E+03  0.83613513306E+03  0.00000000000E+00 0.  1.
          1   -1    0    0  501    0  0.00000000000E+00 -0.00000000000E+00 -0.48309576589E+03  0.48309576589E+03  0.00000000000E+00 0. -1.
         23    2    1    2    0    0 -0.18603084344E+03 -0.50321668277E+03  0.52485499990E+03  0.75588809375E+03  0.89774911991E+02 0.  0.
         11    1    3    3    0    0 -0.73378128339E+02 -0.31362323393E+03  0.28533366785E+03  0.43030127189E+03  0.00000000000E+00 0. -1.
        -11    1    3    3    0    0 -0.11265271510E+03 -0.18959344883E+03  0.23952133205E+03  0.32558682185E+03  0.00000000000E+00 0.  1.
         22    1    1    2    0    0  0.18603084344E+03  0.50321668277E+03 -0.17181563273E+03  0.56334280520E+03  0.00000000000E+00 0. -1.
<mgrwt>
<rscale>  0 0.12711150E+04</rscale>
<asrwt>0</asrwt>
<pdfrwt beam="1">  1        1 0.74322426E-01 0.12711150E+04</pdfrwt>
<pdfrwt beam="2">  1       -1 0.12863617E+00 0.12711150E+04</pdfrwt>
<totfact> 0.23840593E+01</totfact>
</mgrwt>
</event>
<event>
 6    1  0.1817112E-005  0.2787438E+04  0.7818608E-02  0.8307179E-01
         -2   -1    0    0    0  501 -0.00000000000E+00  0.00000000000E+00  0.95850352597E+03  0.95850352597E+03  0.00000000000E+00 0.  1.
          2   -1    0    0  501    0  0.00000000000E+00 -0.00000000000E+00 -0.20265467778E+04  0.20265467778E+04  0.00000000000E+00 0. -1.
         23    2    1    2    0    0  0.10876436657E+04  0.22800216312E+03 -0.14326602491E+04  0.18154780382E+04  0.92148726929E+02 0.  0.
         11    1    3    3    0    0  0.75216027086E+03  0.19970319508E+03 -0.98398646843E+03  0.12545341005E+04  0.00000000000E+00 0. -1.
        -11    1    3    3    0    0  0.33548339482E+03  0.28298968035E+02 -0.44867378065E+03  0.56094393769E+03  0.00000000000E+00 0.  1.
         22    1    1    2    0    0 -0.10876436657E+04 -0.22800216312E+03  0.36461699722E+03  0.11695722656E+04  0.00000000000E+00 0.  1.
<mgrwt>
<rscale>  0 0.27874377E+04</rscale>
<asrwt>0</asrwt>
<pdfrwt beam="1">  1        2 0.31177643E+00 0.27874377E+04</pdfrwt>
<pdfrwt beam="2">  1       -2 0.14746208E+00 0.27874377E+04</pdfrwt>
<totfact> 0.17632928E+00</totfact>
</mgrwt>
</event>
<event>
 6    1  0.1817112E-005  0.2030096E+04  0.7818608E-02  0.8592678E-01
         -2   -1    0    0    0  501 -0.00000000000E+00  0.00000000000E+00  0.29267003536E+03  0.29267003536E+03  0.00000000000E+00 0.  1.
          2   -1    0    0  501    0  0.00000000000E+00 -0.00000000000E+00 -0.35204222706E+04  0.35204222706E+04  0.00000000000E+00 0. -1.
         23    2    1    2    0    0  0.87875132728E+03 -0.22677773010E+03 -0.24623315368E+04  0.26258682834E+04  0.92063080007E+02 0.  0.
         11    1    3    3    0    0  0.63541744492E+03 -0.14304479812E+03 -0.16565892156E+04  0.17800294865E+04  0.00000000000E+00 0.  1.
        -11    1    3    3    0    0  0.24333388236E+03 -0.83732931978E+02 -0.80574232119E+03  0.84583879691E+03  0.00000000000E+00 0. -1.
         22    1    1    2    0    0 -0.87875132728E+03  0.22677773010E+03 -0.76542069844E+03  0.11872240225E+04  0.00000000000E+00 0.  1.
<mgrwt>
<rscale>  0 0.20300957E+04</rscale>
<asrwt>0</asrwt>
<pdfrwt beam="1">  1        2 0.54160343E+00 0.20300957E+04</pdfrwt>
<pdfrwt beam="2">  1       -2 0.45026159E-01 0.20300957E+04</pdfrwt>
<totfact> 0.34286660E+00</totfact>
</mgrwt>
</event>
<event>
 6    1  0.1817112E-005  0.5595436E+03  0.7818608E-02  0.9993088E-01
         -2   -1    0    0    0  501 -0.00000000000E+00  0.00000000000E+00  0.12921063523E+03  0.12921063523E+03  0.00000000000E+00 0. -1.
          2   -1    0    0  501    0  0.00000000000E+00 -0.00000000000E+00 -0.60577263069E+03  0.60577263069E+03  0.00000000000E+00 0.  1.
         23    2    1    2    0    0  0.11606891342E+03  0.14228828959E+03  0.19496201892E+02  0.20602987935E+03  0.91379753107E+02 0.  0.
         13    1    3    3    0    0  0.70192823221E+02  0.77216979013E+02 -0.34410551106E+02  0.10987984486E+03  0.00000000000E+00 0. -1.
        -13    1    3    3    0    0  0.45876090198E+02  0.65071310578E+02  0.53906752999E+02  0.96150034483E+02  0.00000000000E+00 0.  1.
         22    1    1    2    0    0 -0.11606891342E+03 -0.14228828959E+03 -0.49605819735E+03  0.52895338658E+03  0.00000000000E+00 0.  1.
<mgrwt>
<rscale>  0 0.55954362E+03</rscale>
<asrwt>0</asrwt>
<pdfrwt beam="1">  1        2 0.93195791E-01 0.55954362E+03</pdfrwt>
<pdfrwt beam="2">  1       -2 0.19878559E-01 0.55954362E+03</pdfrwt>
<totfact> 0.10607017E+03</totfact>
</mgrwt>
</event>
<event>
 6    1  0.1817112E-005  0.1909655E+04  0.7818608E-02  0.8650066E-01
          2   -1    0    0  501    0  0.00000000000E+00  0.00000000000E+00  0.13457919112E+04  0.13457919112E+04  0.00000000000E+00 0.  1.
         -2   -1    0    0    0  501 -0.00000000000E+00 -0.00000000000E+00 -0.67744138984E+03  0.67744138984E+03  0.00000000000E+00 0. -1.
         23    2    1    2    0    0 -0.35803485289E+03 -0.48004543612E+03  0.11207237031E+04  0.12727174303E+04  0.71801547728E+02 0.  0.
         11    1    3    3    0    0 -0.13122457270E+03 -0.18619138854E+03  0.35559978939E+03  0.42230123356E+03  0.00000000000E+00 0. -1.
        -11    1    3    3    0    0 -0.22681028019E+03 -0.29385404758E+03  0.76512391368E+03  0.85041619679E+03  0.00000000000E+00 0.  1.
         22    1    1    2    0    0  0.35803485289E+03  0.48004543612E+03 -0.45237318171E+03  0.75051587069E+03  0.00000000000E+00 0. -1.
<mgrwt>
<rscale>  0 0.19096546E+04</rscale>
<asrwt>0</asrwt>
<pdfrwt beam="1">  1        2 0.20704491E+00 0.19096546E+04</pdfrwt>
<pdfrwt beam="2">  1       -2 0.10422175E+00 0.19096546E+04</pdfrwt>
<totfact> 0.10890861E+01</totfact>
</mgrwt>
</event>
<event>
 6    1  0.1817112E-005  0.1386089E+04  0.7818608E-02  0.8963950E-01
          1   -1    0    0  501    0  0.00000000000E+00  0.00000000000E+00  0.11610984648E+04  0.11610984648E+04  0.00000000000E+00 0. -1.
         -1   -1    0    0    0  501 -0.00000000000E+00 -0.00000000000E+00 -0.41366895195E+03  0.41366895195E+03  0.00000000000E+00 0.  1.
         23    2    1    2    0    0 -0.21624363749E+03  0.36306540683E+03 -0.24394331304E+03  0.49708570107E+03  0.94910767780E+02 0.  0.
         13    1    3    3    0    0 -0.64777337245E+02  0.68776750403E+02 -0.17578262587E+02  0.96100677064E+02  0.00000000000E+00 0. -1.
        -13    1    3    3    0    0 -0.15146630025E+03  0.29428865643E+03 -0.22636505045E+03  0.40098502401E+03  0.00000000000E+00 0.  1.
         22    1    1    2    0    0  0.21624363749E+03 -0.36306540683E+03  0.99137282589E+03  0.10776817157E+04  0.00000000000E+00 0. -1.
<mgrwt>
<rscale>  0 0.13860886E+04</rscale>
<asrwt>0</asrwt>
<pdfrwt beam="1">  1        1 0.17863053E+00 0.13860886E+04</pdfrwt>
<pdfrwt beam="2">  1       -1 0.63641378E-01 0.13860886E+04</pdfrwt>
<totfact> 0.27898728E+01</totfact>
</mgrwt>
</event>
<event>
 6    1  0.1817112E-005  0.2951060E+04  0.7818608E-02  0.8257846E-01
         -2   -1    0    0    0  501 -0.00000000000E+00  0.00000000000E+00  0.10874275821E+04  0.10874275821E+04  0.00000000000E+00 0.  1.
          2   -1    0    0  501    0  0.00000000000E+00 -0.00000000000E+00 -0.20021453791E+04  0.20021453791E+04  0.00000000000E+00 0. -1.
         23    2    1    2    0    0  0.16486434971E+03 -0.13051628263E+04  0.23850837181E+03  0.13401270908E+04  0.91782999928E+02 0.  0.
         13    1    3    3    0    0  0.92029894870E+02 -0.61833989783E+03  0.15775478871E+03  0.64474824867E+03  0.00000000000E+00 0. -1.
        -13    1    3    3    0    0  0.72834454836E+02 -0.68682292846E+03  0.80753583099E+02  0.69537884211E+03  0.00000000000E+00 0.  1.
         22    1    1    2    0    0 -0.16486434971E+03  0.13051628263E+04 -0.11532261688E+04  0.17494458704E+04  0.00000000000E+00 0. -1.
<mgrwt>
<rscale>  0 0.29510595E+04</rscale>
<asrwt>0</asrwt>
<pdfrwt beam="1">  1        2 0.30802236E+00 0.29510595E+04</pdfrwt>
<pdfrwt beam="2">  1       -2 0.16729655E+00 0.29510595E+04</pdfrwt>
<totfact> 0.12762008E+00</totfact>
</mgrwt>
</event>
<event>
 6    1  0.1817112E-005  0.4993979E+04  0.7818608E-02  0.7829437E-01
         -2   -1    0    0    0  501 -0.00000000000E+00  0.00000000000E+00  0.17164714759E+04  0.17164714759E+04  0.00000000000E+00 0. -1.
          2   -1    0    0  501    0  0.00000000000E+00 -0.00000000000E+00 -0.36324270775E+04  0.36324270775E+04  0.00000000000E+00 0.  1.
         23    2    1    2    0    0  0.15890580732E+03 -0.32017250710E+03 -0.36043732719E+04  0.36230608672E+04  0.85451002876E+02 0.  0.
         11    1    3    3    0    0  0.95638145199E+02 -0.27097156420E+03 -0.28286642454E+04  0.28432224072E+04  0.00000000000E+00 0.  1.
        -11    1    3    3    0    0  0.63267662125E+02 -0.49200942901E+02 -0.77570902652E+03  0.77983845999E+03  0.00000000000E+00 0. -1.
         22    1    1    2    0    0 -0.15890580732E+03  0.32017250710E+03  0.16884176703E+04  0.17258376863E+04  0.00000000000E+00 0. -1.
<mgrwt>
<rscale>  0 0.49939794E+04</rscale>
<asrwt>0</asrwt>
<pdfrwt beam="1">  1        2 0.55883493E+00 0.49939794E+04</pdfrwt>
<pdfrwt beam="2">  1       -2 0.26407254E+00 0.49939794E+04</pdfrwt>
<totfact> 0.25037337E-02</totfact>
</mgrwt>
</event>
<event>
 6    1  0.1817112E-005  0.2106844E+04  0.7818608E-02  0.8558234E-01
          2   -1    0    0  501    0  0.00000000000E+00  0.00000000000E+00  0.68651241139E+03  0.68651241139E+03  0.00000000000E+00 0. -1.
         -2   -1    0    0    0  501 -0.00000000000E+00 -0.00000000000E+00 -0.16164283566E+04  0.16164283566E+04  0.00000000000E+00 0.  1.
         23    2    1    2    0    0 -0.28517460042E+03  0.73686824464E+03  0.29248200588E+03  0.84741470725E+03  0.90920842585E+02 0.  0.
         13    1    3    3    0    0 -0.10693803463E+03  0.23718981122E+03  0.13981582991E+03  0.29536962622E+03  0.00000000000E+00 0. -1.
        -13    1    3    3    0    0 -0.17823656580E+03  0.49967843341E+03  0.15266617597E+03  0.55204508103E+03  0.00000000000E+00 0.  1.
         22    1    1    2    0    0  0.28517460042E+03 -0.73686824464E+03 -0.12223979511E+04  0.14555260608E+04  0.00000000000E+00 0.  1.
<mgrwt>
<rscale>  0 0.21068442E+04</rscale>
<asrwt>0</asrwt>
<pdfrwt beam="1">  1        2 0.10561729E+00 0.21068442E+04</pdfrwt>
<pdfrwt beam="2">  1       -2 0.24868129E+00 0.21068442E+04</pdfrwt>
<totfact> 0.25318483E+00</totfact>
</mgrwt>
</event>
<event>
 6    1  0.1817112E-005  0.4581126E+03  0.7818608E-02  0.1025330E+00
         -2   -1    0    0    0  501 -0.00000000000E+00  0.00000000000E+00  0.35763786902E+02  0.35763786902E+02  0.00000000000E+00 0.  1.
          2   -1    0    0  501    0  0.00000000000E+00 -0.00000000000E+00 -0.14670369738E+04  0.14670369738E+04  0.00000000000E+00 0. -1.
         23    2    1    2    0    0  0.85746822123E+02 -0.15708536716E+03 -0.11648746912E+04  0.11818701006E+04  0.88631588078E+02 0.  0.
         13    1    3    3    0    0  0.89174222390E+02 -0.77485485107E+02 -0.61374041120E+03  0.62500666771E+03  0.00000000000E+00 0. -1.
        -13    1    3    3    0    0 -0.34274002672E+01 -0.79599882056E+02 -0.55113428002E+03  0.55686343290E+03  0.00000000000E+00 0.  1.
         22    1    1    2    0    0 -0.85746822123E+02  0.15708536716E+03 -0.26639849565E+03  0.32093066006E+03  0.00000000000E+00 0.  1.
<mgrwt>
<rscale>  0 0.45811264E+03</rscale>
<asrwt>0</asrwt>
<pdfrwt beam="1">  1        2 0.22569792E+00 0.45811264E+03</pdfrwt>
<pdfrwt beam="2">  1       -2 0.55021229E-02 0.45811264E+03</pdfrwt>
<totfact> 0.23973272E+03</totfact>
</mgrwt>
</event>
<event>
 6    1  0.1817112E-005  0.7652036E+03  0.7818608E-02  0.9611796E-01
          2   -1    0    0  501    0  0.00000000000E+00  0.00000000000E+00  0.82177488632E+03  0.82177488632E+03  0.00000000000E+00 0. -1.
         -2   -1    0    0    0  501 -0.00000000000E+00 -0.00000000000E+00 -0.17813168445E+03  0.17813168445E+03  0.00000000000E+00 0.  1.
         23    2    1    2    0    0 -0.55208146164E+02 -0.36859831254E+03  0.24683149833E+03  0.45550581446E+03  0.87447715966E+02 0.  0.
         11    1    3    3    0    0  0.70237288744E+01 -0.11106108003E+03  0.36167499108E+02  0.11701275254E+03  0.00000000000E+00 0.  1.
        -11    1    3    3    0    0 -0.62231875038E+02 -0.25753723250E+03  0.21066399922E+03  0.33849306192E+03  0.00000000000E+00 0. -1.
         22    1    1    2    0    0  0.55208146164E+02  0.36859831254E+03  0.39681170354E+03  0.54440075631E+03  0.00000000000E+00 0. -1.
<mgrwt>
<rscale>  0 0.76520362E+03</rscale>
<asrwt>0</asrwt>
<pdfrwt beam="1">  1        2 0.12642690E+00 0.76520362E+03</pdfrwt>
<pdfrwt beam="2">  1       -2 0.27404875E-01 0.76520362E+03</pdfrwt>
<totfact> 0.40488073E+02</totfact>
</mgrwt>
</event>
<event>
 6    1  0.1817112E-005  0.2810593E+04  0.7818608E-02  0.8299987E-01
          4   -1    0    0  501    0  0.00000000000E+00  0.00000000000E+00  0.16628512901E+04  0.16628512901E+04  0.00000000000E+00 0.  1.
         -4   -1    0    0    0  501 -0.00000000000E+00 -0.00000000000E+00 -0.11876333345E+04  0.11876333345E+04  0.00000000000E+00 0. -1.
         23    2    1    2    0    0 -0.84432093174E+03  0.44363579966E+03 -0.80696877227E+03  0.12524566637E+04  0.88082555203E+02 0.  0.
         11    1    3    3    0    0 -0.11398173845E+03  0.94446750703E+02 -0.13596211175E+03  0.20099184374E+03  0.00000000000E+00 0. -1.
        -11    1    3    3    0    0 -0.73033919329E+03  0.34918904895E+03 -0.67100666052E+03  0.10514648200E+04  0.00000000000E+00 0.  1.
         22    1    1    2    0    0  0.84432093174E+03 -0.44363579966E+03  0.12821867279E+04  0.15980279609E+04  0.00000000000E+00 0.  1.
<mgrwt>
<rscale>  0 0.28105926E+04</rscale>
<asrwt>0</asrwt>
<pdfrwt beam="1">  1        4 0.25582328E+00 0.28105926E+04</pdfrwt>
<pdfrwt beam="2">  1       -4 0.18271282E+00 0.28105926E+04</pdfrwt>
<totfact> 0.17292344E-02</totfact>
</mgrwt>
</event>
<event>
 6    1  0.1817112E-005  0.2725133E+04  0.7818608E-02  0.8326896E-01
         -2   -1    0    0    0  501 -0.00000000000E+00  0.00000000000E+00  0.88594535697E+03  0.88594535697E+03  0.00000000000E+00 0.  1.
          2   -1    0    0  501    0  0.00000000000E+00 -0.00000000000E+00 -0.20956005030E+04  0.20956005030E+04  0.00000000000E+00 0. -1.
         23    2    1    2    0    0 -0.72729463277E+03  0.11499259620E+04 -0.64952959530E+03  0.15101425049E+04  0.85758317094E+02 0.  0.
         11    1    3    3    0    0 -0.13280364047E+02  0.18906950746E+02  0.28195861428E+00  0.23106716694E+02  0.00000000000E+00 0. -1.
        -11    1    3    3    0    0 -0.71401426872E+03  0.11310190112E+04 -0.64981155391E+03  0.14870357882E+04  0.00000000000E+00 0.  1.
         22    1    1    2    0    0  0.72729463277E+03 -0.11499259620E+04 -0.56012555070E+03  0.14714033551E+04  0.00000000000E+00 0. -1.
<mgrwt>
<rscale>  0 0.27251331E+04</rscale>
<asrwt>0</asrwt>
<pdfrwt beam="1">  1        2 0.32240007E+00 0.27251331E+04</pdfrwt>
<pdfrwt beam="2">  1       -2 0.13629929E+00 0.27251331E+04</pdfrwt>
<totfact> 0.19915814E+00</totfact>
</mgrwt>
</event>
<event>
 6    1  0.1817112E-005  0.2088266E+04  0.7818608E-02  0.8566430E-01
         -2   -1    0    0    0  501 -0.00000000000E+00  0.00000000000E+00  0.27238967146E+03  0.27238967146E+03  0.00000000000E+00 0.  1.
          2   -1    0    0  501    0  0.00000000000E+00 -0.00000000000E+00 -0.40024043784E+04  0.40024043784E+04  0.00000000000E+00 0. -1.
         23    2    1    2    0    0  0.10296389158E+04  0.16285231685E+03 -0.19008186954E+04  0.21694116090E+04  0.80980505266E+02 0.  0.
         13    1    3    3    0    0  0.84377154576E+03  0.10980043713E+03 -0.15910151482E+04  0.18042549042E+04  0.00000000000E+00 0.  1.
        -13    1    3    3    0    0  0.18586737000E+03  0.53051879728E+02 -0.30980354722E+03  0.36515670477E+03  0.00000000000E+00 0. -1.
         22    1    1    2    0    0 -0.10296389158E+04 -0.16285231685E+03 -0.18291960115E+04  0.21053824409E+04  0.00000000000E+00 0.  1.
<mgrwt>
<rscale>  0 0.20882659E+04</rscale>
<asrwt>0</asrwt>
<pdfrwt beam="1">  1        2 0.61575447E+00 0.20882659E+04</pdfrwt>
<pdfrwt beam="2">  1       -2 0.41906106E-01 0.20882659E+04</pdfrwt>
<totfact> 0.17107385E+00</totfact>
</mgrwt>
</event>
<event>
 6    1  0.2062858E-005  0.3080093E+04  0.7818608E-02  0.8221222E-01
         -2   -1    0    0    0  501 -0.00000000000E+00  0.00000000000E+00  0.17379891590E+04  0.17379891590E+04  0.00000000000E+00 0.  1.
          2   -1    0    0  501    0  0.00000000000E+00 -0.00000000000E+00 -0.13646480922E+04  0.13646480922E+04  0.00000000000E+00 0. -1.
         23    2    1    2    0    0  0.51899439792E+03  0.38119634930E+03  0.15944927118E+04  0.17221021442E+04  0.92536183769E+02 0.  0.
         13    1    3    3    0    0  0.98554474401E+02  0.31624681489E+02  0.27256141651E+03  0.29155244927E+03  0.00000000000E+00 0.  1.
        -13    1    3    3    0    0  0.42043992352E+03  0.34957166781E+03  0.13219312953E+04  0.14305496949E+04  0.00000000000E+00 0. -1.
         22    1    1    2    0    0 -0.51899439792E+03 -0.38119634930E+03 -0.12211516450E+04  0.13805351070E+04  0.00000000000E+00 0. -1.
<mgrwt>
<rscale>  0 0.30800932E+04</rscale>
<asrwt>0</asrwt>
<pdfrwt beam="1">  1        2 0.20994586E+00 0.30800932E+04</pdfrwt>
<pdfrwt beam="2">  1       -2 0.26738295E+00 0.30800932E+04</pdfrwt>
<totfact> 0.64843133E-01</totfact>
</mgrwt>
</event>
<event>
 6    1  0.1817112E-005  0.3125962E+04  0.7818608E-02  0.8208649E-01
         -2   -1    0    0    0  501 -0.00000000000E+00  0.00000000000E+00  0.73608710752E+03  0.73608710752E+03  0.00000000000E+00 0.  1.
          2   -1    0    0  501    0  0.00000000000E+00 -0.00000000000E+00 -0.33187779742E+04  0.33187779742E+04  0.00000000000E+00 0. -1.
         23    2    1    2    0    0  0.10921109818E+04  0.10067097148E+04 -0.19180181349E+04  0.24276095128E+04  0.91233406059E+02 0.  0.
         13    1    3    3    0    0  0.73086830824E+02  0.39137732148E+02 -0.10827932158E+03  0.13637396526E+03  0.00000000000E+00 0. -1.
        -13    1    3    3    0    0  0.10190241509E+04  0.96757198267E+03 -0.18097388133E+04  0.22912355475E+04  0.00000000000E+00 0.  1.
         22    1    1    2    0    0 -0.10921109818E+04 -0.10067097148E+04 -0.66467273186E+03  0.16272555690E+04  0.00000000000E+00 0. -1.
<mgrwt>
<rscale>  0 0.31259620E+04</rscale>
<asrwt>0</asrwt>
<pdfrwt beam="1">  1        2 0.51058122E+00 0.31259620E+04</pdfrwt>
<pdfrwt beam="2">  1       -2 0.11324417E+00 0.31259620E+04</pdfrwt>
<totfact> 0.56069380E-01</totfact>
</mgrwt>
</event>
<event>
 6    1  0.1817112E-005  0.1840138E+04  0.7818608E-02  0.8685241E-01
          2   -1    0    0  501    0  0.00000000000E+00  0.00000000000E+00  0.75037387398E+03  0.75037387398E+03  0.00000000000E+00 0. -1.
         -2   -1    0    0    0  501 -0.00000000000E+00 -0.00000000000E+00 -0.11281396965E+04  0.11281396965E+04  0.00000000000E+00 0.  1.
         23    2    1    2    0    0 -0.53495451372E+03 -0.72025668929E+03  0.75298054211E+01  0.90209217010E+03  0.93635224022E+02 0.  0.
         11    1    3    3    0    0 -0.25636785772E+03 -0.28427110131E+03  0.31914445065E+02  0.38412637154E+03  0.00000000000E+00 0.  1.
        -11    1    3    3    0    0 -0.27858665600E+03 -0.43598558798E+03 -0.24384639644E+02  0.51796579856E+03  0.00000000000E+00 0. -1.
         22    1    1    2    0    0  0.53495451372E+03  0.72025668929E+03 -0.38529562795E+03  0.97642140039E+03  0.00000000000E+00 0.  1.
<mgrwt>
<rscale>  0 0.18401376E+04</rscale>
<asrwt>0</asrwt>
<pdfrwt beam="1">  1        2 0.11544213E+00 0.18401376E+04</pdfrwt>
<pdfrwt beam="2">  1       -2 0.17355995E+00 0.18401376E+04</pdfrwt>
<totfact> 0.70884971E+00</totfact>
</mgrwt>
</event>
<event>
 6    1  0.1817112E-005  0.5275162E+04  0.7818608E-02  0.7787408E-01
         -2   -1    0    0    0  501 -0.00000000000E+00  0.00000000000E+00  0.16340191352E+04  0.16340191352E+04  0.00000000000E+00 0.  1.
          2   -1    0    0  501    0  0.00000000000E+00 -0.00000000000E+00 -0.42574987327E+04  0.42574987327E+04  0.00000000000E+00 0. -1.
         23    2    1    2    0    0  0.11445831545E+04  0.22085330418E+04 -0.33539499721E+03  0.25117220261E+04  0.92568557572E+02 0.  0.
         11    1    3    3    0    0  0.84303643911E+03  0.15700001374E+04 -0.27302393204E+03  0.18028180542E+04  0.00000000000E+00 0. -1.
        -11    1    3    3    0    0  0.30154671536E+03  0.63853290448E+03 -0.62371065172E+02  0.70890397193E+03  0.00000000000E+00 0.  1.
         22    1    1    2    0    0 -0.11445831545E+04 -0.22085330418E+04 -0.22880846002E+04  0.33797958418E+04  0.00000000000E+00 0. -1.
<mgrwt>
<rscale>  0 0.52751623E+04</rscale>
<asrwt>0</asrwt>
<pdfrwt beam="1">  1        2 0.65499980E+00 0.52751623E+04</pdfrwt>
<pdfrwt beam="2">  1       -2 0.25138756E+00 0.52751623E+04</pdfrwt>
<totfact> 0.92246838E-03</totfact>
</mgrwt>
</event>
<event>
 6    1  0.1817112E-005  0.2480799E+04  0.7818608E-02  0.8409858E-01
          2   -1    0    0  501    0  0.00000000000E+00  0.00000000000E+00  0.24472337823E+04  0.24472337823E+04  0.00000000000E+00 0. -1.
         -2   -1    0    0    0  501 -0.00000000000E+00 -0.00000000000E+00 -0.62870612029E+03  0.62870612029E+03  0.00000000000E+00 0.  1.
         23    2    1    2    0    0 -0.15830879801E+03  0.97786126059E+03  0.18326876569E+04  0.20852457893E+04  0.90728352163E+02 0.  0.
         11    1    3    3    0    0  0.63074395772E+01  0.15600891866E+03  0.31054200033E+03  0.34758437891E+03  0.00000000000E+00 0.  1.
        -11    1    3    3    0    0 -0.16461623759E+03  0.82185234192E+03  0.15221456565E+04  0.17376614104E+04  0.00000000000E+00 0. -1.
         22    1    1    2    0    0  0.15830879801E+03 -0.97786126059E+03 -0.14159994892E+02  0.99069411320E+03  0.00000000000E+00 0.  1.
<mgrwt>
<rscale>  0 0.24807989E+04</rscale>
<asrwt>0</asrwt>
<pdfrwt beam="1">  1        2 0.37649750E+00 0.24807989E+04</pdfrwt>
<pdfrwt beam="2">  1       -2 0.96724020E-01 0.24807989E+04</pdfrwt>
<totfact> 0.29803106E+00</totfact>
</mgrwt>
</event>
<event>
 6    1  0.1817112E-005  0.6536816E+04  0.7818608E-02  0.7627186E-01
         -1   -1    0    0    0  501 -0.00000000000E+00  0.00000000000E+00  0.32439535299E+04  0.32439535299E+04  0.00000000000E+00 0.  1.
          1   -1    0    0  501    0  0.00000000000E+00 -0.00000000000E+00 -0.32930471303E+04  0.32930471303E+04  0.00000000000E+00 0. -1.
         23    2    1    2    0    0  0.60445759359E+03  0.17428639965E+04  0.26728548085E+04  0.32488481342E+04  0.88980218088E+02 0.  0.
         11    1    3    3    0    0  0.37286244888E+03  0.11545204645E+04  0.16980134693E+04  0.20869100725E+04  0.00000000000E+00 0.  1.
        -11    1    3    3    0    0  0.23159514471E+03  0.58834353200E+03  0.97484133923E+03  0.11619380618E+04  0.00000000000E+00 0. -1.
         22    1    1    2    0    0 -0.60445759359E+03 -0.17428639965E+04 -0.27219484089E+04  0.32881525259E+04  0.00000000000E+00 0. -1.
<mgrwt>
<rscale>  0 0.65368163E+04</rscale>
<asrwt>0</asrwt>
<pdfrwt beam="1">  1        1 0.50662264E+00 0.65368163E+04</pdfrwt>
<pdfrwt beam="2">  1       -1 0.49906977E+00 0.65368163E+04</pdfrwt>
<totfact> 0.35437597E-04</totfact>
</mgrwt>
</event>
<event>
 6    1  0.1817112E-005  0.1188648E+04  0.7818608E-02  0.9122851E-01
         -2   -1    0    0    0  501 -0.00000000000E+00  0.00000000000E+00  0.41097497611E+03  0.41097497611E+03  0.00000000000E+00 0. -1.
          2   -1    0    0  501    0  0.00000000000E+00 -0.00000000000E+00 -0.85947082618E+03  0.85947082618E+03  0.00000000000E+00 0.  1.
         23    2    1    2    0    0 -0.35021958104E+03  0.81184571921E+02 -0.72667344070E+03  0.81588286761E+03  0.91465155061E+02 0.  0.
         11    1    3    3    0    0 -0.14966147053E+03  0.13763935408E+02 -0.39323822266E+03  0.42098016751E+03  0.00000000000E+00 0.  1.
        -11    1    3    3    0    0 -0.20055811051E+03  0.67420636512E+02 -0.33343521804E+03  0.39490270010E+03  0.00000000000E+00 0. -1.
         22    1    1    2    0    0  0.35021958104E+03 -0.81184571921E+02  0.27817759062E+03  0.45456293468E+03  0.00000000000E+00 0. -1.
<mgrwt>
<rscale>  0 0.11886480E+04</rscale>
<asrwt>0</asrwt>
<pdfrwt beam="1">  1        2 0.13222628E+00 0.11886480E+04</pdfrwt>
<pdfrwt beam="2">  1       -2 0.63226921E-01 0.11886480E+04</pdfrwt>
<totfact> 0.71533931E+01</totfact>
</mgrwt>
</event>
<event>
 6    1  0.1817112E-005  0.2272872E+04  0.7818608E-02  0.8488695E-01
          2   -1    0    0  501    0  0.00000000000E+00  0.00000000000E+00  0.22144348561E+04  0.22144348561E+04  0.00000000000E+00 0.  1.
         -2   -1    0    0    0  501 -0.00000000000E+00 -0.00000000000E+00 -0.58321262392E+03  0.58321262392E+03  0.00000000000E+00 0. -1.
         23    2    1    2    0    0  0.86647415278E+03  0.57810971300E+03  0.26330886316E+03  0.10782943218E+04  0.91644908372E+02 0.  0.
         11    1    3    3    0    0  0.29520415362E+03  0.23416002805E+03  0.62928031258E+02  0.38201616218E+03  0.00000000000E+00 0.  1.
        -11    1    3    3    0    0  0.57126999916E+03  0.34394968495E+03  0.20038083191E+03  0.69627815958E+03  0.00000000000E+00 0. -1.
         22    1    1    2    0    0 -0.86647415278E+03 -0.57810971300E+03  0.13679133690E+04  0.17193531583E+04  0.00000000000E+00 0.  1.
<mgrwt>
<rscale>  0 0.22728716E+04</rscale>
<asrwt>0</asrwt>
<pdfrwt beam="1">  1        2 0.34068228E+00 0.22728716E+04</pdfrwt>
<pdfrwt beam="2">  1       -2 0.89725021E-01 0.22728716E+04</pdfrwt>
<totfact> 0.49003953E+00</totfact>
</mgrwt>
</event>
<event>
 6    1  0.1817112E-005  0.3041525E+04  0.7818608E-02  0.8231972E-01
         -2   -1    0    0    0  501 -0.00000000000E+00  0.00000000000E+00  0.10089902611E+04  0.10089902611E+04  0.00000000000E+00 0.  1.
          2   -1    0    0  501    0  0.00000000000E+00 -0.00000000000E+00 -0.22921123368E+04  0.22921123368E+04  0.00000000000E+00 0. -1.
         23    2    1    2    0    0 -0.92780357079E+03  0.68307131021E+02 -0.19459570046E+04  0.21588086459E+04  0.90668493417E+02 0.  0.
         11    1    3    3    0    0 -0.24359649093E+03 -0.20873560976E+02 -0.53080259219E+03  0.58440255631E+03  0.00000000000E+00 0. -1.
        -11    1    3    3    0    0 -0.68420707986E+03  0.89180691997E+02 -0.14151544124E+04  0.15744060896E+04  0.00000000000E+00 0.  1.
         22    1    1    2    0    0  0.92780357079E+03 -0.68307131021E+02  0.66283492886E+03  0.11422939521E+04  0.00000000000E+00 0.  1.
<mgrwt>
<rscale>  0 0.30415253E+04</rscale>
<asrwt>0</asrwt>
<pdfrwt beam="1">  1        2 0.35263266E+00 0.30415253E+04</pdfrwt>
<pdfrwt beam="2">  1       -2 0.15522927E+00 0.30415253E+04</pdfrwt>
<totfact> 0.10684351E+00</totfact>
</mgrwt>
</event>
<event>
 6    1  0.1817112E-005  0.4116949E+04  0.7818608E-02  0.7981361E-01
          1   -1    0    0  501    0  0.00000000000E+00  0.00000000000E+00  0.30892563775E+04  0.30892563775E+04  0.00000000000E+00 0. -1.
         -1   -1    0    0    0  501 -0.00000000000E+00 -0.00000000000E+00 -0.13716299913E+04  0.13716299913E+04  0.00000000000E+00 0.  1.
         23    2    1    2    0    0  0.14107872661E+04 -0.95173316259E+01  0.24809162488E+04  0.28568219361E+04  0.12678663639E+03 0.  0.
         13    1    3    3    0    0  0.33543724981E+03 -0.32586604439E+02  0.50516447857E+03  0.60726533390E+03  0.00000000000E+00 0.  1.
        -13    1    3    3    0    0  0.10753500163E+04  0.23069272813E+02  0.19757517702E+04  0.22495566022E+04  0.00000000000E+00 0. -1.
         22    1    1    2    0    0 -0.14107872661E+04  0.95173316259E+01 -0.76328986265E+03  0.16040644327E+04  0.00000000000E+00 0.  1.
<mgrwt>
<rscale>  0 0.41169487E+04</rscale>
<asrwt>0</asrwt>
<pdfrwt beam="1">  1        1 0.47527021E+00 0.41169487E+04</pdfrwt>
<pdfrwt beam="2">  1       -1 0.21102000E+00 0.41169487E+04</pdfrwt>
<totfact> 0.50382964E-02</totfact>
</mgrwt>
</event>
<event>
 6    1  0.1817112E-005  0.3400713E+04  0.7818608E-02  0.8137731E-01
         -1   -1    0    0    0  501 -0.00000000000E+00  0.00000000000E+00  0.12829898631E+04  0.12829898631E+04  0.00000000000E+00 0.  1.
          1   -1    0    0  501    0  0.00000000000E+00 -0.00000000000E+00 -0.22534955373E+04  0.22534955373E+04  0.00000000000E+00 0. -1.
         23    2    1    2    0    0  0.14786723436E+04  0.59233827205E+03 -0.11004933693E+04  0.19382885010E+04  0.92412819111E+02 0.  0.
         13    1    3    3    0    0  0.16541291885E+03  0.84094340765E+02 -0.99198256251E+02  0.21041289389E+03  0.00000000000E+00 0.  1.
        -13    1    3    3    0    0  0.13132594247E+04  0.50824393129E+03 -0.10012951130E+04  0.17278756071E+04  0.00000000000E+00 0. -1.
         22    1    1    2    0    0 -0.14786723436E+04 -0.59233827205E+03  0.12998769505E+03  0.15981968993E+04  0.00000000000E+00 0.  1.
<mgrwt>
<rscale>  0 0.34007128E+04</rscale>
<asrwt>0</asrwt>
<pdfrwt beam="1">  1        1 0.34669162E+00 0.34007128E+04</pdfrwt>
<pdfrwt beam="2">  1       -1 0.19738306E+00 0.34007128E+04</pdfrwt>
<totfact> 0.25851752E-01</totfact>
</mgrwt>
</event>
<event>
 6    1  0.1817112E-005  0.8946925E+03  0.7818608E-02  0.9432240E-01
          1   -1    0    0  501    0  0.00000000000E+00  0.00000000000E+00  0.38208506957E+03  0.38208506957E+03  0.00000000000E+00 0. -1.
         -1   -1    0    0    0  501 -0.00000000000E+00 -0.00000000000E+00 -0.52375423990E+03  0.52375423990E+03  0.00000000000E+00 0.  1.
         23    2    1    2    0    0 -0.29846647625E+03 -0.29711034573E+03 -0.20581017314E+03  0.47984533859E+03  0.10264953291E+03 0.  0.
         11    1    3    3    0    0 -0.13339055374E+03 -0.20288866237E+03 -0.12776206118E+03  0.27437199825E+03  0.00000000000E+00 0. -1.
        -11    1    3    3    0    0 -0.16507592251E+03 -0.94221683361E+02 -0.78048111954E+02  0.20547334033E+03  0.00000000000E+00 0.  1.
         22    1    1    2    0    0  0.29846647625E+03  0.29711034573E+03  0.64141002805E+02  0.42599397088E+03  0.00000000000E+00 0. -1.
<mgrwt>
<rscale>  0 0.89469252E+03</rscale>
<asrwt>0</asrwt>
<pdfrwt beam="1">  1        1 0.58782319E-01 0.89469252E+03</pdfrwt>
<pdfrwt beam="2">  1       -1 0.80577575E-01 0.89469252E+03</pdfrwt>
<totfact> 0.98818647E+01</totfact>
</mgrwt>
</event>
<event>
 6    1  0.1817112E-005  0.9876890E+03  0.7818608E-02  0.9322151E-01
         -2   -1    0    0    0  501 -0.00000000000E+00  0.00000000000E+00  0.28966341076E+03  0.28966341076E+03  0.00000000000E+00 0.  1.
          2   -1    0    0  501    0  0.00000000000E+00 -0.00000000000E+00 -0.84195092516E+03  0.84195092516E+03  0.00000000000E+00 0. -1.
         23    2    1    2    0    0 -0.13967539822E+03 -0.55246332237E+01  0.25953619237E+03  0.30784405889E+03  0.88708460721E+02 0.  0.
         11    1    3    3    0    0 -0.56662325153E+02 -0.13727723045E+02  0.19156504212E+03  0.20024044255E+03  0.00000000000E+00 0. -1.
        -11    1    3    3    0    0 -0.83013073064E+02  0.82030898215E+01  0.67971150254E+02  0.10760361634E+03  0.00000000000E+00 0.  1.
         22    1    1    2    0    0  0.13967539822E+03  0.55246332237E+01 -0.81182370677E+03  0.82377027703E+03  0.00000000000E+00 0. -1.
<mgrwt>
<rscale>  0 0.98768897E+03</rscale>
<asrwt>0</asrwt>
<pdfrwt beam="1">  1        2 0.12953091E+00 0.98768897E+03</pdfrwt>
<pdfrwt beam="2">  1       -2 0.44563601E-01 0.98768897E+03</pdfrwt>
<totfact> 0.15333183E+02</totfact>
</mgrwt>
</event>
<event>
 6    1  0.1817112E-005  0.1023513E+04  0.7818608E-02  0.9283126E-01
         -2   -1    0    0    0  501 -0.00000000000E+00  0.00000000000E+00  0.23712303855E+03  0.23712303855E+03  0.00000000000E+00 0.  1.
          2   -1    0    0  501    0  0.00000000000E+00 -0.00000000000E+00 -0.11044674141E+04  0.11044674141E+04  0.00000000000E+00 0. -1.
         23    2    1    2    0    0  0.12281402832E+03 -0.31479357728E+03  0.59545749521E+02  0.35502895644E+03  0.91222704275E+02 0.  0.
         11    1    3    3    0    0  0.89082577471E+02 -0.10701406821E+03  0.17014065500E+02  0.14027542489E+03  0.00000000000E+00 0.  1.
        -11    1    3    3    0    0  0.33731450847E+02 -0.20777950908E+03  0.42531684021E+02  0.21475353155E+03  0.00000000000E+00 0. -1.
         22    1    1    2    0    0 -0.12281402832E+03  0.31479357728E+03 -0.92689012506E+03  0.98656149620E+03  0.00000000000E+00 0. -1.
<mgrwt>
<rscale>  0 0.10235129E+04</rscale>
<asrwt>0</asrwt>
<pdfrwt beam="1">  1        2 0.16991807E+00 0.10235129E+04</pdfrwt>
<pdfrwt beam="2">  1       -2 0.36480467E-01 0.10235129E+04</pdfrwt>
<totfact> 0.15253860E+02</totfact>
</mgrwt>
</event>
<event>
 6    1  0.1817112E-005  0.4421674E+04  0.7818608E-02  0.7924495E-01
         -2   -1    0    0    0  501 -0.00000000000E+00  0.00000000000E+00  0.16782871804E+04  0.16782871804E+04  0.00000000000E+00 0.  1.
          2   -1    0    0  501    0  0.00000000000E+00 -0.00000000000E+00 -0.29123743411E+04  0.29123743411E+04  0.00000000000E+00 0. -1.
         23    2    1    2    0    0  0.14705338933E+04  0.37030758763E+03 -0.22862308437E+04  0.27449627458E+04  0.91495158104E+02 0.  0.
         13    1    3    3    0    0  0.10325545147E+04  0.29924619785E+03 -0.16484215175E+04  0.19679965986E+04  0.00000000000E+00 0.  1.
        -13    1    3    3    0    0  0.43797937859E+03  0.71061389782E+02 -0.63780932629E+03  0.77696614719E+03  0.00000000000E+00 0. -1.
         22    1    1    2    0    0 -0.14705338933E+04 -0.37030758763E+03  0.10521436830E+04  0.18456987757E+04  0.00000000000E+00 0.  1.
<mgrwt>
<rscale>  0 0.44216741E+04</rscale>
<asrwt>0</asrwt>
<pdfrwt beam="1">  1        2 0.44805759E+00 0.44216741E+04</pdfrwt>
<pdfrwt beam="2">  1       -2 0.25819803E+00 0.44216741E+04</pdfrwt>
<totfact> 0.86110015E-02</totfact>
</mgrwt>
</event>
<event>
 6    1  0.1817112E-005  0.4794606E+04  0.7818608E-02  0.7860996E-01
         -1   -1    0    0    0  501 -0.00000000000E+00  0.00000000000E+00  0.21631619926E+04  0.21631619926E+04  0.00000000000E+00 0.  1.
          1   -1    0    0  501    0  0.00000000000E+00 -0.00000000000E+00 -0.26567877047E+04  0.26567877047E+04  0.00000000000E+00 0. -1.
         23    2    1    2    0    0  0.14161522057E+03 -0.23433689749E+04 -0.73056261457E+03  0.24603793722E+04  0.91169612744E+02 0.  0.
         13    1    3    3    0    0  0.11280873373E+03 -0.11310338577E+04 -0.34265339441E+03  0.11871709003E+04  0.00000000000E+00 0. -1.
        -13    1    3    3    0    0  0.28806486843E+02 -0.12123351171E+04 -0.38790922016E+03  0.12732084719E+04  0.00000000000E+00 0.  1.
         22    1    1    2    0    0 -0.14161522057E+03  0.23433689749E+04  0.23693690247E+03  0.23595703250E+04  0.00000000000E+00 0.  1.
<mgrwt>
<rscale>  0 0.47946062E+04</rscale>
<asrwt>0</asrwt>
<pdfrwt beam="1">  1        1 0.40873657E+00 0.47946062E+04</pdfrwt>
<pdfrwt beam="2">  1       -1 0.33279416E+00 0.47946062E+04</pdfrwt>
<totfact> 0.15590155E-02</totfact>
</mgrwt>
</event>
<event>
 6    1  0.1817112E-005  0.3388996E+04  0.7818608E-02  0.8140612E-01
          2   -1    0    0  501    0  0.00000000000E+00  0.00000000000E+00  0.29989172272E+04  0.29989172272E+04  0.00000000000E+00 0. -1.
         -2   -1    0    0    0  501 -0.00000000000E+00 -0.00000000000E+00 -0.95745356452E+03  0.95745356452E+03  0.00000000000E+00 0.  1.
         23    2    1    2    0    0  0.86329073543E+03 -0.10502679620E+04 -0.15683164587E+03  0.13716394808E+04  0.92005512590E+02 0.  0.
         13    1    3    3    0    0  0.34873553717E+03 -0.40030941571E+03 -0.18786851398E+02  0.53124104602E+03  0.00000000000E+00 0.  1.
        -13    1    3    3    0    0  0.51455519826E+03 -0.64995854629E+03 -0.13804479448E+03  0.84039843481E+03  0.00000000000E+00 0. -1.
         22    1    1    2    0    0 -0.86329073543E+03  0.10502679620E+04  0.21982953086E+04  0.25847313109E+04  0.00000000000E+00 0. -1.
<mgrwt>
<rscale>  0 0.33889963E+04</rscale>
<asrwt>0</asrwt>
<pdfrwt beam="1">  1        2 0.46137188E+00 0.33889963E+04</pdfrwt>
<pdfrwt beam="2">  1       -2 0.14730055E+00 0.33889963E+04</pdfrwt>
<totfact> 0.45424683E-01</totfact>
</mgrwt>
</event>
<event>
 6    1  0.1817112E-005  0.1042505E+04  0.7818608E-02  0.9263116E-01
          2   -1    0    0  501    0  0.00000000000E+00  0.00000000000E+00  0.18192892166E+04  0.18192892166E+04  0.00000000000E+00 0. -1.
         -2   -1    0    0    0  501 -0.00000000000E+00 -0.00000000000E+00 -0.14934635998E+03  0.14934635998E+03  0.00000000000E+00 0.  1.
         23    2    1    2    0    0 -0.46837680053E+03 -0.21185408044E+03  0.83241129983E+03  0.98592601252E+03  0.12199406304E+03 0.  0.
         11    1    3    3    0    0 -0.17109752582E+03 -0.19412512872E+02  0.23307473136E+03  0.28978447059E+03  0.00000000000E+00 0. -1.
        -11    1    3    3    0    0 -0.29727927471E+03 -0.19244156757E+03  0.59933656847E+03  0.69614154193E+03  0.00000000000E+00 0.  1.
         22    1    1    2    0    0  0.46837680053E+03  0.21185408044E+03  0.83753155682E+03  0.98270956408E+03  0.00000000000E+00 0. -1.
<mgrwt>
<rscale>  0 0.10425051E+04</rscale>
<asrwt>0</asrwt>
<pdfrwt beam="1">  1        2 0.27989063E+00 0.10425051E+04</pdfrwt>
<pdfrwt beam="2">  1       -2 0.22976364E-01 0.10425051E+04</pdfrwt>
<totfact> 0.14025366E+02</totfact>
</mgrwt>
</event>
<event>
 6    1  0.1817112E-005  0.1011169E+04  0.7818608E-02  0.9296379E-01
         -2   -1    0    0    0  501 -0.00000000000E+00  0.00000000000E+00  0.54404785462E+03  0.54404785462E+03  0.00000000000E+00 0.  1.
          2   -1    0    0  501    0  0.00000000000E+00 -0.00000000000E+00 -0.46984031082E+03  0.46984031082E+03  0.00000000000E+00 0. -1.
         23    2    1    2    0    0  0.54288203182E+02 -0.86673875584E+02  0.53063966544E+03  0.54613839111E+03  0.78924761625E+02 0.  0.
         13    1    3    3    0    0  0.25826265720E+02 -0.67848173253E+02  0.47748718906E+03  0.48297451934E+03  0.00000000000E+00 0.  1.
        -13    1    3    3    0    0  0.28461937461E+02 -0.18825702331E+02  0.53152476381E+02  0.63163871776E+02  0.00000000000E+00 0. -1.
         22    1    1    2    0    0 -0.54288203182E+02  0.86673875584E+02 -0.45643212164E+03  0.46774977432E+03  0.00000000000E+00 0. -1.
<mgrwt>
<rscale>  0 0.10111689E+04</rscale>
<asrwt>0</asrwt>
<pdfrwt beam="1">  1        2 0.72283125E-01 0.10111689E+04</pdfrwt>
<pdfrwt beam="2">  1       -2 0.83699670E-01 0.10111689E+04</pdfrwt>
<totfact> 0.82466603E+01</totfact>
</mgrwt>
</event>
<event>
 6    1  0.1817112E-005  0.5864642E+03  0.7818608E-02  0.9933893E-01
          2   -1    0    0  501    0  0.00000000000E+00  0.00000000000E+00  0.41667745703E+03  0.41667745703E+03  0.00000000000E+00 0. -1.
         -2   -1    0    0    0  501 -0.00000000000E+00 -0.00000000000E+00 -0.20635882074E+03  0.20635882074E+03  0.00000000000E+00 0.  1.
         23    2    1    2    0    0 -0.31698668025E+02 -0.28399836967E+03  0.94281037162E+02  0.31461350957E+03  0.91830642508E+02 0.  0.
         11    1    3    3    0    0  0.53826681825E+01 -0.24895448079E+03  0.74862622554E+02  0.26002253532E+03  0.00000000000E+00 0.  1.
        -11    1    3    3    0    0 -0.37081336208E+02 -0.35043888888E+02  0.19418414608E+02  0.54590974247E+02  0.00000000000E+00 0. -1.
         22    1    1    2    0    0  0.31698668025E+02  0.28399836967E+03  0.11603759912E+03  0.30842276820E+03  0.00000000000E+00 0. -1.
<mgrwt>
<rscale>  0 0.58646421E+03</rscale>
<asrwt>0</asrwt>
<pdfrwt beam="1">  1        2 0.64104224E-01 0.58646421E+03</pdfrwt>
<pdfrwt beam="2">  1       -2 0.31747511E-01 0.58646421E+03</pdfrwt>
<totfact> 0.70388551E+02</totfact>
</mgrwt>
</event>
<event>
 6    1  0.1817112E-005  0.8069740E+03  0.7818608E-02  0.9549977E-01
          2   -1    0    0  501    0  0.00000000000E+00  0.00000000000E+00  0.85439820900E+03  0.85439820900E+03  0.00000000000E+00 0. -1.
         -2   -1    0    0    0  501 -0.00000000000E+00 -0.00000000000E+00 -0.19054555096E+03  0.19054555096E+03  0.00000000000E+00 0.  1.
         23    2    1    2    0    0 -0.90755585308E+02  0.14893041129E+03 -0.12763377597E+03  0.23447005964E+03  0.90933956414E+02 0.  0.
         13    1    3    3    0    0 -0.51642798994E+02  0.61004421130E+02 -0.11104261623E+03  0.13681732604E+03  0.00000000000E+00 0.  1.
        -13    1    3    3    0    0 -0.39112786314E+02  0.87925990157E+02 -0.16591159740E+02  0.97652733602E+02  0.00000000000E+00 0. -1.
         22    1    1    2    0    0  0.90755585308E+02 -0.14893041129E+03  0.79148643402E+03  0.81047370032E+03  0.00000000000E+00 0. -1.
<mgrwt>
<rscale>  0 0.80697405E+03</rscale>
<asrwt>0</asrwt>
<pdfrwt beam="1">  1        2 0.13144588E+00 0.80697405E+03</pdfrwt>
<pdfrwt beam="2">  1       -2 0.29314700E-01 0.80697405E+03</pdfrwt>
<totfact> 0.33875593E+02</totfact>
</mgrwt>
</event>
<event>
 6    1  0.1817112E-005  0.2578457E+04  0.7818608E-02  0.8375556E-01
         -2   -1    0    0    0  501 -0.00000000000E+00  0.00000000000E+00  0.22205783850E+04  0.22205783850E+04  0.00000000000E+00 0.  1.
          2   -1    0    0  501    0  0.00000000000E+00 -0.00000000000E+00 -0.74850324103E+03  0.74850324103E+03  0.00000000000E+00 0. -1.
         23    2    1    2    0    0  0.45270598738E+03 -0.10562728056E+04  0.14057428887E+04  0.18179713277E+04  0.90839023352E+02 0.  0.
         13    1    3    3    0    0  0.24543953398E+03 -0.46792084707E+03  0.67406477507E+03  0.85647755660E+03  0.00000000000E+00 0.  1.
        -13    1    3    3    0    0  0.20726645341E+03 -0.58835195851E+03  0.73167811366E+03  0.96149377107E+03  0.00000000000E+00 0. -1.
         22    1    1    2    0    0 -0.45270598738E+03  0.10562728056E+04  0.66332255186E+02  0.11511102983E+04  0.00000000000E+00 0. -1.
<mgrwt>
<rscale>  0 0.25784570E+04</rscale>
<asrwt>0</asrwt>
<pdfrwt beam="1">  1        2 0.11515435E+00 0.25784570E+04</pdfrwt>
<pdfrwt beam="2">  1       -2 0.34162744E+00 0.25784570E+04</pdfrwt>
<totfact> 0.58533188E-01</totfact>
</mgrwt>
</event>
<event>
 6    1  0.1817112E-005  0.1884421E+04  0.7818608E-02  0.8662650E-01
         -2   -1    0    0    0  501 -0.00000000000E+00  0.00000000000E+00  0.13253449582E+04  0.13253449582E+04  0.00000000000E+00 0.  1.
          2   -1    0    0  501    0  0.00000000000E+00 -0.00000000000E+00 -0.66983347925E+03  0.66983347925E+03  0.00000000000E+00 0. -1.
         23    2    1    2    0    0 -0.82474518820E+03  0.17501710767E+03 -0.11210851462E+03  0.85496965484E+03  0.87001024233E+02 0.  0.
         13    1    3    3    0    0 -0.77180570153E+03  0.16759782601E+03 -0.83109718198E+02  0.79415382481E+03  0.00000000000E+00 0.  1.
        -13    1    3    3    0    0 -0.52939486670E+02  0.74192816572E+01 -0.28998796418E+02  0.60815830036E+02  0.00000000000E+00 0. -1.
         22    1    1    2    0    0  0.82474518820E+03 -0.17501710767E+03  0.76761999358E+03  0.11402087826E+04  0.00000000000E+00 0.  1.
<mgrwt>
<rscale>  0 0.18844208E+04</rscale>
<asrwt>0</asrwt>
<pdfrwt beam="1">  1        2 0.10305130E+00 0.18844208E+04</pdfrwt>
<pdfrwt beam="2">  1       -2 0.20389922E+00 0.18844208E+04</pdfrwt>
<totfact> 0.50898351E+00</totfact>
</mgrwt>
</event>
<event>
 6    1  0.1817112E-005  0.4336883E+04  0.7818608E-02  0.7939833E-01
         -2   -1    0    0    0  501 -0.00000000000E+00  0.00000000000E+00  0.27056065087E+04  0.27056065087E+04  0.00000000000E+00 0.  1.
          2   -1    0    0  501    0  0.00000000000E+00 -0.00000000000E+00 -0.17379242854E+04  0.17379242854E+04  0.00000000000E+00 0. -1.
         23    2    1    2    0    0 -0.98250190260E+03  0.55227089991E+03  0.23809791956E+04  0.26358467877E+04  0.91176878255E+02 0.  0.
         11    1    3    3    0    0 -0.81684116366E+03  0.46079878396E+03  0.20556569210E+04  0.22594889649E+04  0.00000000000E+00 0.  1.
        -11    1    3    3    0    0 -0.16566073894E+03  0.91472115951E+02  0.32532227460E+03  0.37635782279E+03  0.00000000000E+00 0. -1.
         22    1    1    2    0    0  0.98250190260E+03 -0.55227089991E+03 -0.14132969722E+04  0.18076840064E+04  0.00000000000E+00 0. -1.
<mgrwt>
<rscale>  0 0.43368833E+04</rscale>
<asrwt>0</asrwt>
<pdfrwt beam="1">  1        2 0.26737297E+00 0.43368833E+04</pdfrwt>
<pdfrwt beam="2">  1       -2 0.41624716E+00 0.43368833E+04</pdfrwt>
<totfact> 0.41636911E-02</totfact>
</mgrwt>
</event>
<event>
 6    1  0.1817112E-005  0.1042146E+04  0.7818608E-02  0.9263490E-01
          1   -1    0    0  501    0  0.00000000000E+00  0.00000000000E+00  0.76027930061E+03  0.76027930061E+03  0.00000000000E+00 0. -1.
         -1   -1    0    0    0  501 -0.00000000000E+00 -0.00000000000E+00 -0.35712810195E+03  0.35712810195E+03  0.00000000000E+00 0.  1.
         23    2    1    2    0    0 -0.40321658632E+03 -0.42420586007E+02 -0.14060800891E+03  0.43913223908E+03  0.93184707063E+02 0.  0.
         11    1    3    3    0    0 -0.18006570202E+03 -0.50493783021E+02 -0.10035350588E+03  0.21223596611E+03  0.00000000000E+00 0.  1.
        -11    1    3    3    0    0 -0.22315088430E+03  0.80731970146E+01 -0.40254503024E+02  0.22689627297E+03  0.00000000000E+00 0. -1.
         22    1    1    2    0    0  0.40321658632E+03  0.42420586007E+02  0.54375920757E+03  0.67827516349E+03  0.00000000000E+00 0. -1.
<mgrwt>
<rscale>  0 0.10421461E+04</rscale>
<asrwt>0</asrwt>
<pdfrwt beam="1">  1        1 0.11696605E+00 0.10421461E+04</pdfrwt>
<pdfrwt beam="2">  1       -1 0.54942785E-01 0.10421461E+04</pdfrwt>
<totfact> 0.80267048E+01</totfact>
</mgrwt>
</event>
<event>
 6    1  0.1817112E-005  0.4435749E+04  0.7818608E-02  0.7921983E-01
          2   -1    0    0  501    0  0.00000000000E+00  0.00000000000E+00  0.27345995122E+04  0.27345995122E+04  0.00000000000E+00 0. -1.
         -2   -1    0    0    0  501 -0.00000000000E+00 -0.00000000000E+00 -0.17987892109E+04  0.17987892109E+04  0.00000000000E+00 0.  1.
         23    2    1    2    0    0  0.27750134610E+03 -0.19872648831E+04 -0.49503770142E+03  0.20689304217E+04  0.95823021330E+02 0.  0.
         13    1    3    3    0    0  0.86918546392E+02 -0.82772816225E+03 -0.16646340259E+03  0.84876310517E+03  0.00000000000E+00 0.  1.
        -13    1    3    3    0    0  0.19058279970E+03 -0.11595367208E+04 -0.32857429883E+03  0.12201673165E+04  0.00000000000E+00 0. -1.
         22    1    1    2    0    0 -0.27750134610E+03  0.19872648831E+04  0.14308480027E+04  0.24644583014E+04  0.00000000000E+00 0. -1.
<mgrwt>
<rscale>  0 0.44357494E+04</rscale>
<asrwt>0</asrwt>
<pdfrwt beam="1">  1        2 0.42070762E+00 0.44357494E+04</pdfrwt>
<pdfrwt beam="2">  1       -2 0.27673680E+00 0.44357494E+04</pdfrwt>
<totfact> 0.85010575E-02</totfact>
</mgrwt>
</event>
<event>
 6    1  0.1817112E-005  0.1073603E+04  0.7818608E-02  0.9231309E-01
         -2   -1    0    0    0  501 -0.00000000000E+00  0.00000000000E+00  0.59565716172E+03  0.59565716172E+03  0.00000000000E+00 0.  1.
          2   -1    0    0  501    0  0.00000000000E+00 -0.00000000000E+00 -0.48376156444E+03  0.48376156444E+03  0.00000000000E+00 0. -1.
         23    2    1    2    0    0 -0.27381527126E+03  0.34926777865E+03 -0.24063357790E+03  0.51263869535E+03  0.89056887320E+02 0.  0.
         11    1    3    3    0    0 -0.99354607592E+02  0.19626784134E+03 -0.10367589018E+03  0.24318941958E+03  0.00000000000E+00 0. -1.
        -11    1    3    3    0    0 -0.17446066367E+03  0.15299993731E+03 -0.13695768772E+03  0.26944927577E+03  0.00000000000E+00 0.  1.
         22    1    1    2    0    0  0.27381527126E+03 -0.34926777865E+03  0.35252917518E+03  0.56678003082E+03  0.00000000000E+00 0.  1.
<mgrwt>
<rscale>  0 0.10736034E+04</rscale>
<asrwt>0</asrwt>
<pdfrwt beam="1">  1        2 0.74424856E-01 0.10736034E+04</pdfrwt>
<pdfrwt beam="2">  1       -2 0.91639563E-01 0.10736034E+04</pdfrwt>
<totfact> 0.64521633E+01</totfact>
</mgrwt>
</event>
<event>
 6    1  0.1817112E-005  0.2589156E+04  0.7818608E-02  0.8371894E-01
         -2   -1    0    0    0  501 -0.00000000000E+00  0.00000000000E+00  0.66517737905E+03  0.66517737905E+03  0.00000000000E+00 0.  1.
          2   -1    0    0  501    0  0.00000000000E+00 -0.00000000000E+00 -0.25195275461E+04  0.25195275461E+04  0.00000000000E+00 0. -1.
         23    2    1    2    0    0  0.42551786419E+03 -0.12145396105E+04 -0.77487478073E+03  0.15049909531E+04  0.91623822295E+02 0.  0.
         13    1    3    3    0    0  0.23144318772E+03 -0.64086879715E+03 -0.35733312399E+03  0.76939308926E+03  0.00000000000E+00 0. -1.
        -13    1    3    3    0    0  0.19407467647E+03 -0.57367081338E+03 -0.41754165675E+03  0.73559786384E+03  0.00000000000E+00 0.  1.
         22    1    1    2    0    0 -0.42551786419E+03  0.12145396105E+04 -0.10794753864E+04  0.16797139721E+04  0.00000000000E+00 0. -1.
<mgrwt>
<rscale>  0 0.25891564E+04</rscale>
<asrwt>0</asrwt>
<pdfrwt beam="1">  1        2 0.38761961E+00 0.25891564E+04</pdfrwt>
<pdfrwt beam="2">  1       -2 0.10233498E+00 0.25891564E+04</pdfrwt>
<totfact> 0.23468886E+00</totfact>
</mgrwt>
</event>
<event>
 6    1  0.1817112E-005  0.1212111E+04  0.7818608E-02  0.9102321E-01
          2   -1    0    0  501    0  0.00000000000E+00  0.00000000000E+00  0.55143566760E+03  0.55143566760E+03  0.00000000000E+00 0. -1.
         -2   -1    0    0    0  501 -0.00000000000E+00 -0.00000000000E+00 -0.66608558739E+03  0.66608558739E+03  0.00000000000E+00 0.  1.
         23    2    1    2    0    0 -0.20583192322E+03 -0.23811145071E+03 -0.57256871380E+03  0.66186536734E+03  0.10567397447E+03 0.  0.
         11    1    3    3    0    0 -0.64933062291E+02 -0.63953332399E+02 -0.27292312503E+03  0.28773835942E+03  0.00000000000E+00 0. -1.
        -11    1    3    3    0    0 -0.14089886093E+03 -0.17415811832E+03 -0.29964558877E+03  0.37412700792E+03  0.00000000000E+00 0.  1.
         22    1    1    2    0    0  0.20583192322E+03  0.23811145071E+03  0.45791879400E+03  0.55565588765E+03  0.00000000000E+00 0. -1.
<mgrwt>
<rscale>  0 0.12121111E+04</rscale>
<asrwt>0</asrwt>
<pdfrwt beam="1">  1        2 0.84836257E-01 0.12121111E+04</pdfrwt>
<pdfrwt beam="2">  1       -2 0.10247471E+00 0.12121111E+04</pdfrwt>
<totfact> 0.42173977E+01</totfact>
</mgrwt>
</event>
<event>
 6    1  0.1817112E-005  0.3976029E+04  0.7818608E-02  0.8009400E-01
         -2   -1    0    0    0  501 -0.00000000000E+00  0.00000000000E+00  0.23680692764E+04  0.23680692764E+04  0.00000000000E+00 0.  1.
          2   -1    0    0  501    0  0.00000000000E+00 -0.00000000000E+00 -0.16689555905E+04  0.16689555905E+04  0.00000000000E+00 0. -1.
         23    2    1    2    0    0 -0.95966267271E+03  0.46548801151E+03 -0.13524224587E+04  0.17247895661E+04  0.90669765296E+02 0.  0.
         11    1    3    3    0    0 -0.24907682296E+03  0.13115765811E+03 -0.42171028423E+03  0.50703171384E+03  0.00000000000E+00 0. -1.
        -11    1    3    3    0    0 -0.71058584975E+03  0.33433035340E+03 -0.93071217444E+03  0.12177578523E+04  0.00000000000E+00 0.  1.
         22    1    1    2    0    0  0.95966267271E+03 -0.46548801151E+03  0.20515361445E+04  0.23122353009E+04  0.00000000000E+00 0.  1.
<mgrwt>
<rscale>  0 0.39760294E+04</rscale>
<asrwt>0</asrwt>
<pdfrwt beam="1">  1        2 0.25676240E+00 0.39760294E+04</pdfrwt>
<pdfrwt beam="2">  1       -2 0.36431835E+00 0.39760294E+04</pdfrwt>
<totfact> 0.10178078E-01</totfact>
</mgrwt>
</event>
<event>
 6    1  0.1817112E-005  0.4832347E+04  0.7818608E-02  0.7854903E-01
          2   -1    0    0  501    0  0.00000000000E+00  0.00000000000E+00  0.15332863107E+04  0.15332863107E+04  0.00000000000E+00 0. -1.
         -2   -1    0    0    0  501 -0.00000000000E+00 -0.00000000000E+00 -0.38074393150E+04  0.38074393150E+04  0.00000000000E+00 0.  1.
         23    2    1    2    0    0 -0.10549792233E+03 -0.16880893163E+04 -0.30431169367E+04  0.34827479938E+04  0.90540304864E+02 0.  0.
         13    1    3    3    0    0 -0.19768561694E+02 -0.30765405991E+03 -0.48549764868E+03  0.57510849714E+03  0.00000000000E+00 0.  1.
        -13    1    3    3    0    0 -0.85729360636E+02 -0.13804352564E+04 -0.25576192880E+04  0.29076394966E+04  0.00000000000E+00 0. -1.
         22    1    1    2    0    0  0.10549792233E+03  0.16880893163E+04  0.76896393242E+03  0.18579776319E+04  0.00000000000E+00 0. -1.
<mgrwt>
<rscale>  0 0.48323471E+04</rscale>
<asrwt>0</asrwt>
<pdfrwt beam="1">  1        2 0.23589020E+00 0.48323471E+04</pdfrwt>
<pdfrwt beam="2">  1       -2 0.58575989E+00 0.48323471E+04</pdfrwt>
<totfact> 0.52513003E-03</totfact>
</mgrwt>
</event>
<event>
 6    1  0.1817112E-005  0.4435622E+04  0.7818608E-02  0.7922005E-01
         -2   -1    0    0    0  501 -0.00000000000E+00  0.00000000000E+00  0.20495454720E+04  0.20495454720E+04  0.00000000000E+00 0. -1.
          2   -1    0    0  501    0  0.00000000000E+00 -0.00000000000E+00 -0.23998911734E+04  0.23998911734E+04  0.00000000000E+00 0.  1.
         23    2    1    2    0    0  0.76724041355E+03 -0.85229536475E+03  0.17278534862E+04  0.20758366150E+04  0.92491844606E+02 0.  0.
         11    1    3    3    0    0  0.45265668294E+03 -0.44771039210E+03  0.10065838983E+04  0.11910305672E+04  0.00000000000E+00 0. -1.
        -11    1    3    3    0    0  0.31458373061E+03 -0.40458497265E+03  0.72126958799E+03  0.88480604780E+03  0.00000000000E+00 0.  1.
         22    1    1    2    0    0 -0.76724041355E+03  0.85229536475E+03 -0.20781991876E+04  0.23736000304E+04  0.00000000000E+00 0.  1.
<mgrwt>
<rscale>  0 0.44356222E+04</rscale>
<asrwt>0</asrwt>
<pdfrwt beam="1">  1        2 0.36921403E+00 0.44356222E+04</pdfrwt>
<pdfrwt beam="2">  1       -2 0.31531469E+00 0.44356222E+04</pdfrwt>
<totfact> 0.77505258E-02</totfact>
</mgrwt>
</event>
<event>
 6    1  0.1817112E-005  0.2662709E+04  0.7818608E-02  0.8347207E-01
          2   -1    0    0  501    0  0.00000000000E+00  0.00000000000E+00  0.34855910420E+04  0.34855910420E+04  0.00000000000E+00 0. -1.
         -2   -1    0    0    0  501 -0.00000000000E+00 -0.00000000000E+00 -0.50852356972E+03  0.50852356972E+03  0.00000000000E+00 0.  1.
         23    2    1    2    0    0  0.46861147152E+03  0.30594430619E+02  0.33564459335E+04  0.33904087668E+04  0.92787773787E+02 0.  0.
         11    1    3    3    0    0  0.55254700385E+02  0.33938276421E+02  0.40591304513E+03  0.41105995759E+03  0.00000000000E+00 0. -1.
        -11    1    3    3    0    0  0.41335677113E+03 -0.33438458025E+01  0.29505328883E+04  0.29793488092E+04  0.00000000000E+00 0.  1.
         22    1    1    2    0    0 -0.46861147152E+03 -0.30594430619E+02 -0.37937846119E+03  0.60370584496E+03  0.00000000000E+00 0.  1.
<mgrwt>
<rscale>  0 0.26627093E+04</rscale>
<asrwt>0</asrwt>
<pdfrwt beam="1">  1        2 0.53624476E+00 0.26627093E+04</pdfrwt>
<pdfrwt beam="2">  1       -2 0.78234398E-01 0.26627093E+04</pdfrwt>
<totfact> 0.10645212E+00</totfact>
</mgrwt>
</event>
<event>
 6    1  0.1817112E-005  0.4159442E+04  0.7818608E-02  0.7973132E-01
          2   -1    0    0  501    0  0.00000000000E+00  0.00000000000E+00  0.29715635184E+04  0.29715635184E+04  0.00000000000E+00 0. -1.
         -2   -1    0    0    0  501 -0.00000000000E+00 -0.00000000000E+00 -0.14555435511E+04  0.14555435511E+04  0.00000000000E+00 0.  1.
         23    2    1    2    0    0 -0.14287576613E+03  0.55333681367E+03  0.28854169964E+04  0.29432461134E+04  0.10232950336E+03 0.  0.
         11    1    3    3    0    0 -0.90976150153E+02  0.40803470990E+03  0.23087838345E+04  0.23463272957E+04  0.00000000000E+00 0.  1.
        -11    1    3    3    0    0 -0.51899615973E+02  0.14530210377E+03  0.57663316191E+03  0.59691881769E+03  0.00000000000E+00 0. -1.
         22    1    1    2    0    0  0.14287576613E+03 -0.55333681367E+03 -0.13693970290E+04  0.14838609561E+04  0.00000000000E+00 0.  1.
<mgrwt>
<rscale>  0 0.41594423E+04</rscale>
<asrwt>0</asrwt>
<pdfrwt beam="1">  1        2 0.45716362E+00 0.41594423E+04</pdfrwt>
<pdfrwt beam="2">  1       -2 0.22392978E+00 0.41594423E+04</pdfrwt>
<totfact> 0.13179700E-01</totfact>
</mgrwt>
</event>
<event>
 6    1  0.1817112E-005  0.2075445E+04  0.7818608E-02  0.8572138E-01
         -2   -1    0    0    0  501 -0.00000000000E+00  0.00000000000E+00  0.76928882757E+03  0.76928882757E+03  0.00000000000E+00 0.  1.
          2   -1    0    0  501    0  0.00000000000E+00 -0.00000000000E+00 -0.13998227953E+04  0.13998227953E+04  0.00000000000E+00 0. -1.
         23    2    1    2    0    0  0.90572984213E+01 -0.47173550567E+03  0.64776501720E+03  0.80651677595E+03  0.90848062282E+02 0.  0.
         11    1    3    3    0    0 -0.67344330923E+01 -0.19672702030E+03  0.19867244694E+03  0.27967412157E+03  0.00000000000E+00 0.  1.
        -11    1    3    3    0    0  0.15791731514E+02 -0.27500848537E+03  0.44909257026E+03  0.52684265438E+03  0.00000000000E+00 0. -1.
         22    1    1    2    0    0 -0.90572984213E+01  0.47173550567E+03 -0.12782989849E+04  0.13625948469E+04  0.00000000000E+00 0. -1.
<mgrwt>
<rscale>  0 0.20754450E+04</rscale>
<asrwt>0</asrwt>
<pdfrwt beam="1">  1        2 0.21535735E+00 0.20754450E+04</pdfrwt>
<pdfrwt beam="2">  1       -2 0.11835213E+00 0.20754450E+04</pdfrwt>
<totfact> 0.73462039E+00</totfact>
</mgrwt>
</event>
<event>
 6    1  0.1817112E-005  0.2383837E+04  0.7818608E-02  0.8445580E-01
         -2   -1    0    0    0  501 -0.00000000000E+00  0.00000000000E+00  0.43330891230E+03  0.43330891230E+03  0.00000000000E+00 0.  1.
          2   -1    0    0  501    0  0.00000000000E+00 -0.00000000000E+00 -0.32786521188E+04  0.32786521188E+04  0.00000000000E+00 0. -1.
         23    2    1    2    0    0 -0.55461410158E+03  0.68237187092E+03 -0.26737514638E+04  0.28160414488E+04  0.88962796172E+02 0.  0.
         11    1    3    3    0    0 -0.32222073367E+03  0.33240391117E+03 -0.14605805312E+04  0.15321925628E+04  0.00000000000E+00 0. -1.
        -11    1    3    3    0    0 -0.23239336791E+03  0.34996795975E+03 -0.12131709326E+04  0.12838488860E+04  0.00000000000E+00 0.  1.
         22    1    1    2    0    0  0.55461410158E+03 -0.68237187092E+03 -0.17159174272E+03  0.89591958236E+03  0.00000000000E+00 0.  1.
<mgrwt>
<rscale>  0 0.23838366E+04</rscale>
<asrwt>0</asrwt>
<pdfrwt beam="1">  1        2 0.50440803E+00 0.23838366E+04</pdfrwt>
<pdfrwt beam="2">  1       -2 0.66662908E-01 0.23838366E+04</pdfrwt>
<totfact> 0.21450882E+00</totfact>
</mgrwt>
</event>
<event>
 6    1  0.1817112E-005  0.3839070E+04  0.7818608E-02  0.8037822E-01
          2   -1    0    0  501    0  0.00000000000E+00  0.00000000000E+00  0.27958608860E+04  0.27958608860E+04  0.00000000000E+00 0.  1.
         -2   -1    0    0    0  501 -0.00000000000E+00 -0.00000000000E+00 -0.13178820297E+04  0.13178820297E+04  0.00000000000E+00 0. -1.
         23    2    1    2    0    0  0.64415391317E+03  0.44162913723E+03  0.26170847783E+04  0.27326082879E+04  0.89692582389E+02 0.  0.
         13    1    3    3    0    0  0.12221764736E+03  0.46852772394E+02  0.39124862151E+03  0.41256250368E+03  0.00000000000E+00 0. -1.
        -13    1    3    3    0    0  0.52193626581E+03  0.39477636484E+03  0.22258361568E+04  0.23200457842E+04  0.00000000000E+00 0.  1.
         22    1    1    2    0    0 -0.64415391317E+03 -0.44162913723E+03 -0.11391059220E+04  0.13811346278E+04  0.00000000000E+00 0. -1.
<mgrwt>
<rscale>  0 0.38390701E+04</rscale>
<asrwt>0</asrwt>
<pdfrwt beam="1">  1        2 0.43013244E+00 0.38390701E+04</pdfrwt>
<pdfrwt beam="2">  1       -2 0.20275108E+00 0.38390701E+04</pdfrwt>
<totfact> 0.23710693E-01</totfact>
</mgrwt>
</event>
<event>
 6    1  0.1817112E-005  0.8010556E+04  0.7818608E-02  0.7481339E-01
          2   -1    0    0  501    0  0.00000000000E+00  0.00000000000E+00  0.43673997938E+04  0.43673997938E+04  0.00000000000E+00 0. -1.
         -2   -1    0    0    0  501 -0.00000000000E+00 -0.00000000000E+00 -0.36731817708E+04  0.36731817708E+04  0.00000000000E+00 0.  1.
         23    2    1    2    0    0  0.22102529675E+04  0.61170932814E+03  0.36425288471E+04  0.43053515586E+04  0.92893268056E+02 0.  0.
         13    1    3    3    0    0  0.74485644215E+03  0.25056401375E+03  0.12276096307E+04  0.14576072344E+04  0.00000000000E+00 0. -1.
        -13    1    3    3    0    0  0.14653965253E+04  0.36114531439E+03  0.24149192163E+04  0.28477443242E+04  0.00000000000E+00 0.  1.
         22    1    1    2    0    0 -0.22102529675E+04 -0.61170932814E+03 -0.29483108241E+04  0.37352300060E+04  0.00000000000E+00 0.  1.
<mgrwt>
<rscale>  0 0.80105564E+04</rscale>
<asrwt>0</asrwt>
<pdfrwt beam="1">  1        2 0.67190766E+00 0.80105564E+04</pdfrwt>
<pdfrwt beam="2">  1       -2 0.56510489E+00 0.80105564E+04</pdfrwt>
<totfact> 0.69863707E-05</totfact>
</mgrwt>
</event>
<event>
 6    1  0.1817112E-005  0.1452888E+04  0.7818608E-02  0.8916401E-01
          2   -1    0    0  501    0  0.00000000000E+00  0.00000000000E+00  0.18271688885E+04  0.18271688885E+04  0.00000000000E+00 0. -1.
         -2   -1    0    0    0  501 -0.00000000000E+00 -0.00000000000E+00 -0.28881880894E+03  0.28881880894E+03  0.00000000000E+00 0.  1.
         23    2    1    2    0    0  0.41257035710E+03 -0.57535746319E+03  0.98982002282E+03  0.12203673911E+04  0.91117406061E+02 0.  0.
         11    1    3    3    0    0  0.35262086528E+03 -0.52818558944E+03  0.91255204450E+03  0.11117880758E+04  0.00000000000E+00 0. -1.
        -11    1    3    3    0    0  0.59949491820E+02 -0.47171873750E+02  0.77267978314E+02  0.10857931532E+03  0.00000000000E+00 0.  1.
         22    1    1    2    0    0 -0.41257035710E+03  0.57535746319E+03  0.54853005678E+03  0.89562030638E+03  0.00000000000E+00 0. -1.
<mgrwt>
<rscale>  0 0.14528878E+04</rscale>
<asrwt>0</asrwt>
<pdfrwt beam="1">  1        2 0.28110290E+00 0.14528878E+04</pdfrwt>
<pdfrwt beam="2">  1       -2 0.44433664E-01 0.14528878E+04</pdfrwt>
<totfact> 0.38816322E+01</totfact>
</mgrwt>
</event>
<event>
 6    1  0.1817112E-005  0.8192478E+03  0.7818608E-02  0.9532567E-01
         -2   -1    0    0    0  501 -0.00000000000E+00  0.00000000000E+00  0.20857196887E+03  0.20857196887E+03  0.00000000000E+00 0. -1.
          2   -1    0    0  501    0  0.00000000000E+00 -0.00000000000E+00 -0.80447883555E+03  0.80447883555E+03  0.00000000000E+00 0.  1.
         23    2    1    2    0    0 -0.97558039089E+02  0.28785201249E+03 -0.63177473112E+03  0.70700692556E+03  0.91340734723E+02 0.  0.
         13    1    3    3    0    0 -0.10663526534E+03  0.25585041587E+03 -0.50642492363E+03  0.57731855884E+03  0.00000000000E+00 0. -1.
        -13    1    3    3    0    0  0.90772262497E+01  0.32001596625E+02 -0.12534980750E+03  0.12968836672E+03  0.00000000000E+00 0.  1.
         22    1    1    2    0    0  0.97558039089E+02 -0.28785201249E+03  0.35867864446E+02  0.30604387886E+03  0.00000000000E+00 0. -1.
<mgrwt>
<rscale>  0 0.81924779E+03</rscale>
<asrwt>0</asrwt>
<pdfrwt beam="1">  1        2 0.12376597E+00 0.81924779E+03</pdfrwt>
<pdfrwt beam="2">  1       -2 0.32087995E-01 0.81924779E+03</pdfrwt>
<totfact> 0.31024451E+02</totfact>
</mgrwt>
</event>
<event>
 6    1  0.1817112E-005  0.4259993E+04  0.7818608E-02  0.7954058E-01
         -2   -1    0    0    0  501 -0.00000000000E+00  0.00000000000E+00  0.19140209306E+04  0.19140209306E+04  0.00000000000E+00 0.  1.
          2   -1    0    0  501    0  0.00000000000E+00 -0.00000000000E+00 -0.23703420399E+04  0.23703420399E+04  0.00000000000E+00 0. -1.
         23    2    1    2    0    0  0.17859904988E+04  0.42015273216E+03  0.85796336864E+03  0.20274548933E+04  0.90453425684E+02 0.  0.
         11    1    3    3    0    0  0.68882762852E+03  0.20547292264E+03  0.32174577516E+03  0.78754235923E+03  0.00000000000E+00 0.  1.
        -11    1    3    3    0    0  0.10971628703E+04  0.21467980952E+03  0.53621759349E+03  0.12399125341E+04  0.00000000000E+00 0. -1.
         22    1    1    2    0    0 -0.17859904988E+04 -0.42015273216E+03 -0.13142844779E+04  0.22569080772E+04  0.00000000000E+00 0. -1.
<mgrwt>
<rscale>  0 0.42599926E+04</rscale>
<asrwt>0</asrwt>
<pdfrwt beam="1">  1        2 0.36466800E+00 0.42599926E+04</pdfrwt>
<pdfrwt beam="2">  1       -2 0.29446476E+00 0.42599926E+04</pdfrwt>
<totfact> 0.10974089E-01</totfact>
</mgrwt>
</event>
<event>
 6    1  0.1817112E-005  0.9617280E+03  0.7818608E-02  0.9351546E-01
          1   -1    0    0  501    0  0.00000000000E+00  0.00000000000E+00  0.55279392153E+03  0.55279392153E+03  0.00000000000E+00 0. -1.
         -1   -1    0    0    0  501 -0.00000000000E+00 -0.00000000000E+00 -0.41829369086E+03  0.41829369086E+03  0.00000000000E+00 0.  1.
         23    2    1    2    0    0 -0.45008772908E+03  0.11048770229E+03 -0.39855871277E+02  0.47592446098E+03  0.10064345913E+03 0.  0.
         13    1    3    3    0    0 -0.21783007084E+03  0.32227610162E+02  0.27080247755E+02  0.22186008752E+03  0.00000000000E+00 0.  1.
        -13    1    3    3    0    0 -0.23225765824E+03  0.78260092124E+02 -0.66936119032E+02  0.25406437346E+03  0.00000000000E+00 0. -1.
         22    1    1    2    0    0  0.45008772908E+03 -0.11048770229E+03  0.17435610195E+03  0.49516315141E+03  0.00000000000E+00 0. -1.
<mgrwt>
<rscale>  0 0.96172805E+03</rscale>
<asrwt>0</asrwt>
<pdfrwt beam="1">  1        1 0.85045220E-01 0.96172805E+03</pdfrwt>
<pdfrwt beam="2">  1       -1 0.64352875E-01 0.96172805E+03</pdfrwt>
<totfact> 0.94783937E+01</totfact>
</mgrwt>
</event>
<event>
 6    1  0.1817112E-005  0.6767034E+03  0.7818608E-02  0.9757923E-01
         -2   -1    0    0    0  501 -0.00000000000E+00  0.00000000000E+00  0.52671392562E+03  0.52671392562E+03  0.00000000000E+00 0.  1.
          2   -1    0    0  501    0  0.00000000000E+00 -0.00000000000E+00 -0.21735112147E+03  0.21735112147E+03  0.00000000000E+00 0. -1.
         23    2    1    2    0    0 -0.17769956447E+03 -0.21549700375E+03 -0.40561100144E+02  0.29633428801E+03  0.90292378213E+02 0.  0.
         11    1    3    3    0    0 -0.29960941910E+02 -0.67477474533E+02 -0.46257225418E+02  0.87124040958E+02  0.00000000000E+00 0. -1.
        -11    1    3    3    0    0 -0.14773862256E+03 -0.14801952922E+03  0.56961252738E+01  0.20921024705E+03  0.00000000000E+00 0.  1.
         22    1    1    2    0    0  0.17769956447E+03  0.21549700375E+03  0.34992390429E+03  0.44773075909E+03  0.00000000000E+00 0.  1.
<mgrwt>
<rscale>  0 0.67670337E+03</rscale>
<asrwt>0</asrwt>
<pdfrwt beam="1">  1        2 0.33438634E-01 0.67670337E+03</pdfrwt>
<pdfrwt beam="2">  1       -2 0.81032911E-01 0.67670337E+03</pdfrwt>
<totfact> 0.21363123E+02</totfact>
</mgrwt>
</event>
<event>
 6    1  0.1817112E-005  0.2389695E+04  0.7818608E-02  0.8443372E-01
          2   -1    0    0  501    0  0.00000000000E+00  0.00000000000E+00  0.12495876232E+04  0.12495876232E+04  0.00000000000E+00 0.  1.
         -2   -1    0    0    0  501 -0.00000000000E+00 -0.00000000000E+00 -0.11425051496E+04  0.11425051496E+04  0.00000000000E+00 0. -1.
         23    2    1    2    0    0  0.10960444875E+04  0.35202654778E+03  0.36727948654E+03  0.12118645345E+04  0.92115252147E+02 0.  0.
         13    1    3    3    0    0  0.63837283157E+03  0.22161302462E+03  0.25995589205E+03  0.72402297656E+03  0.00000000000E+00 0.  1.
        -13    1    3    3    0    0  0.45767165596E+03  0.13041352316E+03  0.10732359450E+03  0.48784155791E+03  0.00000000000E+00 0. -1.
         22    1    1    2    0    0 -0.10960444875E+04 -0.35202654778E+03 -0.26019701296E+03  0.11802282383E+04  0.00000000000E+00 0. -1.
<mgrwt>
<rscale>  0 0.23896948E+04</rscale>
<asrwt>0</asrwt>
<pdfrwt beam="1">  1        2 0.19224425E+00 0.23896948E+04</pdfrwt>
<pdfrwt beam="2">  1       -2 0.17577002E+00 0.23896948E+04</pdfrwt>
<totfact> 0.30908959E+00</totfact>
</mgrwt>
</event>
<event>
 6    1  0.1817112E-005  0.1323030E+04  0.7818608E-02  0.9011499E-01
         -2   -1    0    0    0  501 -0.00000000000E+00  0.00000000000E+00  0.23554878679E+03  0.23554878679E+03  0.00000000000E+00 0.  1.
          2   -1    0    0  501    0  0.00000000000E+00 -0.00000000000E+00 -0.18577975575E+04  0.18577975575E+04  0.00000000000E+00 0. -1.
         23    2    1    2    0    0 -0.28382732596E+03  0.19888018749E+03 -0.17006625923E+04  0.17380155022E+04  0.91287201559E+02 0.  0.
         13    1    3    3    0    0 -0.12789509934E+03  0.12381058926E+03 -0.10365908562E+04  0.10517636720E+04  0.00000000000E+00 0. -1.
        -13    1    3    3    0    0 -0.15593222663E+03  0.75069598228E+02 -0.66407173602E+03  0.68625183021E+03  0.00000000000E+00 0.  1.
         22    1    1    2    0    0  0.28382732596E+03 -0.19888018749E+03  0.78413821561E+02  0.35533084210E+03  0.00000000000E+00 0.  1.
<mgrwt>
<rscale>  0 0.13230298E+04</rscale>
<asrwt>0</asrwt>
<pdfrwt beam="1">  1        2 0.28581502E+00 0.13230298E+04</pdfrwt>
<pdfrwt beam="2">  1       -2 0.36238273E-01 0.13230298E+04</pdfrwt>
<totfact> 0.56215126E+01</totfact>
</mgrwt>
</event>
<event>
 6    1  0.1817112E-005  0.1404503E+04  0.7818608E-02  0.8950565E-01
         -2   -1    0    0    0  501 -0.00000000000E+00  0.00000000000E+00  0.23077713635E+03  0.23077713635E+03  0.00000000000E+00 0.  1.
          2   -1    0    0  501    0  0.00000000000E+00 -0.00000000000E+00 -0.21369412042E+04  0.21369412042E+04  0.00000000000E+00 0. -1.
         23    2    1    2    0    0  0.58567217696E+03 -0.11692453524E+03 -0.15702158995E+04  0.16824852286E+04  0.92170102684E+02 0.  0.
         13    1    3    3    0    0  0.12722086870E+03 -0.15936868418E+02 -0.44931834813E+03  0.46725379738E+03  0.00000000000E+00 0.  1.
        -13    1    3    3    0    0  0.45845130826E+03 -0.10098766682E+03 -0.11208975513E+04  0.12152314312E+04  0.00000000000E+00 0. -1.
         22    1    1    2    0    0 -0.58567217696E+03  0.11692453524E+03 -0.33594816834E+03  0.68523311188E+03  0.00000000000E+00 0.  1.
<mgrwt>
<rscale>  0 0.14045030E+04</rscale>
<asrwt>0</asrwt>
<pdfrwt beam="1">  1        2 0.32876019E+00 0.14045030E+04</pdfrwt>
<pdfrwt beam="2">  1       -2 0.35504175E-01 0.14045030E+04</pdfrwt>
<totfact> 0.40679706E+01</totfact>
</mgrwt>
</event>
<event>
 6    1  0.1817112E-005  0.1936928E+04  0.7818608E-02  0.8636690E-01
         -2   -1    0    0    0  501 -0.00000000000E+00  0.00000000000E+00  0.35081407088E+03  0.35081407088E+03  0.00000000000E+00 0. -1.
          2   -1    0    0  501    0  0.00000000000E+00 -0.00000000000E+00 -0.26735597873E+04  0.26735597873E+04  0.00000000000E+00 0.  1.
         23    2    1    2    0    0  0.71994954171E+03 -0.53133297450E+03 -0.17337529895E+04  0.19531341536E+04  0.90507020854E+02 0.  0.
         13    1    3    3    0    0  0.54684132669E+03 -0.44018270767E+03 -0.14038732262E+04  0.15696038634E+04  0.00000000000E+00 0.  1.
        -13    1    3    3    0    0  0.17310821502E+03 -0.91150266828E+02 -0.32987976324E+03  0.38353029013E+03  0.00000000000E+00 0. -1.
         22    1    1    2    0    0 -0.71994954171E+03  0.53133297450E+03 -0.58899272697E+03  0.10712397047E+04  0.00000000000E+00 0. -1.
<mgrwt>
<rscale>  0 0.19369279E+04</rscale>
<asrwt>0</asrwt>
<pdfrwt beam="1">  1        2 0.41131688E+00 0.19369279E+04</pdfrwt>
<pdfrwt beam="2">  1       -2 0.53971397E-01 0.19369279E+04</pdfrwt>
<totfact> 0.83243003E+00</totfact>
</mgrwt>
</event>
<event>
 6    1  0.1817112E-005  0.1785399E+04  0.7818608E-02  0.8714103E-01
         -2   -1    0    0    0  501 -0.00000000000E+00  0.00000000000E+00  0.55100898212E+03  0.55100898212E+03  0.00000000000E+00 0.  1.
          2   -1    0    0  501    0  0.00000000000E+00 -0.00000000000E+00 -0.14462784453E+04  0.14462784453E+04  0.00000000000E+00 0. -1.
         23    2    1    2    0    0  0.70655796240E+03 -0.10456264742E+03 -0.10435086359E+04  0.12678134020E+04  0.91011249217E+02 0.  0.
         13    1    3    3    0    0  0.66885885431E+03 -0.78180975102E+02 -0.98872700906E+03  0.11962715119E+04  0.00000000000E+00 0.  1.
        -13    1    3    3    0    0  0.37699108095E+02 -0.26381672321E+02 -0.54781626891E+02  0.71541890040E+02  0.00000000000E+00 0. -1.
         22    1    1    2    0    0 -0.70655796240E+03  0.10456264742E+03  0.14823917276E+03  0.72947402545E+03  0.00000000000E+00 0.  1.
<mgrwt>
<rscale>  0 0.17853990E+04</rscale>
<asrwt>0</asrwt>
<pdfrwt beam="1">  1        2 0.22250437E+00 0.17853990E+04</pdfrwt>
<pdfrwt beam="2">  1       -2 0.84770613E-01 0.17853990E+04</pdfrwt>
<totfact> 0.15603199E+01</totfact>
</mgrwt>
</event>
<event>
 6    1  0.1817112E-005  0.3704625E+04  0.7818608E-02  0.8066938E-01
          2   -1    0    0  501    0  0.00000000000E+00  0.00000000000E+00  0.12273118437E+04  0.12273118437E+04  0.00000000000E+00 0. -1.
         -2   -1    0    0    0  501 -0.00000000000E+00 -0.00000000000E+00 -0.27955913532E+04  0.27955913532E+04  0.00000000000E+00 0.  1.
         23    2    1    2    0    0 -0.13198998731E+04 -0.12056916921E+04 -0.26213337309E+03  0.18088919366E+04  0.86879235789E+02 0.  0.
         11    1    3    3    0    0 -0.82463202394E+03 -0.69680096012E+03 -0.16643329755E+03  0.10923596457E+04  0.00000000000E+00 0. -1.
        -11    1    3    3    0    0 -0.49526784913E+03 -0.50889073195E+03 -0.95700075536E+02  0.71653229090E+03  0.00000000000E+00 0.  1.
         22    1    1    2    0    0  0.13198998731E+04  0.12056916921E+04 -0.13061461364E+04  0.22140112604E+04  0.00000000000E+00 0.  1.
<mgrwt>
<rscale>  0 0.37046254E+04</rscale>
<asrwt>0</asrwt>
<pdfrwt beam="1">  1        2 0.18881721E+00 0.37046254E+04</pdfrwt>
<pdfrwt beam="2">  1       -2 0.43009098E+00 0.37046254E+04</pdfrwt>
<totfact> 0.69264791E-02</totfact>
</mgrwt>
</event>
<event>
 6    1  0.1817112E-005  0.1803355E+04  0.7818608E-02  0.8704517E-01
         -2   -1    0    0    0  501 -0.00000000000E+00  0.00000000000E+00  0.14347922191E+04  0.14347922191E+04  0.00000000000E+00 0.  1.
          2   -1    0    0  501    0  0.00000000000E+00 -0.00000000000E+00 -0.56664802331E+03  0.56664802331E+03  0.00000000000E+00 0. -1.
         23    2    1    2    0    0  0.95186382479E+01  0.86862038756E+03  0.17509840554E+03  0.89017769489E+03  0.84645701040E+02 0.  0.
         13    1    3    3    0    0 -0.31707713141E+02  0.24616518884E+03  0.33042243306E+02  0.25038863615E+03  0.00000000000E+00 0. -1.
        -13    1    3    3    0    0  0.41226351389E+02  0.62245519872E+03  0.14205616223E+03  0.63978905875E+03  0.00000000000E+00 0.  1.
         22    1    1    2    0    0 -0.95186382479E+01 -0.86862038756E+03  0.69304579029E+03  0.11112625476E+04  0.00000000000E+00 0. -1.
<mgrwt>
<rscale>  0 0.18033548E+04</rscale>
<asrwt>0</asrwt>
<pdfrwt beam="1">  1        2 0.87176620E-01 0.18033548E+04</pdfrwt>
<pdfrwt beam="2">  1       -2 0.22073726E+00 0.18033548E+04</pdfrwt>
<totfact> 0.48998342E+00</totfact>
</mgrwt>
</event>
<event>
 6    1  0.1817112E-005  0.1445197E+04  0.7818608E-02  0.8921737E-01
         -1   -1    0    0    0  501 -0.00000000000E+00  0.00000000000E+00  0.46550656129E+03  0.46550656129E+03  0.00000000000E+00 0.  1.
          1   -1    0    0  501    0  0.00000000000E+00 -0.00000000000E+00 -0.11216782575E+04  0.11216782575E+04  0.00000000000E+00 0. -1.
         23    2    1    2    0    0 -0.41663806602E+02  0.23209618697E+03 -0.10761484085E+04  0.11055366572E+04  0.92257197948E+02 0.  0.
         13    1    3    3    0    0 -0.62856669861E+02  0.15378671925E+03 -0.82667284807E+03  0.84320182264E+03  0.00000000000E+00 0. -1.
        -13    1    3    3    0    0  0.21192863259E+02  0.78309467718E+02 -0.24947556039E+03  0.26233483455E+03  0.00000000000E+00 0.  1.
         22    1    1    2    0    0  0.41663806602E+02 -0.23209618697E+03  0.41997671222E+03  0.48164816162E+03  0.00000000000E+00 0.  1.
<mgrwt>
<rscale>  0 0.14451970E+04</rscale>
<asrwt>0</asrwt>
<pdfrwt beam="1">  1        1 0.17256589E+00 0.14451970E+04</pdfrwt>
<pdfrwt beam="2">  1       -1 0.71616394E-01 0.14451970E+04</pdfrwt>
<totfact> 0.23356573E+01</totfact>
</mgrwt>
</event>
<event>
 6    1  0.1817112E-005  0.1514897E+04  0.7818608E-02  0.8874606E-01
          2   -1    0    0  501    0  0.00000000000E+00  0.00000000000E+00  0.18530803988E+04  0.18530803988E+04  0.00000000000E+00 0. -1.
         -2   -1    0    0    0  501 -0.00000000000E+00 -0.00000000000E+00 -0.30960802448E+03  0.30960802448E+03  0.00000000000E+00 0.  1.
         23    2    1    2    0    0 -0.71493218791E+03  0.10801991765E+03  0.10828502057E+04  0.13053850242E+04  0.93108310360E+02 0.  0.
         13    1    3    3    0    0 -0.26074625404E+02  0.20363856114E+02  0.33566947494E+02  0.47130804044E+02  0.00000000000E+00 0. -1.
        -13    1    3    3    0    0 -0.68885756251E+03  0.87656061537E+02  0.10492832582E+04  0.12582542202E+04  0.00000000000E+00 0.  1.
         22    1    1    2    0    0  0.71493218791E+03 -0.10801991765E+03  0.46062216865E+03  0.85730339914E+03  0.00000000000E+00 0.  1.
<mgrwt>
<rscale>  0 0.15148974E+04</rscale>
<asrwt>0</asrwt>
<pdfrwt beam="1">  1        2 0.28508928E+00 0.15148974E+04</pdfrwt>
<pdfrwt beam="2">  1       -2 0.47632005E-01 0.15148974E+04</pdfrwt>
<totfact> 0.32502281E+01</totfact>
</mgrwt>
</event>
<event>
 6    1  0.1817112E-005  0.1186863E+04  0.7818608E-02  0.9124434E-01
          2   -1    0    0  501    0  0.00000000000E+00  0.00000000000E+00  0.27718223356E+03  0.27718223356E+03  0.00000000000E+00 0. -1.
         -2   -1    0    0    0  501 -0.00000000000E+00 -0.00000000000E+00 -0.12705030746E+04  0.12705030746E+04  0.00000000000E+00 0.  1.
         23    2    1    2    0    0  0.23908651652E+03 -0.46503274922E+03 -0.14391570854E+03  0.55023510923E+03  0.92893078505E+02 0.  0.
         11    1    3    3    0    0  0.17044162767E+03 -0.27510428746E+03 -0.49818201923E+02  0.32743636125E+03  0.00000000000E+00 0.  1.
        -11    1    3    3    0    0  0.68644888849E+02 -0.18992846175E+03 -0.94097506620E+02  0.22279874798E+03  0.00000000000E+00 0. -1.
         22    1    1    2    0    0 -0.23908651652E+03  0.46503274922E+03 -0.84940513246E+03  0.99745019889E+03  0.00000000000E+00 0.  1.
<mgrwt>
<rscale>  0 0.11868629E+04</rscale>
<asrwt>0</asrwt>
<pdfrwt beam="1">  1        2 0.42643420E-01 0.11868629E+04</pdfrwt>
<pdfrwt beam="2">  1       -2 0.19546201E+00 0.11868629E+04</pdfrwt>
<totfact> 0.16866397E+01</totfact>
</mgrwt>
</event>
<event>
 6    1  0.1817112E-005  0.1792696E+04  0.7818608E-02  0.8710193E-01
          2   -1    0    0  501    0  0.00000000000E+00  0.00000000000E+00  0.24869106887E+04  0.24869106887E+04  0.00000000000E+00 0. -1.
         -2   -1    0    0    0  501 -0.00000000000E+00 -0.00000000000E+00 -0.32306736510E+03  0.32306736510E+03  0.00000000000E+00 0.  1.
         23    2    1    2    0    0  0.44061442824E+03 -0.52945713031E+03  0.19798469449E+04  0.20970119995E+04  0.56563891882E+02 0.  0.
         11    1    3    3    0    0  0.32755913795E+03 -0.39093662527E+03  0.15378972766E+04  0.16202637030E+04  0.00000000000E+00 0.  1.
        -11    1    3    3    0    0  0.11305529028E+03 -0.13852050504E+03  0.44194966826E+03  0.47674829654E+03  0.00000000000E+00 0. -1.
         22    1    1    2    0    0 -0.44061442824E+03  0.52945713031E+03  0.18399637880E+03  0.71296605432E+03  0.00000000000E+00 0.  1.
<mgrwt>
<rscale>  0 0.17926959E+04</rscale>
<asrwt>0</asrwt>
<pdfrwt beam="1">  1        2 0.38260163E+00 0.17926959E+04</pdfrwt>
<pdfrwt beam="2">  1       -2 0.49702673E-01 0.17926959E+04</pdfrwt>
<totfact> 0.12833238E+01</totfact>
</mgrwt>
</event>
<event>
 6    1  0.1817112E-005  0.1542911E+04  0.7818608E-02  0.8856409E-01
         -2   -1    0    0    0  501 -0.00000000000E+00  0.00000000000E+00  0.11440221773E+04  0.11440221773E+04  0.00000000000E+00 0.  1.
          2   -1    0    0  501    0  0.00000000000E+00 -0.00000000000E+00 -0.52022008969E+03  0.52022008969E+03  0.00000000000E+00 0. -1.
         23    2    1    2    0    0  0.57293861260E+03  0.41818515212E+03  0.63276244721E+03  0.95486383250E+03  0.90769756911E+02 0.  0.
         13    1    3    3    0    0  0.21211567354E+03  0.19875508292E+03  0.29439818536E+03  0.41372325713E+03  0.00000000000E+00 0. -1.
        -13    1    3    3    0    0  0.36082293906E+03  0.21943006919E+03  0.33836426185E+03  0.54114057537E+03  0.00000000000E+00 0.  1.
         22    1    1    2    0    0 -0.57293861260E+03 -0.41818515212E+03 -0.89603596104E+01  0.70937843448E+03  0.00000000000E+00 0.  1.
<mgrwt>
<rscale>  0 0.15429107E+04</rscale>
<asrwt>0</asrwt>
<pdfrwt beam="1">  1        2 0.80033860E-01 0.15429107E+04</pdfrwt>
<pdfrwt beam="2">  1       -2 0.17600341E+00 0.15429107E+04</pdfrwt>
<totfact> 0.10934315E+01</totfact>
</mgrwt>
</event>
<event>
 6    1  0.1817112E-005  0.3569794E+04  0.7818608E-02  0.8097446E-01
          2   -1    0    0  501    0  0.00000000000E+00  0.00000000000E+00  0.17644200917E+04  0.17644200917E+04  0.00000000000E+00 0. -1.
         -2   -1    0    0    0  501 -0.00000000000E+00 -0.00000000000E+00 -0.18056116077E+04  0.18056116077E+04  0.00000000000E+00 0.  1.
         23    2    1    2    0    0  0.31486546228E+03  0.71514505616E+03  0.15829511156E+04  0.17676965478E+04  0.91892002073E+02 0.  0.
         11    1    3    3    0    0  0.17963660264E+03  0.29596587213E+03  0.71127869577E+03  0.79106415007E+03  0.00000000000E+00 0. -1.
        -11    1    3    3    0    0  0.13522885965E+03  0.41917918403E+03  0.87167241983E+03  0.97663239773E+03  0.00000000000E+00 0.  1.
         22    1    1    2    0    0 -0.31486546228E+03 -0.71514505616E+03 -0.16241426316E+04  0.18023351516E+04  0.00000000000E+00 0.  1.
<mgrwt>
<rscale>  0 0.35697941E+04</rscale>
<asrwt>0</asrwt>
<pdfrwt beam="1">  1        2 0.27144924E+00 0.35697941E+04</pdfrwt>
<pdfrwt beam="2">  1       -2 0.27778640E+00 0.35697941E+04</pdfrwt>
<totfact> 0.32053392E-01</totfact>
</mgrwt>
</event>
<event>
 6    1  0.1817112E-005  0.9577274E+03  0.7818608E-02  0.9356164E-01
         -2   -1    0    0    0  501 -0.00000000000E+00  0.00000000000E+00  0.11332103200E+03  0.11332103200E+03  0.00000000000E+00 0.  1.
          2   -1    0    0  501    0  0.00000000000E+00 -0.00000000000E+00 -0.20235470636E+04  0.20235470636E+04  0.00000000000E+00 0. -1.
         23    2    1    2    0    0  0.40993952808E+03  0.18985155528E+03 -0.63629419834E+03  0.78520380832E+03  0.87067123761E+02 0.  0.
         11    1    3    3    0    0  0.19872573277E+03  0.13992613086E+03 -0.33707114273E+03  0.41555769061E+03  0.00000000000E+00 0. -1.
        -11    1    3    3    0    0  0.21121379531E+03  0.49925424414E+02 -0.29922305561E+03  0.36964611771E+03  0.00000000000E+00 0.  1.
         22    1    1    2    0    0 -0.40993952808E+03 -0.18985155528E+03 -0.12739318333E+04  0.13516642873E+04  0.00000000000E+00 0.  1.
<mgrwt>
<rscale>  0 0.95772740E+03</rscale>
<asrwt>0</asrwt>
<pdfrwt beam="1">  1        2 0.31131490E+00 0.95772740E+03</pdfrwt>
<pdfrwt beam="2">  1       -2 0.17434007E-01 0.95772740E+03</pdfrwt>
<totfact> 0.17699198E+02</totfact>
</mgrwt>
</event>
<event>
 6    1  0.1817112E-005  0.2100004E+04  0.7818608E-02  0.8561242E-01
          2   -1    0    0  501    0  0.00000000000E+00  0.00000000000E+00  0.13848383087E+04  0.13848383087E+04  0.00000000000E+00 0. -1.
         -2   -1    0    0    0  501 -0.00000000000E+00 -0.00000000000E+00 -0.79612504035E+03  0.79612504035E+03  0.00000000000E+00 0.  1.
         23    2    1    2    0    0 -0.54984334487E+03 -0.33043052497E+03  0.11556201937E+04  0.13248701896E+04  0.91164420711E+02 0.  0.
         11    1    3    3    0    0 -0.18246615345E+03 -0.66656228289E+02  0.30811897119E+03  0.36424476706E+03  0.00000000000E+00 0.  1.
        -11    1    3    3    0    0 -0.36737719142E+03 -0.26377429668E+03  0.84750122249E+03  0.96062542257E+03  0.00000000000E+00 0. -1.
         22    1    1    2    0    0  0.54984334487E+03  0.33043052497E+03 -0.56690692529E+03  0.85609315946E+03  0.00000000000E+00 0.  1.
<mgrwt>
<rscale>  0 0.21000042E+04</rscale>
<asrwt>0</asrwt>
<pdfrwt beam="1">  1        2 0.21305205E+00 0.21000042E+04</pdfrwt>
<pdfrwt beam="2">  1       -2 0.12248078E+00 0.21000042E+04</pdfrwt>
<totfact> 0.68661819E+00</totfact>
</mgrwt>
</event>
<event>
 6    1  0.1817112E-005  0.3738653E+04  0.7818608E-02  0.8059449E-01
          2   -1    0    0  501    0  0.00000000000E+00  0.00000000000E+00  0.25752225372E+04  0.25752225372E+04  0.00000000000E+00 0. -1.
         -2   -1    0    0    0  501 -0.00000000000E+00 -0.00000000000E+00 -0.13569242475E+04  0.13569242475E+04  0.00000000000E+00 0.  1.
         23    2    1    2    0    0  0.14209913550E+04 -0.10186440484E+04 -0.82925065612E+02  0.17526894328E+04  0.90507199412E+02 0.  0.
         11    1    3    3    0    0  0.11098936803E+04 -0.76658933958E+03 -0.34058193982E+02  0.13493269277E+04  0.00000000000E+00 0.  1.
        -11    1    3    3    0    0  0.31109767469E+03 -0.25205470877E+03 -0.48866871630E+02  0.40336250514E+03  0.00000000000E+00 0. -1.
         22    1    1    2    0    0 -0.14209913550E+04  0.10186440484E+04  0.13012233554E+04  0.21794573519E+04  0.00000000000E+00 0. -1.
<mgrwt>
<rscale>  0 0.37386532E+04</rscale>
<asrwt>0</asrwt>
<pdfrwt beam="1">  1        2 0.39618808E+00 0.37386532E+04</pdfrwt>
<pdfrwt beam="2">  1       -2 0.20875758E+00 0.37386532E+04</pdfrwt>
<totfact> 0.29574972E-01</totfact>
</mgrwt>
</event>
<event>
 6    1  0.1817112E-005  0.1053987E+04  0.7818608E-02  0.9251238E-01
         -2   -1    0    0    0  501 -0.00000000000E+00  0.00000000000E+00  0.36971116722E+03  0.36971116722E+03  0.00000000000E+00 0.  1.
          2   -1    0    0  501    0  0.00000000000E+00 -0.00000000000E+00 -0.75118620096E+03  0.75118620096E+03  0.00000000000E+00 0. -1.
         23    2    1    2    0    0  0.21479496159E+03 -0.21343948346E+03 -0.64537263125E+03  0.71923179760E+03  0.95369056224E+02 0.  0.
         13    1    3    3    0    0  0.13753173454E+03 -0.11756932194E+03 -0.27728178209E+03  0.33109320462E+03  0.00000000000E+00 0. -1.
        -13    1    3    3    0    0  0.77263227052E+02 -0.95870161525E+02 -0.36809084916E+03  0.38813859298E+03  0.00000000000E+00 0.  1.
         22    1    1    2    0    0 -0.21479496159E+03  0.21343948346E+03  0.26389759751E+03  0.40166557059E+03  0.00000000000E+00 0.  1.
<mgrwt>
<rscale>  0 0.10539866E+04</rscale>
<asrwt>0</asrwt>
<pdfrwt beam="1">  1        2 0.11556711E+00 0.10539866E+04</pdfrwt>
<pdfrwt beam="2">  1       -2 0.56878641E-01 0.10539866E+04</pdfrwt>
<totfact> 0.10801216E+02</totfact>
</mgrwt>
</event>
<event>
 6    1  0.1817112E-005  0.2184852E+04  0.7818608E-02  0.8524760E-01
         -2   -1    0    0    0  501 -0.00000000000E+00  0.00000000000E+00  0.10214265056E+04  0.10214265056E+04  0.00000000000E+00 0.  1.
          2   -1    0    0  501    0  0.00000000000E+00 -0.00000000000E+00 -0.11683604318E+04  0.11683604318E+04  0.00000000000E+00 0. -1.
         23    2    1    2    0    0 -0.61183582375E+03 -0.16632187237E+03  0.81568825756E+03  0.10371172062E+04  0.90877529655E+02 0.  0.
         13    1    3    3    0    0 -0.24184768899E+03 -0.11198871710E+03  0.33338116656E+03  0.42681937590E+03  0.00000000000E+00 0.  1.
        -13    1    3    3    0    0 -0.36998813476E+03 -0.54333155278E+02  0.48230709100E+03  0.61029783029E+03  0.00000000000E+00 0. -1.
         22    1    1    2    0    0  0.61183582375E+03  0.16632187237E+03 -0.96262218382E+03  0.11526697312E+04  0.00000000000E+00 0. -1.
<mgrwt>
<rscale>  0 0.21848518E+04</rscale>
<asrwt>0</asrwt>
<pdfrwt beam="1">  1        2 0.17974776E+00 0.21848518E+04</pdfrwt>
<pdfrwt beam="2">  1       -2 0.15714254E+00 0.21848518E+04</pdfrwt>
<totfact> 0.47909771E+00</totfact>
</mgrwt>
</event>
<event>
 6    1  0.1817112E-005  0.3244181E+04  0.7818608E-02  0.8177246E-01
         -2   -1    0    0    0  501 -0.00000000000E+00  0.00000000000E+00  0.12120444837E+04  0.12120444837E+04  0.00000000000E+00 0.  1.
          2   -1    0    0  501    0  0.00000000000E+00 -0.00000000000E+00 -0.21708587977E+04  0.21708587977E+04  0.00000000000E+00 0. -1.
         23    2    1    2    0    0 -0.91336815895E+03 -0.11102048239E+04  0.30086909161E+03  0.14714644445E+04  0.88821486843E+02 0.  0.
         13    1    3    3    0    0 -0.30380169246E+03 -0.43673536781E+03  0.11145527281E+03  0.54355821002E+03  0.00000000000E+00 0. -1.
        -13    1    3    3    0    0 -0.60956646649E+03 -0.67346945607E+03  0.18941381880E+03  0.92790623453E+03  0.00000000000E+00 0.  1.
         22    1    1    2    0    0  0.91336815895E+03  0.11102048239E+04 -0.12596834055E+04  0.19114388368E+04  0.00000000000E+00 0. -1.
<mgrwt>
<rscale>  0 0.32441809E+04</rscale>
<asrwt>0</asrwt>
<pdfrwt beam="1">  1        2 0.33397827E+00 0.32441809E+04</pdfrwt>
<pdfrwt beam="2">  1       -2 0.18646838E+00 0.32441809E+04</pdfrwt>
<totfact> 0.73672066E-01</totfact>
</mgrwt>
</event>
<event>
 6    1  0.1817112E-005  0.6888048E+03  0.7818608E-02  0.9736571E-01
         -2   -1    0    0    0  501 -0.00000000000E+00  0.00000000000E+00  0.72794261213E+02  0.72794261213E+02  0.00000000000E+00 0.  1.
          2   -1    0    0  501    0  0.00000000000E+00 -0.00000000000E+00 -0.16294279941E+04  0.16294279941E+04  0.00000000000E+00 0. -1.
         23    2    1    2    0    0 -0.30166311787E+02 -0.13450659852E+03 -0.15555565203E+04  0.15643701904E+04  0.92173604792E+02 0.  0.
         13    1    3    3    0    0 -0.60955393352E+02 -0.64226459577E+02 -0.89649368349E+03  0.90085599439E+03  0.00000000000E+00 0.  1.
        -13    1    3    3    0    0  0.30789081565E+02 -0.70280138943E+02 -0.65906283680E+03  0.66351419602E+03  0.00000000000E+00 0. -1.
         22    1    1    2    0    0  0.30166311787E+02  0.13450659852E+03 -0.10772126040E+01  0.13785206491E+03  0.00000000000E+00 0.  1.
<mgrwt>
<rscale>  0 0.68880478E+03</rscale>
<asrwt>0</asrwt>
<pdfrwt beam="1">  1        2 0.25068122E+00 0.68880478E+03</pdfrwt>
<pdfrwt beam="2">  1       -2 0.11199118E-01 0.68880478E+03</pdfrwt>
<totfact> 0.62360704E+02</totfact>
</mgrwt>
</event>
<event>
 6    1  0.1817112E-005  0.3542516E+04  0.7818608E-02  0.8103787E-01
         -2   -1    0    0    0  501 -0.00000000000E+00  0.00000000000E+00  0.70220788930E+03  0.70220788930E+03  0.00000000000E+00 0.  1.
          2   -1    0    0  501    0  0.00000000000E+00 -0.00000000000E+00 -0.44678445324E+04  0.44678445324E+04  0.00000000000E+00 0. -1.
         23    2    1    2    0    0 -0.33524274911E+03 -0.69306182780E+03  0.44204769568E+03  0.89251459104E+03  0.91944178598E+02 0.  0.
         11    1    3    3    0    0 -0.94064042535E+02 -0.13678238912E+03  0.63509823534E+02  0.17773847011E+03  0.00000000000E+00 0.  1.
        -11    1    3    3    0    0 -0.24117870657E+03 -0.55627943868E+03  0.37853787215E+03  0.71477612093E+03  0.00000000000E+00 0. -1.
         22    1    1    2    0    0  0.33524274911E+03  0.69306182780E+03 -0.42076843388E+04  0.42775378306E+04  0.00000000000E+00 0. -1.
<mgrwt>
<rscale>  0 0.35425164E+04</rscale>
<asrwt>0</asrwt>
<pdfrwt beam="1">  1        2 0.68736073E+00 0.35425164E+04</pdfrwt>
<pdfrwt beam="2">  1       -2 0.10803198E+00 0.35425164E+04</pdfrwt>
<totfact> 0.73976817E-02</totfact>
</mgrwt>
</event>
<event>
 6    1  0.1817112E-005  0.3826965E+04  0.7818608E-02  0.8040393E-01
         -2   -1    0    0    0  501 -0.00000000000E+00  0.00000000000E+00  0.18035160696E+04  0.18035160696E+04  0.00000000000E+00 0.  1.
          2   -1    0    0  501    0  0.00000000000E+00 -0.00000000000E+00 -0.20301538557E+04  0.20301538557E+04  0.00000000000E+00 0. -1.
         23    2    1    2    0    0  0.30723759292E+03 -0.11637588844E+04 -0.16020879234E+04  0.20059410725E+04  0.91565237345E+02 0.  0.
         11    1    3    3    0    0  0.65824003663E+02 -0.30646527651E+03 -0.35672011554E+03  0.47487156790E+03  0.00000000000E+00 0. -1.
        -11    1    3    3    0    0  0.24141358925E+03 -0.85729360784E+03 -0.12453678078E+04  0.15310695046E+04  0.00000000000E+00 0.  1.
         22    1    1    2    0    0 -0.30723759292E+03  0.11637588844E+04  0.13754501373E+04  0.18277288528E+04  0.00000000000E+00 0.  1.
<mgrwt>
<rscale>  0 0.38269649E+04</rscale>
<asrwt>0</asrwt>
<pdfrwt beam="1">  1        2 0.31233136E+00 0.38269649E+04</pdfrwt>
<pdfrwt beam="2">  1       -2 0.27746401E+00 0.38269649E+04</pdfrwt>
<totfact> 0.22443153E-01</totfact>
</mgrwt>
</event>
<event>
 6    1  0.1817112E-005  0.1578552E+04  0.7818608E-02  0.8833834E-01
         -1   -1    0    0    0  501 -0.00000000000E+00  0.00000000000E+00  0.23560935021E+04  0.23560935021E+04  0.00000000000E+00 0.  1.
          1   -1    0    0  501    0  0.00000000000E+00 -0.00000000000E+00 -0.26440230872E+03  0.26440230872E+03  0.00000000000E+00 0. -1.
         23    2    1    2    0    0  0.17171840990E+03 -0.75986876180E+03  0.12311202963E+04  0.14596900492E+04  0.90277949380E+02 0.  0.
         11    1    3    3    0    0  0.50218024978E+02 -0.18903807386E+03  0.24122499001E+03  0.31055875323E+03  0.00000000000E+00 0.  1.
        -11    1    3    3    0    0  0.12150038492E+03 -0.57083068794E+03  0.98989530634E+03  0.11491312960E+04  0.00000000000E+00 0. -1.
         22    1    1    2    0    0 -0.17171840990E+03  0.75986876180E+03  0.86057089707E+03  0.11608057617E+04  0.00000000000E+00 0. -1.
<mgrwt>
<rscale>  0 0.15785519E+04</rscale>
<asrwt>0</asrwt>
<pdfrwt beam="1">  1        1 0.40677280E-01 0.15785519E+04</pdfrwt>
<pdfrwt beam="2">  1       -1 0.36247591E+00 0.15785519E+04</pdfrwt>
<totfact> 0.12811878E+00</totfact>
</mgrwt>
</event>
<event>
 6    1  0.1817112E-005  0.2165506E+04  0.7818608E-02  0.8532924E-01
         -2   -1    0    0    0  501 -0.00000000000E+00  0.00000000000E+00  0.46978900495E+03  0.46978900495E+03  0.00000000000E+00 0.  1.
          2   -1    0    0  501    0  0.00000000000E+00 -0.00000000000E+00 -0.24954912654E+04  0.24954912654E+04  0.00000000000E+00 0. -1.
         23    2    1    2    0    0 -0.38254648132E+03 -0.52977525737E+03  0.16393584484E+03  0.68021601177E+03  0.93889444312E+02 0.  0.
         13    1    3    3    0    0 -0.67183288636E+02 -0.11035052383E+03  0.70590193730E+02  0.14722026977E+03  0.00000000000E+00 0. -1.
        -13    1    3    3    0    0 -0.31536319268E+03 -0.41942473354E+03  0.93345651113E+02  0.53299574199E+03  0.00000000000E+00 0.  1.
         22    1    1    2    0    0  0.38254648132E+03  0.52977525737E+03 -0.21896381053E+04  0.22850642586E+04  0.00000000000E+00 0. -1.
<mgrwt>
<rscale>  0 0.21655063E+04</rscale>
<asrwt>0</asrwt>
<pdfrwt beam="1">  1        2 0.38392174E+00 0.21655063E+04</pdfrwt>
<pdfrwt beam="2">  1       -2 0.72275230E-01 0.21655063E+04</pdfrwt>
<totfact> 0.55638845E+00</totfact>
</mgrwt>
</event>
<event>
 6    1  0.1817112E-005  0.2856152E+04  0.7818608E-02  0.8286045E-01
          2   -1    0    0  501    0  0.00000000000E+00  0.00000000000E+00  0.33105352354E+04  0.33105352354E+04  0.00000000000E+00 0. -1.
         -2   -1    0    0    0  501 -0.00000000000E+00 -0.00000000000E+00 -0.61603344540E+03  0.61603344540E+03  0.00000000000E+00 0.  1.
         23    2    1    2    0    0  0.42948674137E+03 -0.81550957404E+03  0.28456227317E+04  0.29925706801E+04  0.91628695665E+02 0.  0.
         11    1    3    3    0    0  0.20006227834E+03 -0.44201195289E+03  0.16090334140E+04  0.16805915652E+04  0.00000000000E+00 0.  1.
        -11    1    3    3    0    0  0.22942446303E+03 -0.37349762114E+03  0.12365893177E+04  0.13119791149E+04  0.00000000000E+00 0. -1.
         22    1    1    2    0    0 -0.42948674137E+03  0.81550957404E+03 -0.15112094167E+03  0.93399800073E+03  0.00000000000E+00 0.  1.
<mgrwt>
<rscale>  0 0.28561516E+04</rscale>
<asrwt>0</asrwt>
<pdfrwt beam="1">  1        2 0.50931310E+00 0.28561516E+04</pdfrwt>
<pdfrwt beam="2">  1       -2 0.94774378E-01 0.28561516E+04</pdfrwt>
<totfact> 0.88924625E-01</totfact>
</mgrwt>
</event>
<event>
 6    1  0.1817112E-005  0.2066245E+04  0.7818608E-02  0.8576260E-01
         -2   -1    0    0    0  501 -0.00000000000E+00  0.00000000000E+00  0.57739168905E+03  0.57739168905E+03  0.00000000000E+00 0.  1.
          2   -1    0    0  501    0  0.00000000000E+00 -0.00000000000E+00 -0.18485578724E+04  0.18485578724E+04  0.00000000000E+00 0. -1.
         23    2    1    2    0    0  0.31116504135E+03 -0.70516783003E+03  0.16731891962E+03  0.79397997138E+03  0.91231697479E+02 0.  0.
         11    1    3    3    0    0  0.11678221837E+03 -0.16986390453E+03  0.57236086250E+02  0.21393410705E+03  0.00000000000E+00 0. -1.
        -11    1    3    3    0    0  0.19438282298E+03 -0.53530392550E+03  0.11008283337E+03  0.58004586433E+03  0.00000000000E+00 0.  1.
         22    1    1    2    0    0 -0.31116504135E+03  0.70516783003E+03 -0.14384851029E+04  0.16319695900E+04  0.00000000000E+00 0. -1.
<mgrwt>
<rscale>  0 0.20662449E+04</rscale>
<asrwt>0</asrwt>
<pdfrwt beam="1">  1        2 0.28439352E+00 0.20662449E+04</pdfrwt>
<pdfrwt beam="2">  1       -2 0.88829490E-01 0.20662449E+04</pdfrwt>
<totfact> 0.81619130E+00</totfact>
</mgrwt>
</event>
<event>
 6    1  0.1817112E-005  0.2262700E+04  0.7818608E-02  0.8492775E-01
         -2   -1    0    0    0  501 -0.00000000000E+00  0.00000000000E+00  0.56481416831E+03  0.56481416831E+03  0.00000000000E+00 0.  1.
          2   -1    0    0  501    0  0.00000000000E+00 -0.00000000000E+00 -0.22661492577E+04  0.22661492577E+04  0.00000000000E+00 0. -1.
         23    2    1    2    0    0 -0.27377453179E+02  0.11012487124E+04 -0.54024727595E+03  0.12304562682E+04  0.93044384047E+02 0.  0.
         11    1    3    3    0    0  0.68505111198E+01  0.86304976565E+03 -0.45087739022E+03  0.97375163595E+03  0.00000000000E+00 0.  1.
        -11    1    3    3    0    0 -0.34227964299E+02  0.23819894675E+03 -0.89369885727E+02  0.25670463230E+03  0.00000000000E+00 0. -1.
         22    1    1    2    0    0  0.27377453179E+02 -0.11012487124E+04 -0.11610878134E+04  0.16005071577E+04  0.00000000000E+00 0. -1.
<mgrwt>
<rscale>  0 0.22627003E+04</rscale>
<asrwt>0</asrwt>
<pdfrwt beam="1">  1        2 0.34863835E+00 0.22627003E+04</pdfrwt>
<pdfrwt beam="2">  1       -2 0.86894486E-01 0.22627003E+04</pdfrwt>
<totfact> 0.49362651E+00</totfact>
</mgrwt>
</event>
<event>
 6    1  0.1817112E-005  0.4163474E+04  0.7818608E-02  0.7972357E-01
          2   -1    0    0  501    0  0.00000000000E+00  0.00000000000E+00  0.31143687050E+04  0.31143687050E+04  0.00000000000E+00 0. -1.
         -2   -1    0    0    0  501 -0.00000000000E+00 -0.00000000000E+00 -0.13914948933E+04  0.13914948933E+04  0.00000000000E+00 0.  1.
         23    2    1    2    0    0  0.12872736088E+04  0.22643076868E+03 -0.89026326542E+03  0.15840782501E+04  0.91602313088E+02 0.  0.
         11    1    3    3    0    0  0.10919073611E+04  0.22463667900E+03 -0.75073857038E+03  0.13439984091E+04  0.00000000000E+00 0. -1.
        -11    1    3    3    0    0  0.19536624773E+03  0.17940896836E+01 -0.13952469504E+03  0.24007984096E+03  0.00000000000E+00 0.  1.
         22    1    1    2    0    0 -0.12872736088E+04 -0.22643076868E+03  0.26131370772E+04  0.29217853482E+04  0.00000000000E+00 0. -1.
<mgrwt>
<rscale>  0 0.41634736E+04</rscale>
<asrwt>0</asrwt>
<pdfrwt beam="1">  1        2 0.47913364E+00 0.41634736E+04</pdfrwt>
<pdfrwt beam="2">  1       -2 0.21407614E+00 0.41634736E+04</pdfrwt>
<totfact> 0.12356103E-01</totfact>
</mgrwt>
</event>
<event>
 6    1  0.1817112E-005  0.3245935E+04  0.7818608E-02  0.8176790E-01
         -1   -1    0    0    0  501 -0.00000000000E+00  0.00000000000E+00  0.87975972254E+03  0.87975972254E+03  0.00000000000E+00 0.  1.
          1   -1    0    0  501    0  0.00000000000E+00 -0.00000000000E+00 -0.29940254778E+04  0.29940254778E+04  0.00000000000E+00 0. -1.
         23    2    1    2    0    0 -0.39265836400E+03  0.78430999027E+03  0.56990592604E+03  0.10499402389E+04  0.90878980097E+02 0.  0.
         13    1    3    3    0    0 -0.34020109420E+03  0.67830844015E+03  0.52802552405E+03  0.92447286522E+03  0.00000000000E+00 0. -1.
        -13    1    3    3    0    0 -0.52457269803E+02  0.10600155012E+03  0.41880401991E+02  0.12546737366E+03  0.00000000000E+00 0.  1.
         22    1    1    2    0    0  0.39265836400E+03 -0.78430999027E+03 -0.26841716813E+04  0.28238449614E+04  0.00000000000E+00 0. -1.
<mgrwt>
<rscale>  0 0.32459347E+04</rscale>
<asrwt>0</asrwt>
<pdfrwt beam="1">  1        1 0.46061931E+00 0.32459347E+04</pdfrwt>
<pdfrwt beam="2">  1       -1 0.13534765E+00 0.32459347E+04</pdfrwt>
<totfact> 0.23006903E-01</totfact>
</mgrwt>
</event>
<event>
 6    1  0.1817112E-005  0.1218993E+04  0.7818608E-02  0.9096392E-01
         -1   -1    0    0    0  501 -0.00000000000E+00  0.00000000000E+00  0.95341835216E+03  0.95341835216E+03  0.00000000000E+00 0.  1.
          1   -1    0    0  501    0  0.00000000000E+00 -0.00000000000E+00 -0.38963609839E+03  0.38963609839E+03  0.00000000000E+00 0. -1.
         23    2    1    2    0    0 -0.36977086118E+03 -0.41499686259E+03  0.55316239749E+03  0.78711770317E+03  0.67917265179E+02 0.  0.
         13    1    3    3    0    0 -0.25093842407E+03 -0.29724336393E+03  0.42669335983E+03  0.57740015015E+03  0.00000000000E+00 0.  1.
        -13    1    3    3    0    0 -0.11883243711E+03 -0.11775349866E+03  0.12646903766E+03  0.20971755302E+03  0.00000000000E+00 0. -1.
         22    1    1    2    0    0  0.36977086118E+03  0.41499686259E+03  0.10619856286E+02  0.55593674738E+03  0.00000000000E+00 0. -1.
<mgrwt>
<rscale>  0 0.12189934E+04</rscale>
<asrwt>0</asrwt>
<pdfrwt beam="1">  1        1 0.59944016E-01 0.12189934E+04</pdfrwt>
<pdfrwt beam="2">  1       -1 0.14667975E+00 0.12189934E+04</pdfrwt>
<totfact> 0.22756672E+01</totfact>
</mgrwt>
</event>
<event>
 6    1  0.1817112E-005  0.2328370E+04  0.7818608E-02  0.8466818E-01
          2   -1    0    0  501    0  0.00000000000E+00  0.00000000000E+00  0.18275531143E+04  0.18275531143E+04  0.00000000000E+00 0. -1.
         -2   -1    0    0    0  501 -0.00000000000E+00 -0.00000000000E+00 -0.74160755046E+03  0.74160755046E+03  0.00000000000E+00 0.  1.
         23    2    1    2    0    0  0.37314603144E+02  0.80086036001E+03 -0.38551646221E+03  0.89346075429E+03  0.82942636686E+02 0.  0.
         13    1    3    3    0    0  0.61951230348E+02  0.66773110986E+03 -0.32308561945E+03  0.74437027581E+03  0.00000000000E+00 0.  1.
        -13    1    3    3    0    0 -0.24636627204E+02  0.13312925015E+03 -0.62430842758E+02  0.14909047848E+03  0.00000000000E+00 0. -1.
         22    1    1    2    0    0 -0.37314603144E+02 -0.80086036001E+03  0.14714620260E+04  0.16756999104E+04  0.00000000000E+00 0. -1.
<mgrwt>
<rscale>  0 0.23283704E+04</rscale>
<asrwt>0</asrwt>
<pdfrwt beam="1">  1        2 0.28116202E+00 0.23283704E+04</pdfrwt>
<pdfrwt beam="2">  1       -2 0.11409347E+00 0.23283704E+04</pdfrwt>
<totfact> 0.45297935E+00</totfact>
</mgrwt>
</event>
<event>
 6    1  0.1817112E-005  0.1047835E+04  0.7818608E-02  0.9257582E-01
         -2   -1    0    0    0  501 -0.00000000000E+00  0.00000000000E+00  0.23060493005E+03  0.23060493005E+03  0.00000000000E+00 0. -1.
          2   -1    0    0  501    0  0.00000000000E+00 -0.00000000000E+00 -0.11903031774E+04  0.11903031774E+04  0.00000000000E+00 0.  1.
         23    2    1    2    0    0 -0.12147811266E+03  0.72988369758E+02 -0.11618050881E+04  0.11740652241E+04  0.92487046249E+02 0.  0.
         13    1    3    3    0    0  0.55340289969E+01  0.11412300033E+02 -0.33926002631E+03  0.33949702726E+03  0.00000000000E+00 0.  1.
        -13    1    3    3    0    0 -0.12701214165E+03  0.61576069725E+02 -0.82254506176E+03  0.83456819680E+03  0.00000000000E+00 0. -1.
         22    1    1    2    0    0  0.12147811266E+03 -0.72988369758E+02  0.20210684077E+03  0.24684288335E+03  0.00000000000E+00 0. -1.
<mgrwt>
<rscale>  0 0.10478354E+04</rscale>
<asrwt>0</asrwt>
<pdfrwt beam="1">  1        2 0.18312356E+00 0.10478354E+04</pdfrwt>
<pdfrwt beam="2">  1       -2 0.35477682E-01 0.10478354E+04</pdfrwt>
<totfact> 0.14252506E+02</totfact>
</mgrwt>
</event>
<event>
 6    1  0.1817112E-005  0.1365964E+04  0.7818608E-02  0.8978830E-01
         -2   -1    0    0    0  501 -0.00000000000E+00  0.00000000000E+00  0.13840205647E+04  0.13840205647E+04  0.00000000000E+00 0. -1.
          2   -1    0    0  501    0  0.00000000000E+00 -0.00000000000E+00 -0.33703595904E+03  0.33703595904E+03  0.00000000000E+00 0.  1.
         23    2    1    2    0    0 -0.38058330631E+03  0.24483201718E+03 -0.11830595192E+03  0.47098114470E+03  0.55141370392E+02 0.  0.
         11    1    3    3    0    0 -0.19250365711E+03  0.15478769428E+03 -0.55066942473E+02  0.25307954571E+03  0.00000000000E+00 0. -1.
        -11    1    3    3    0    0 -0.18807964920E+03  0.90044322891E+02 -0.63239009449E+02  0.21790159899E+03  0.00000000000E+00 0.  1.
         22    1    1    2    0    0  0.38058330631E+03 -0.24483201718E+03  0.11652905576E+04  0.12500753790E+04  0.00000000000E+00 0. -1.
<mgrwt>
<rscale>  0 0.13659644E+04</rscale>
<asrwt>0</asrwt>
<pdfrwt beam="1">  1        2 0.51851687E-01 0.13659644E+04</pdfrwt>
<pdfrwt beam="2">  1       -2 0.21292624E+00 0.13659644E+04</pdfrwt>
<totfact> 0.10307630E+01</totfact>
</mgrwt>
</event>
<event>
 6    1  0.1817112E-005  0.2235115E+04  0.7818608E-02  0.8503953E-01
          1   -1    0    0  501    0  0.00000000000E+00  0.00000000000E+00  0.13716556254E+04  0.13716556254E+04  0.00000000000E+00 0. -1.
         -1   -1    0    0    0  501 -0.00000000000E+00 -0.00000000000E+00 -0.91053066091E+03  0.91053066091E+03  0.00000000000E+00 0.  1.
         23    2    1    2    0    0  0.74180802499E+03  0.26556458267E+03 -0.57561426928E+03  0.98002196014E+03  0.91145827358E+02 0.  0.
         13    1    3    3    0    0  0.27687532507E+03  0.14256986212E+03 -0.20469599086E+03  0.37267487156E+03  0.00000000000E+00 0. -1.
        -13    1    3    3    0    0  0.46493269993E+03  0.12299472055E+03 -0.37091827841E+03  0.60734708858E+03  0.00000000000E+00 0.  1.
         22    1    1    2    0    0 -0.74180802499E+03 -0.26556458267E+03  0.10367392338E+04  0.13021643262E+04  0.00000000000E+00 0. -1.
<mgrwt>
<rscale>  0 0.22351148E+04</rscale>
<asrwt>0</asrwt>
<pdfrwt beam="1">  1        1 0.21102394E+00 0.22351148E+04</pdfrwt>
<pdfrwt beam="2">  1       -1 0.14008164E+00 0.22351148E+04</pdfrwt>
<totfact> 0.30604216E+00</totfact>
</mgrwt>
</event>
<event>
 6    1  0.1817112E-005  0.2068286E+04  0.7818608E-02  0.8575344E-01
          2   -1    0    0  501    0  0.00000000000E+00  0.00000000000E+00  0.22759111362E+04  0.22759111362E+04  0.00000000000E+00 0. -1.
         -2   -1    0    0    0  501 -0.00000000000E+00 -0.00000000000E+00 -0.46990061038E+03  0.46990061038E+03  0.00000000000E+00 0.  1.
         23    2    1    2    0    0  0.45337898194E+03  0.60835011643E+03  0.18337362537E+04  0.19865943328E+04  0.91247081263E+02 0.  0.
         11    1    3    3    0    0  0.27917943835E+03  0.30414102005E+03  0.10361388519E+04  0.11153594216E+04  0.00000000000E+00 0. -1.
        -11    1    3    3    0    0  0.17419954359E+03  0.30420909638E+03  0.79759740174E+03  0.87123491124E+03  0.00000000000E+00 0.  1.
         22    1    1    2    0    0 -0.45337898194E+03 -0.60835011643E+03 -0.27725727805E+02  0.75921741379E+03  0.00000000000E+00 0.  1.
<mgrwt>
<rscale>  0 0.20682863E+04</rscale>
<asrwt>0</asrwt>
<pdfrwt beam="1">  1        2 0.35014017E+00 0.20682863E+04</pdfrwt>
<pdfrwt beam="2">  1       -2 0.72292403E-01 0.20682863E+04</pdfrwt>
<totfact> 0.74870879E+00</totfact>
</mgrwt>
</event>
<event>
 6    1  0.1817112E-005  0.1269965E+04  0.7818608E-02  0.9053728E-01
         -2   -1    0    0    0  501 -0.00000000000E+00  0.00000000000E+00  0.12518941304E+03  0.12518941304E+03  0.00000000000E+00 0.  1.
          2   -1    0    0  501    0  0.00000000000E+00 -0.00000000000E+00 -0.32207407352E+04  0.32207407352E+04  0.00000000000E+00 0. -1.
         23    2    1    2    0    0  0.51646249489E+03 -0.36372995118E+03 -0.15505798251E+04  0.16768076504E+04  0.91395385413E+02 0.  0.
         13    1    3    3    0    0  0.76972533441E+02 -0.75381071428E+02 -0.19324864708E+03  0.22125125182E+03  0.00000000000E+00 0. -1.
        -13    1    3    3    0    0  0.43948996145E+03 -0.28834887975E+03 -0.13573311780E+04  0.14555563986E+04  0.00000000000E+00 0.  1.
         22    1    1    2    0    0 -0.51646249489E+03  0.36372995118E+03 -0.15449714971E+04  0.16691224978E+04  0.00000000000E+00 0. -1.
<mgrwt>
<rscale>  0 0.12699648E+04</rscale>
<asrwt>0</asrwt>
<pdfrwt beam="1">  1        2 0.49549857E+00 0.12699648E+04</pdfrwt>
<pdfrwt beam="2">  1       -2 0.19259910E-01 0.12699648E+04</pdfrwt>
<totfact> 0.28653149E+01</totfact>
</mgrwt>
</event>
<event>
 6    1  0.1817112E-005  0.2955444E+04  0.7818608E-02  0.8256570E-01
          2   -1    0    0  501    0  0.00000000000E+00  0.00000000000E+00  0.12549517989E+04  0.12549517989E+04  0.00000000000E+00 0. -1.
         -2   -1    0    0    0  501 -0.00000000000E+00 -0.00000000000E+00 -0.17400369083E+04  0.17400369083E+04  0.00000000000E+00 0.  1.
         23    2    1    2    0    0 -0.70277151529E+03  0.89087426914E+03 -0.11998451047E+04  0.16539344142E+04  0.91246945141E+02 0.  0.
         13    1    3    3    0    0 -0.30782400346E+03  0.45597915810E+03 -0.55048659056E+03  0.77827250762E+03  0.00000000000E+00 0. -1.
        -13    1    3    3    0    0 -0.39494751183E+03  0.43489511105E+03 -0.64935851415E+03  0.87566190657E+03  0.00000000000E+00 0.  1.
         22    1    1    2    0    0  0.70277151529E+03 -0.89087426914E+03  0.71475999528E+03  0.13410542931E+04  0.00000000000E+00 0. -1.
<mgrwt>
<rscale>  0 0.29554441E+04</rscale>
<asrwt>0</asrwt>
<pdfrwt beam="1">  1        2 0.19306951E+00 0.29554441E+04</pdfrwt>
<pdfrwt beam="2">  1       -2 0.26769799E+00 0.29554441E+04</pdfrwt>
<totfact> 0.75565054E-01</totfact>
</mgrwt>
</event>
<event>
 6    1  0.1817112E-005  0.3574391E+04  0.7818608E-02  0.8096383E-01
         -2   -1    0    0    0  501 -0.00000000000E+00  0.00000000000E+00  0.16507620643E+04  0.16507620643E+04  0.00000000000E+00 0. -1.
          2   -1    0    0  501    0  0.00000000000E+00 -0.00000000000E+00 -0.19349051327E+04  0.19349051327E+04  0.00000000000E+00 0.  1.
         23    2    1    2    0    0 -0.90528919688E+03  0.17671307209E+03 -0.16763308709E+04  0.19156483596E+04  0.94060666751E+02 0.  0.
         11    1    3    3    0    0 -0.72748776382E+03  0.17957898899E+03 -0.13582851030E+04  0.15512657673E+04  0.00000000000E+00 0. -1.
        -11    1    3    3    0    0 -0.17780143306E+03 -0.28659168963E+01 -0.31804576797E+03  0.36438259234E+03  0.00000000000E+00 0.  1.
         22    1    1    2    0    0  0.90528919688E+03 -0.17671307209E+03  0.13921878025E+04  0.16700188374E+04  0.00000000000E+00 0. -1.
<mgrwt>
<rscale>  0 0.35743911E+04</rscale>
<asrwt>0</asrwt>
<pdfrwt beam="1">  1        2 0.29767771E+00 0.35743911E+04</pdfrwt>
<pdfrwt beam="2">  1       -2 0.25396340E+00 0.35743911E+04</pdfrwt>
<totfact> 0.36036869E-01</totfact>
</mgrwt>
</event>
<event>
 6    1  0.1817112E-005  0.1699038E+04  0.7818608E-02  0.8761913E-01
         -2   -1    0    0    0  501 -0.00000000000E+00  0.00000000000E+00  0.49376246198E+03  0.49376246198E+03  0.00000000000E+00 0.  1.
          2   -1    0    0  501    0  0.00000000000E+00 -0.00000000000E+00 -0.14615982257E+04  0.14615982257E+04  0.00000000000E+00 0. -1.
         23    2    1    2    0    0  0.64679497466E+03  0.52754432207E+03 -0.31967606067E+03  0.89859309182E+03  0.92897846614E+02 0.  0.
         13    1    3    3    0    0  0.36302320579E+03  0.28922198529E+03 -0.22660165258E+03  0.51651090372E+03  0.00000000000E+00 0. -1.
        -13    1    3    3    0    0  0.28377176888E+03  0.23832233678E+03 -0.93074408093E+02  0.38208218810E+03  0.00000000000E+00 0.  1.
         22    1    1    2    0    0 -0.64679497466E+03 -0.52754432207E+03 -0.64815970305E+03  0.10567675959E+04  0.00000000000E+00 0.  1.
<mgrwt>
<rscale>  0 0.16990378E+04</rscale>
<asrwt>0</asrwt>
<pdfrwt beam="1">  1        2 0.22486127E+00 0.16990378E+04</pdfrwt>
<pdfrwt beam="2">  1       -2 0.75963455E-01 0.16990378E+04</pdfrwt>
<totfact> 0.19712351E+01</totfact>
</mgrwt>
</event>
<event>
 6    1  0.1817112E-005  0.9816422E+03  0.7818608E-02  0.9328912E-01
         -2   -1    0    0    0  501 -0.00000000000E+00  0.00000000000E+00  0.34967594994E+03  0.34967594994E+03  0.00000000000E+00 0.  1.
          2   -1    0    0  501    0  0.00000000000E+00 -0.00000000000E+00 -0.68893890302E+03  0.68893890302E+03  0.00000000000E+00 0. -1.
         23    2    1    2    0    0  0.20020469399E+03  0.88792168124E+01  0.29692923018E+03  0.37160566710E+03  0.98808117564E+02 0.  0.
         13    1    3    3    0    0  0.45283627816E+02 -0.16854987547E+01  0.11626143368E+02  0.46782636350E+02  0.00000000000E+00 0. -1.
        -13    1    3    3    0    0  0.15492106618E+03  0.10564715567E+02  0.28530308681E+03  0.32482303075E+03  0.00000000000E+00 0.  1.
         22    1    1    2    0    0 -0.20020469399E+03 -0.88792168124E+01 -0.63619218326E+03  0.66700918586E+03  0.00000000000E+00 0. -1.
<mgrwt>
<rscale>  0 0.98164223E+03</rscale>
<asrwt>0</asrwt>
<pdfrwt beam="1">  1        2 0.10599060E+00 0.98164223E+03</pdfrwt>
<pdfrwt beam="2">  1       -2 0.53796301E-01 0.98164223E+03</pdfrwt>
<totfact> 0.13604198E+02</totfact>
</mgrwt>
</event>
<event>
 6    1  0.1817112E-005  0.4929188E+04  0.7818608E-02  0.7839524E-01
          2   -1    0    0  501    0  0.00000000000E+00  0.00000000000E+00  0.38173394639E+04  0.38173394639E+04  0.00000000000E+00 0. -1.
         -2   -1    0    0    0  501 -0.00000000000E+00 -0.00000000000E+00 -0.15912188636E+04  0.15912188636E+04  0.00000000000E+00 0.  1.
         23    2    1    2    0    0 -0.19347097977E+04 -0.10055505637E+03 -0.55670317640E+03  0.20177882833E+04  0.91311601759E+02 0.  0.
         11    1    3    3    0    0 -0.18873523917E+04 -0.93714025806E+02 -0.52827086349E+03  0.19621293215E+04  0.00000000000E+00 0. -1.
        -11    1    3    3    0    0 -0.47357406013E+02 -0.68410305653E+01 -0.28432312916E+02  0.55658961733E+02  0.00000000000E+00 0.  1.
         22    1    1    2    0    0  0.19347097977E+04  0.10055505637E+03  0.27828237767E+04  0.33907700443E+04  0.00000000000E+00 0. -1.
<mgrwt>
<rscale>  0 0.49291876E+04</rscale>
<asrwt>0</asrwt>
<pdfrwt beam="1">  1        2 0.58728299E+00 0.49291876E+04</pdfrwt>
<pdfrwt beam="2">  1       -2 0.24480290E+00 0.49291876E+04</pdfrwt>
<totfact> 0.24044460E-02</totfact>
</mgrwt>
</event>
<event>
 6    1  0.1817112E-005  0.2582727E+04  0.7818608E-02  0.8374092E-01
          2   -1    0    0  501    0  0.00000000000E+00  0.00000000000E+00  0.13820174761E+04  0.13820174761E+04  0.00000000000E+00 0. -1.
         -2   -1    0    0    0  501 -0.00000000000E+00 -0.00000000000E+00 -0.12066558983E+04  0.12066558983E+04  0.00000000000E+00 0.  1.
         23    2    1    2    0    0 -0.82220191169E+03  0.65124595445E+03  0.84022723741E+03  0.13468265150E+04  0.88445318511E+02 0.  0.
         11    1    3    3    0    0 -0.59157914325E+03  0.41939665903E+03  0.56141758980E+03  0.91708731889E+03  0.00000000000E+00 0. -1.
        -11    1    3    3    0    0 -0.23062276844E+03  0.23184929542E+03  0.27880964761E+03  0.42973919615E+03  0.00000000000E+00 0.  1.
         22    1    1    2    0    0  0.82220191169E+03 -0.65124595445E+03 -0.66486565961E+03  0.12418468594E+04  0.00000000000E+00 0.  1.
<mgrwt>
<rscale>  0 0.25827269E+04</rscale>
<asrwt>0</asrwt>
<pdfrwt beam="1">  1        2 0.21261807E+00 0.25827269E+04</pdfrwt>
<pdfrwt beam="2">  1       -2 0.18563937E+00 0.25827269E+04</pdfrwt>
<totfact> 0.21776862E+00</totfact>
</mgrwt>
</event>
<event>
 6    1  0.1817112E-005  0.1595081E+04  0.7818608E-02  0.8823576E-01
          1   -1    0    0  501    0  0.00000000000E+00  0.00000000000E+00  0.18864226212E+04  0.18864226212E+04  0.00000000000E+00 0. -1.
         -1   -1    0    0    0  501 -0.00000000000E+00 -0.00000000000E+00 -0.33718344674E+03  0.33718344674E+03  0.00000000000E+00 0.  1.
         23    2    1    2    0    0  0.37555513184E+03 -0.23158948326E+03  0.16989640217E+04  0.17576738029E+04  0.90901619433E+02 0.  0.
         11    1    3    3    0    0  0.17556817884E+03 -0.15917010392E+03  0.84252835801E+03  0.87522188127E+03  0.00000000000E+00 0.  1.
        -11    1    3    3    0    0  0.19998695299E+03 -0.72419379337E+02  0.85643566368E+03  0.88245192158E+03  0.00000000000E+00 0. -1.
         22    1    1    2    0    0 -0.37555513184E+03  0.23158948326E+03 -0.14972484720E+03  0.46593226512E+03  0.00000000000E+00 0.  1.
<mgrwt>
<rscale>  0 0.15950805E+04</rscale>
<asrwt>0</asrwt>
<pdfrwt beam="1">  1        1 0.29021886E+00 0.15950805E+04</pdfrwt>
<pdfrwt beam="2">  1       -1 0.51874378E-01 0.15950805E+04</pdfrwt>
<totfact> 0.12782685E+01</totfact>
</mgrwt>
</event>
<event>
 6    1  0.1817112E-005  0.4258094E+04  0.7818608E-02  0.7954413E-01
         -2   -1    0    0    0  501 -0.00000000000E+00  0.00000000000E+00  0.17002622759E+04  0.17002622759E+04  0.00000000000E+00 0.  1.
          2   -1    0    0  501    0  0.00000000000E+00 -0.00000000000E+00 -0.26659655584E+04  0.26659655584E+04  0.00000000000E+00 0. -1.
         23    2    1    2    0    0 -0.50555144211E+03  0.12906939753E+04 -0.21387598976E+04  0.25503162117E+04  0.91354704405E+02 0.  0.
         11    1    3    3    0    0 -0.84078139041E+02  0.28775032271E+03 -0.41467481621E+03  0.51168797609E+03  0.00000000000E+00 0.  1.
        -11    1    3    3    0    0 -0.42147330307E+03  0.10029436526E+04 -0.17240850814E+04  0.20386282357E+04  0.00000000000E+00 0. -1.
         22    1    1    2    0    0  0.50555144211E+03 -0.12906939753E+04  0.11730566151E+04  0.18159116225E+04  0.00000000000E+00 0.  1.
<mgrwt>
<rscale>  0 0.42580938E+04</rscale>
<asrwt>0</asrwt>
<pdfrwt beam="1">  1        2 0.41014854E+00 0.42580938E+04</pdfrwt>
<pdfrwt beam="2">  1       -2 0.26157881E+00 0.42580938E+04</pdfrwt>
<totfact> 0.11728431E-01</totfact>
</mgrwt>
</event>
<event>
 6    1  0.1817112E-005  0.2660061E+04  0.7818608E-02  0.8348081E-01
         -2   -1    0    0    0  501 -0.00000000000E+00  0.00000000000E+00  0.99474501025E+03  0.99474501025E+03  0.00000000000E+00 0.  1.
          2   -1    0    0  501    0  0.00000000000E+00 -0.00000000000E+00 -0.17783267401E+04  0.17783267401E+04  0.00000000000E+00 0. -1.
         23    2    1    2    0    0  0.55359578298E+03 -0.17545962833E+03 -0.16378600623E+04  0.17400926406E+04  0.89902403121E+02 0.  0.
         11    1    3    3    0    0  0.10431132130E+03 -0.36305221597E+01 -0.23758296359E+03  0.25949893455E+03  0.00000000000E+00 0. -1.
        -11    1    3    3    0    0  0.44928446167E+03 -0.17182910617E+03 -0.14002770987E+04  0.14805937060E+04  0.00000000000E+00 0.  1.
         22    1    1    2    0    0 -0.55359578298E+03  0.17545962833E+03  0.85427833240E+03  0.10329791098E+04  0.00000000000E+00 0.  1.
<mgrwt>
<rscale>  0 0.26600614E+04</rscale>
<asrwt>0</asrwt>
<pdfrwt beam="1">  1        2 0.27358873E+00 0.26600614E+04</pdfrwt>
<pdfrwt beam="2">  1       -2 0.15303770E+00 0.26600614E+04</pdfrwt>
<totfact> 0.22182561E+00</totfact>
</mgrwt>
</event>
<event>
 6    1  0.1817112E-005  0.2431100E+04  0.7818608E-02  0.8427951E-01
          2   -1    0    0  501    0  0.00000000000E+00  0.00000000000E+00  0.23996304006E+04  0.23996304006E+04  0.00000000000E+00 0. -1.
         -2   -1    0    0    0  501 -0.00000000000E+00 -0.00000000000E+00 -0.61574573531E+03  0.61574573531E+03  0.00000000000E+00 0.  1.
         23    2    1    2    0    0 -0.94477834960E+03 -0.72453838633E+03  0.59877924336E+03  0.13354842155E+04  0.86136545474E+02 0.  0.
         13    1    3    3    0    0 -0.41183602372E+03 -0.36245265781E+03  0.29977078874E+03  0.62517466789E+03  0.00000000000E+00 0.  1.
        -13    1    3    3    0    0 -0.53294232588E+03 -0.36208572853E+03  0.29900845461E+03  0.71030954763E+03  0.00000000000E+00 0. -1.
         22    1    1    2    0    0  0.94477834960E+03  0.72453838633E+03  0.11851054220E+04  0.16798919204E+04  0.00000000000E+00 0. -1.
<mgrwt>
<rscale>  0 0.24311003E+04</rscale>
<asrwt>0</asrwt>
<pdfrwt beam="1">  1        2 0.36917390E+00 0.24311003E+04</pdfrwt>
<pdfrwt beam="2">  1       -2 0.94730114E-01 0.24311003E+04</pdfrwt>
<totfact> 0.33466460E+00</totfact>
</mgrwt>
</event>
<event>
 6    1  0.1817112E-005  0.1764547E+04  0.7818608E-02  0.8725384E-01
          2   -1    0    0  501    0  0.00000000000E+00  0.00000000000E+00  0.16219525382E+04  0.16219525382E+04  0.00000000000E+00 0. -1.
         -2   -1    0    0    0  501 -0.00000000000E+00 -0.00000000000E+00 -0.47991920096E+03  0.47991920096E+03  0.00000000000E+00 0.  1.
         23    2    1    2    0    0 -0.16690336552E+03 -0.86399271355E+02  0.15964963431E+04  0.16100809390E+04  0.90766121531E+02 0.  0.
         11    1    3    3    0    0 -0.18190933309E+02 -0.33231351110E+02  0.59536615844E+03  0.59657027697E+03  0.00000000000E+00 0. -1.
        -11    1    3    3    0    0 -0.14871243221E+03 -0.53167920244E+02  0.10011301847E+04  0.10135106620E+04  0.00000000000E+00 0.  1.
         22    1    1    2    0    0  0.16690336552E+03  0.86399271355E+02 -0.45446300586E+03  0.49179080024E+03  0.00000000000E+00 0.  1.
<mgrwt>
<rscale>  0 0.17645466E+04</rscale>
<asrwt>0</asrwt>
<pdfrwt beam="1">  1        2 0.24953116E+00 0.17645466E+04</pdfrwt>
<pdfrwt beam="2">  1       -2 0.73833724E-01 0.17645466E+04</pdfrwt>
<totfact> 0.16966502E+01</totfact>
</mgrwt>
</event>
<event>
 6    1  0.2619571E-005  0.3929191E+04  0.7818608E-02  0.8018985E-01
         -2   -1    0    0    0  501 -0.00000000000E+00  0.00000000000E+00  0.11360661364E+04  0.11360661364E+04  0.00000000000E+00 0.  1.
          2   -1    0    0  501    0  0.00000000000E+00 -0.00000000000E+00 -0.33973680912E+04  0.33973680912E+04  0.00000000000E+00 0. -1.
         23    2    1    2    0    0  0.28581989607E+03  0.14702777510E+04  0.33359644321E+03  0.15372854707E+04  0.92468121369E+02 0.  0.
         11    1    3    3    0    0  0.21306103818E+03  0.10460713211E+04  0.19573470775E+03  0.10853443190E+04  0.00000000000E+00 0.  1.
        -11    1    3    3    0    0  0.72758857890E+02  0.42420642985E+03  0.13786173545E+03  0.45194115174E+03  0.00000000000E+00 0. -1.
         22    1    1    2    0    0 -0.28581989607E+03 -0.14702777510E+04 -0.25948983980E+04  0.29961487570E+04  0.00000000000E+00 0. -1.
<mgrwt>
<rscale>  0 0.39291907E+04</rscale>
<asrwt>0</asrwt>
<pdfrwt beam="1">  1        2 0.52267201E+00 0.39291907E+04</pdfrwt>
<pdfrwt beam="2">  1       -2 0.17477941E+00 0.39291907E+04</pdfrwt>
<totfact> 0.14954469E-01</totfact>
</mgrwt>
</event>
<event>
 6    1  0.1817112E-005  0.2534793E+04  0.7818608E-02  0.8390694E-01
         -2   -1    0    0    0  501 -0.00000000000E+00  0.00000000000E+00  0.10780838421E+04  0.10780838421E+04  0.00000000000E+00 0.  1.
          2   -1    0    0  501    0  0.00000000000E+00 -0.00000000000E+00 -0.14899521320E+04  0.14899521320E+04  0.00000000000E+00 0. -1.
         23    2    1    2    0    0 -0.80942196324E+03  0.12490418590E+03 -0.11839643629E+04  0.14424706423E+04  0.90470830126E+02 0.  0.
         11    1    3    3    0    0 -0.33463494874E+03  0.11544353421E+02 -0.51719479205E+03  0.61612034046E+03  0.00000000000E+00 0.  1.
        -11    1    3    3    0    0 -0.47478701449E+03  0.11335983248E+03 -0.66676957081E+03  0.82635030181E+03  0.00000000000E+00 0. -1.
         22    1    1    2    0    0  0.80942196324E+03 -0.12490418590E+03  0.77209607293E+03  0.11255653318E+04  0.00000000000E+00 0.  1.
<mgrwt>
<rscale>  0 0.25347926E+04</rscale>
<asrwt>0</asrwt>
<pdfrwt beam="1">  1        2 0.22922341E+00 0.25347926E+04</pdfrwt>
<pdfrwt beam="2">  1       -2 0.16585905E+00 0.25347926E+04</pdfrwt>
<totfact> 0.26107616E+00</totfact>
</mgrwt>
</event>
<event>
 6    1  0.1817112E-005  0.4055660E+04  0.7818608E-02  0.7993411E-01
         -2   -1    0    0    0  501 -0.00000000000E+00  0.00000000000E+00  0.18918846004E+04  0.18918846004E+04  0.00000000000E+00 0.  1.
          2   -1    0    0  501    0  0.00000000000E+00 -0.00000000000E+00 -0.21735435409E+04  0.21735435409E+04  0.00000000000E+00 0. -1.
         23    2    1    2    0    0 -0.98000244372E+03  0.12943945861E+04  0.10752186048E+04  0.19495409026E+04  0.93555056136E+02 0.  0.
         13    1    3    3    0    0 -0.62305472370E+03  0.82315204660E+03  0.62924701334E+03  0.12090195550E+04  0.00000000000E+00 0.  1.
        -13    1    3    3    0    0 -0.35694772002E+03  0.47124253950E+03  0.44597159144E+03  0.74052134759E+03  0.00000000000E+00 0. -1.
         22    1    1    2    0    0  0.98000244372E+03 -0.12943945861E+04 -0.13568775453E+04  0.21158872388E+04  0.00000000000E+00 0. -1.
<mgrwt>
<rscale>  0 0.40556595E+04</rscale>
<asrwt>0</asrwt>
<pdfrwt beam="1">  1        2 0.33439131E+00 0.40556595E+04</pdfrwt>
<pdfrwt beam="2">  1       -2 0.29105917E+00 0.40556595E+04</pdfrwt>
<totfact> 0.15129467E-01</totfact>
</mgrwt>
</event>
<event>
 6    1  0.1817112E-005  0.2425522E+04  0.7818608E-02  0.8430010E-01
         -2   -1    0    0    0  501 -0.00000000000E+00  0.00000000000E+00  0.26118673365E+04  0.26118673365E+04  0.00000000000E+00 0.  1.
          2   -1    0    0  501    0  0.00000000000E+00 -0.00000000000E+00 -0.56311785355E+03  0.56311785355E+03  0.00000000000E+00 0. -1.
         23    2    1    2    0    0 -0.58841654398E+03  0.87017383705E+03  0.23668084067E+03  0.10804615449E+04  0.89122352120E+02 0.  0.
         13    1    3    3    0    0 -0.59440647729E+02  0.69783431657E+02 -0.24974097072E+01  0.91701444872E+02  0.00000000000E+00 0.  1.
        -13    1    3    3    0    0 -0.52897589625E+03  0.80039040540E+03  0.23917825037E+03  0.98876009998E+03  0.00000000000E+00 0. -1.
         22    1    1    2    0    0  0.58841654398E+03 -0.87017383705E+03  0.18120686423E+04  0.20945236452E+04  0.00000000000E+00 0.  1.
<mgrwt>
<rscale>  0 0.24255219E+04</rscale>
<asrwt>0</asrwt>
<pdfrwt beam="1">  1        2 0.86633518E-01 0.24255219E+04</pdfrwt>
<pdfrwt beam="2">  1       -2 0.40182574E+00 0.24255219E+04</pdfrwt>
<totfact> 0.34704796E-01</totfact>
</mgrwt>
</event>
<event>
 6    1  0.1817112E-005  0.3599310E+04  0.7818608E-02  0.8090650E-01
          2   -1    0    0  501    0  0.00000000000E+00  0.00000000000E+00  0.28394594456E+04  0.28394594456E+04  0.00000000000E+00 0. -1.
         -2   -1    0    0    0  501 -0.00000000000E+00 -0.00000000000E+00 -0.11406248244E+04  0.11406248244E+04  0.00000000000E+00 0.  1.
         23    2    1    2    0    0  0.10523723855E+04  0.25168521513E+03 -0.73852026510E+03  0.13133387015E+04  0.92807744938E+02 0.  0.
         11    1    3    3    0    0  0.15094102915E+03  0.79695832963E+01 -0.83159547852E+02  0.17251730040E+03  0.00000000000E+00 0.  1.
        -11    1    3    3    0    0  0.90143135640E+03  0.24371563183E+03 -0.65536071724E+03  0.11408214011E+04  0.00000000000E+00 0. -1.
         22    1    1    2    0    0 -0.10523723855E+04 -0.25168521513E+03  0.24373548863E+04  0.26667455685E+04  0.00000000000E+00 0. -1.
<mgrwt>
<rscale>  0 0.35993099E+04</rscale>
<asrwt>0</asrwt>
<pdfrwt beam="1">  1        2 0.43683991E+00 0.35993099E+04</pdfrwt>
<pdfrwt beam="2">  1       -2 0.17548074E+00 0.35993099E+04</pdfrwt>
<totfact> 0.34756493E-01</totfact>
</mgrwt>
</event>
<event>
 6    1  0.1817112E-005  0.5816744E+03  0.7818608E-02  0.9944173E-01
         -1   -1    0    0    0  501 -0.00000000000E+00  0.00000000000E+00  0.55778236361E+02  0.55778236361E+02  0.00000000000E+00 0.  1.
          1   -1    0    0  501    0  0.00000000000E+00 -0.00000000000E+00 -0.15164744411E+04  0.15164744411E+04  0.00000000000E+00 0. -1.
         23    2    1    2    0    0 -0.11856879406E+03 -0.21580119145E+03 -0.11299826343E+04  0.11599418981E+04  0.89306997793E+02 0.  0.
         13    1    3    3    0    0 -0.10283514716E+03 -0.97517560066E+02 -0.56585234631E+03  0.58332976937E+03  0.00000000000E+00 0.  1.
        -13    1    3    3    0    0 -0.15733646899E+02 -0.11828363138E+03 -0.56413028801E+03  0.57661212869E+03  0.00000000000E+00 0. -1.
         22    1    1    2    0    0  0.11856879406E+03  0.21580119145E+03 -0.33071357045E+03  0.41231077943E+03  0.00000000000E+00 0.  1.
<mgrwt>
<rscale>  0 0.58167438E+03</rscale>
<asrwt>0</asrwt>
<pdfrwt beam="1">  1        1 0.23330380E+00 0.58167438E+03</pdfrwt>
<pdfrwt beam="2">  1       -1 0.85812658E-02 0.58167438E+03</pdfrwt>
<totfact> 0.52607298E+02</totfact>
</mgrwt>
</event>
<event>
 6    1  0.1817112E-005  0.1661568E+04  0.7818608E-02  0.8783592E-01
          2   -1    0    0  501    0  0.00000000000E+00  0.00000000000E+00  0.13803341051E+04  0.13803341051E+04  0.00000000000E+00 0. -1.
         -2   -1    0    0    0  501 -0.00000000000E+00 -0.00000000000E+00 -0.50002548135E+03  0.50002548135E+03  0.00000000000E+00 0.  1.
         23    2    1    2    0    0  0.54329099333E+03  0.23829251520E+03  0.10956401810E+04  0.12492366937E+04  0.90644825334E+02 0.  0.
         13    1    3    3    0    0  0.17060145467E+03  0.12164390149E+03  0.39300578858E+03  0.44537135624E+03  0.00000000000E+00 0.  1.
        -13    1    3    3    0    0  0.37268953866E+03  0.11664861372E+03  0.70263439243E+03  0.80386533744E+03  0.00000000000E+00 0. -1.
         22    1    1    2    0    0 -0.54329099333E+03 -0.23829251520E+03 -0.21533155725E+03  0.63112289278E+03  0.00000000000E+00 0.  1.
<mgrwt>
<rscale>  0 0.16615682E+04</rscale>
<asrwt>0</asrwt>
<pdfrwt beam="1">  1        2 0.21235909E+00 0.16615682E+04</pdfrwt>
<pdfrwt beam="2">  1       -2 0.76926998E-01 0.16615682E+04</pdfrwt>
<totfact> 0.21391819E+01</totfact>
</mgrwt>
</event>
<event>
 6    1  0.1817112E-005  0.1469008E+04  0.7818608E-02  0.8905328E-01
          2   -1    0    0  501    0  0.00000000000E+00  0.00000000000E+00  0.13880233677E+04  0.13880233677E+04  0.00000000000E+00 0. -1.
         -2   -1    0    0    0  501 -0.00000000000E+00 -0.00000000000E+00 -0.38867944909E+03  0.38867944909E+03  0.00000000000E+00 0.  1.
         23    2    1    2    0    0  0.39228461980E+03  0.58387055326E+03  0.74536396888E+03  0.10288406231E+04  0.90296930831E+02 0.  0.
         11    1    3    3    0    0  0.33675285499E+03  0.43465931991E+03  0.56969948326E+03  0.79176303965E+03  0.00000000000E+00 0. -1.
        -11    1    3    3    0    0  0.55531764803E+02  0.14921123335E+03  0.17566448562E+03  0.23707758344E+03  0.00000000000E+00 0.  1.
         22    1    1    2    0    0 -0.39228461980E+03 -0.58387055326E+03  0.25397994971E+03  0.74786219369E+03  0.00000000000E+00 0. -1.
<mgrwt>
<rscale>  0 0.14690080E+04</rscale>
<asrwt>0</asrwt>
<pdfrwt beam="1">  1        2 0.21354205E+00 0.14690080E+04</pdfrwt>
<pdfrwt beam="2">  1       -2 0.59796839E-01 0.14690080E+04</pdfrwt>
<totfact> 0.37135095E+01</totfact>
</mgrwt>
</event>
<event>
 6    1  0.1817112E-005  0.7953951E+03  0.7818608E-02  0.9566707E-01
          2   -1    0    0  501    0  0.00000000000E+00  0.00000000000E+00  0.13929046389E+04  0.13929046389E+04  0.00000000000E+00 0.  1.
         -2   -1    0    0    0  501 -0.00000000000E+00 -0.00000000000E+00 -0.11354928329E+03  0.11354928329E+03  0.00000000000E+00 0. -1.
         23    2    1    2    0    0  0.16350494325E+03 -0.28719111537E+03  0.24542892264E+03  0.42099711881E+03  0.88264459257E+02 0.  0.
         11    1    3    3    0    0  0.66552946397E+01 -0.42111796658E+02  0.38475864464E+01  0.42807712926E+02  0.00000000000E+00 0. -1.
        -11    1    3    3    0    0  0.15684964861E+03 -0.24507931871E+03  0.24158133619E+03  0.37818940589E+03  0.00000000000E+00 0.  1.
         22    1    1    2    0    0 -0.16350494325E+03  0.28719111537E+03  0.10339264330E+04  0.10854568034E+04  0.00000000000E+00 0.  1.
<mgrwt>
<rscale>  0 0.79539506E+03</rscale>
<asrwt>0</asrwt>
<pdfrwt beam="1">  1        2 0.21429301E+00 0.79539506E+03</pdfrwt>
<pdfrwt beam="2">  1       -2 0.17469121E-01 0.79539506E+03</pdfrwt>
<totfact> 0.39775447E+02</totfact>
</mgrwt>
</event>
<event>
 6    1  0.1817112E-005  0.4549264E+04  0.7818608E-02  0.7902068E-01
          2   -1    0    0  501    0  0.00000000000E+00  0.00000000000E+00  0.28273716992E+04  0.28273716992E+04  0.00000000000E+00 0. -1.
         -2   -1    0    0    0  501 -0.00000000000E+00 -0.00000000000E+00 -0.18299506844E+04  0.18299506844E+04  0.00000000000E+00 0.  1.
         23    2    1    2    0    0  0.12235508295E+04  0.52220562154E+03  0.23866395046E+04  0.27338610879E+04  0.90404532808E+02 0.  0.
         13    1    3    3    0    0  0.29181694667E+03  0.15362784576E+03  0.65072758265E+03  0.72952383935E+03  0.00000000000E+00 0. -1.
        -13    1    3    3    0    0  0.93173388287E+03  0.36857777579E+03  0.17359119219E+04  0.20043372485E+04  0.00000000000E+00 0.  1.
         22    1    1    2    0    0 -0.12235508295E+04 -0.52220562154E+03 -0.13892184897E+04  0.19234612957E+04  0.00000000000E+00 0.  1.
<mgrwt>
<rscale>  0 0.45492640E+04</rscale>
<asrwt>0</asrwt>
<pdfrwt beam="1">  1        2 0.43498026E+00 0.45492640E+04</pdfrwt>
<pdfrwt beam="2">  1       -2 0.28153088E+00 0.45492640E+04</pdfrwt>
<totfact> 0.69213496E-02</totfact>
</mgrwt>
</event>
<event>
 6    1  0.1817112E-005  0.5046944E+04  0.7818608E-02  0.7821306E-01
          2   -1    0    0  501    0  0.00000000000E+00  0.00000000000E+00  0.41640310845E+04  0.41640310845E+04  0.00000000000E+00 0. -1.
         -2   -1    0    0    0  501 -0.00000000000E+00 -0.00000000000E+00 -0.15292660900E+04  0.15292660900E+04  0.00000000000E+00 0.  1.
         23    2    1    2    0    0 -0.24945967694E+04  0.62032506209E+02  0.89945436764E+03  0.26538623512E+04  0.84297958000E+02 0.  0.
         13    1    3    3    0    0 -0.78285409477E+03  0.49149776976E+02  0.30983797579E+03  0.84337168882E+03  0.00000000000E+00 0. -1.
        -13    1    3    3    0    0 -0.17117426746E+04  0.12882729233E+02  0.58961639185E+03  0.18104906623E+04  0.00000000000E+00 0.  1.
         22    1    1    2    0    0  0.24945967694E+04 -0.62032506209E+02  0.17353106269E+04  0.30394348234E+04  0.00000000000E+00 0.  1.
<mgrwt>
<rscale>  0 0.50469442E+04</rscale>
<asrwt>0</asrwt>
<pdfrwt beam="1">  1        2 0.64062016E+00 0.50469442E+04</pdfrwt>
<pdfrwt beam="2">  1       -2 0.23527171E+00 0.50469442E+04</pdfrwt>
<totfact> 0.14271035E-02</totfact>
</mgrwt>
</event>
<event>
 6    1  0.1817112E-005  0.4283207E+04  0.7818608E-02  0.7949731E-01
          2   -1    0    0  501    0  0.00000000000E+00  0.00000000000E+00  0.37795909669E+04  0.37795909669E+04  0.00000000000E+00 0. -1.
         -2   -1    0    0    0  501 -0.00000000000E+00 -0.00000000000E+00 -0.12134819603E+04  0.12134819603E+04  0.00000000000E+00 0.  1.
         23    2    1    2    0    0  0.86242357792E+03 -0.63058487027E+02 -0.99895549852E+03  0.13246351499E+04  0.94844039850E+02 0.  0.
         13    1    3    3    0    0  0.16215424436E+03  0.43410363934E+01 -0.13933125717E+03  0.21383648610E+03  0.00000000000E+00 0.  1.
        -13    1    3    3    0    0  0.70026933356E+03 -0.67399523420E+02 -0.85962424135E+03  0.11107986638E+04  0.00000000000E+00 0. -1.
         22    1    1    2    0    0 -0.86242357792E+03  0.63058487027E+02  0.35650645051E+04  0.36684377773E+04  0.00000000000E+00 0. -1.
<mgrwt>
<rscale>  0 0.42832070E+04</rscale>
<asrwt>0</asrwt>
<pdfrwt beam="1">  1        2 0.58147553E+00 0.42832070E+04</pdfrwt>
<pdfrwt beam="2">  1       -2 0.18668953E+00 0.42832070E+04</pdfrwt>
<totfact> 0.63850681E-02</totfact>
</mgrwt>
</event>
<event>
 6    1  0.1817112E-005  0.5459813E+04  0.7818608E-02  0.7761243E-01
          2   -1    0    0  501    0  0.00000000000E+00  0.00000000000E+00  0.25743457259E+04  0.25743457259E+04  0.00000000000E+00 0. -1.
         -2   -1    0    0    0  501 -0.00000000000E+00 -0.00000000000E+00 -0.28948678454E+04  0.28948678454E+04  0.00000000000E+00 0.  1.
         23    2    1    2    0    0  0.30375955070E+02 -0.17584370905E+04 -0.22507764986E+04  0.28579101290E+04  0.92907260657E+02 0.  0.
         13    1    3    3    0    0  0.48004648593E+02 -0.55946190414E+03 -0.68543274380E+03  0.88607003941E+03  0.00000000000E+00 0.  1.
        -13    1    3    3    0    0 -0.17628693523E+02 -0.11989751863E+04 -0.15653437548E+04  0.19718400896E+04  0.00000000000E+00 0. -1.
         22    1    1    2    0    0 -0.30375955070E+02  0.17584370905E+04  0.19302543791E+04  0.26113034423E+04  0.00000000000E+00 0. -1.
<mgrwt>
<rscale>  0 0.54598134E+04</rscale>
<asrwt>0</asrwt>
<pdfrwt beam="1">  1        2 0.39605319E+00 0.54598134E+04</pdfrwt>
<pdfrwt beam="2">  1       -2 0.44536428E+00 0.54598134E+04</pdfrwt>
<totfact> 0.82669736E-03</totfact>
</mgrwt>
</event>
<event>
 6    1  0.1817112E-005  0.3467457E+04  0.7818608E-02  0.8121546E-01
         -2   -1    0    0    0  501 -0.00000000000E+00  0.00000000000E+00  0.97988827408E+03  0.97988827408E+03  0.00000000000E+00 0.  1.
          2   -1    0    0  501    0  0.00000000000E+00 -0.00000000000E+00 -0.30675077160E+04  0.30675077160E+04  0.00000000000E+00 0. -1.
         23    2    1    2    0    0 -0.36613917151E+03  0.16297535898E+04 -0.15813149285E+04  0.23019737155E+04  0.91495503340E+02 0.  0.
         11    1    3    3    0    0 -0.28818090355E+03  0.11274136872E+04 -0.11342537960E+04  0.16250050859E+04  0.00000000000E+00 0.  1.
        -11    1    3    3    0    0 -0.77958267956E+02  0.50233990257E+03 -0.44706113255E+03  0.67696862962E+03  0.00000000000E+00 0. -1.
         22    1    1    2    0    0  0.36613917151E+03 -0.16297535898E+04 -0.50630451338E+03  0.17454222746E+04  0.00000000000E+00 0. -1.
<mgrwt>
<rscale>  0 0.34674572E+04</rscale>
<asrwt>0</asrwt>
<pdfrwt beam="1">  1        2 0.47192425E+00 0.34674572E+04</pdfrwt>
<pdfrwt beam="2">  1       -2 0.15075205E+00 0.34674572E+04</pdfrwt>
<totfact> 0.38417232E-01</totfact>
</mgrwt>
</event>
<event>
 6    1  0.1817112E-005  0.1025597E+04  0.7818608E-02  0.9280907E-01
         -2   -1    0    0    0  501 -0.00000000000E+00  0.00000000000E+00  0.19751068573E+03  0.19751068573E+03  0.00000000000E+00 0.  1.
          2   -1    0    0  501    0  0.00000000000E+00 -0.00000000000E+00 -0.13313838880E+04  0.13313838880E+04  0.00000000000E+00 0. -1.
         23    2    1    2    0    0 -0.38407850601E+03  0.22413500571E+03 -0.20271534124E+03  0.49699934566E+03  0.90344011711E+02 0.  0.
         13    1    3    3    0    0 -0.27545845138E+03  0.19961320172E+03 -0.13090078410E+03  0.36449664473E+03  0.00000000000E+00 0.  1.
        -13    1    3    3    0    0 -0.10862005463E+03  0.24521803989E+02 -0.71814557141E+02  0.13250270094E+03  0.00000000000E+00 0. -1.
         22    1    1    2    0    0  0.38407850601E+03 -0.22413500571E+03 -0.93115786102E+03  0.10318952281E+04  0.00000000000E+00 0. -1.
<mgrwt>
<rscale>  0 0.10255975E+04</rscale>
<asrwt>0</asrwt>
<pdfrwt beam="1">  1        2 0.20482829E+00 0.10255975E+04</pdfrwt>
<pdfrwt beam="2">  1       -2 0.30386259E-01 0.10255975E+04</pdfrwt>
<totfact> 0.15802749E+02</totfact>
</mgrwt>
</event>
<event>
 6    1  0.1817112E-005  0.1816846E+04  0.7818608E-02  0.8697392E-01
          2   -1    0    0  501    0  0.00000000000E+00  0.00000000000E+00  0.15687348047E+04  0.15687348047E+04  0.00000000000E+00 0. -1.
         -2   -1    0    0    0  501 -0.00000000000E+00 -0.00000000000E+00 -0.52604969626E+03  0.52604969626E+03  0.00000000000E+00 0.  1.
         23    2    1    2    0    0  0.73608041081E+03  0.11381149048E+03  0.11174508895E+04  0.13462142982E+04  0.93962863488E+02 0.  0.
         11    1    3    3    0    0  0.18643623325E+03  0.27449780923E+01  0.33790599900E+03  0.38593583422E+03  0.00000000000E+00 0.  1.
        -11    1    3    3    0    0  0.54964417756E+03  0.11106651239E+03  0.77954489045E+03  0.96027846395E+03  0.00000000000E+00 0. -1.
         22    1    1    2    0    0 -0.73608041081E+03 -0.11381149048E+03 -0.74765780990E+02  0.74857020282E+03  0.00000000000E+00 0.  1.
<mgrwt>
<rscale>  0 0.18168461E+04</rscale>
<asrwt>0</asrwt>
<pdfrwt beam="1">  1        2 0.24134381E+00 0.18168461E+04</pdfrwt>
<pdfrwt beam="2">  1       -2 0.80930723E-01 0.18168461E+04</pdfrwt>
<totfact> 0.14742269E+01</totfact>
</mgrwt>
</event>
<event>
 6    1  0.1817112E-005  0.2652791E+04  0.7818608E-02  0.8350487E-01
         -2   -1    0    0    0  501 -0.00000000000E+00  0.00000000000E+00  0.49255189873E+03  0.49255189873E+03  0.00000000000E+00 0.  1.
          2   -1    0    0  501    0  0.00000000000E+00 -0.00000000000E+00 -0.35718573584E+04  0.35718573584E+04  0.00000000000E+00 0. -1.
         23    2    1    2    0    0 -0.10317032221E+04 -0.57778573727E+03 -0.24561616756E+04  0.27277881169E+04  0.99246852091E+02 0.  0.
         13    1    3    3    0    0 -0.44654333263E+03 -0.30665023935E+03 -0.11149882736E+04  0.12396104902E+04  0.00000000000E+00 0.  1.
        -13    1    3    3    0    0 -0.58515988950E+03 -0.27113549791E+03 -0.13411734020E+04  0.14881776267E+04  0.00000000000E+00 0. -1.
         22    1    1    2    0    0  0.10317032221E+04  0.57778573727E+03 -0.62314378408E+03  0.13366211402E+04  0.00000000000E+00 0.  1.
<mgrwt>
<rscale>  0 0.26527911E+04</rscale>
<asrwt>0</asrwt>
<pdfrwt beam="1">  1        2 0.54951652E+00 0.26527911E+04</pdfrwt>
<pdfrwt beam="2">  1       -2 0.75777214E-01 0.26527911E+04</pdfrwt>
<totfact> 0.99461773E-01</totfact>
</mgrwt>
</event>
<event>
 6    1  0.1817112E-005  0.3794646E+04  0.7818608E-02  0.8047305E-01
          2   -1    0    0  501    0  0.00000000000E+00  0.00000000000E+00  0.19519649334E+04  0.19519649334E+04  0.00000000000E+00 0. -1.
         -2   -1    0    0    0  501 -0.00000000000E+00 -0.00000000000E+00 -0.18442102956E+04  0.18442102956E+04  0.00000000000E+00 0.  1.
         23    2    1    2    0    0 -0.88717852904E+03  0.16410369360E+04 -0.28615299082E+03  0.18895417593E+04  0.91632736550E+02 0.  0.
         11    1    3    3    0    0 -0.55894017511E+03  0.10866582608E+04 -0.15126770445E+03  0.12313091462E+04  0.00000000000E+00 0. -1.
        -11    1    3    3    0    0 -0.32823835393E+03  0.55437867517E+03 -0.13488528637E+03  0.65823261310E+03  0.00000000000E+00 0.  1.
         22    1    1    2    0    0  0.88717852904E+03 -0.16410369360E+04  0.39390762867E+03  0.19066334697E+04  0.00000000000E+00 0. -1.
<mgrwt>
<rscale>  0 0.37946456E+04</rscale>
<asrwt>0</asrwt>
<pdfrwt beam="1">  1        2 0.30030230E+00 0.37946456E+04</pdfrwt>
<pdfrwt beam="2">  1       -2 0.28372466E+00 0.37946456E+04</pdfrwt>
<totfact> 0.22779444E-01</totfact>
</mgrwt>
</event>
<event>
 6    1  0.1817112E-005  0.2614146E+04  0.7818608E-02  0.8363412E-01
         -2   -1    0    0    0  501 -0.00000000000E+00  0.00000000000E+00  0.22003498868E+04  0.22003498868E+04  0.00000000000E+00 0.  1.
          2   -1    0    0  501    0  0.00000000000E+00 -0.00000000000E+00 -0.77644002464E+03  0.77644002464E+03  0.00000000000E+00 0. -1.
         23    2    1    2    0    0  0.10069918158E+04  0.81495289502E+03  0.89683445327E+03  0.15782230647E+04  0.91078357435E+02 0.  0.
         11    1    3    3    0    0  0.57601685639E+03  0.45929285265E+03  0.56414315907E+03  0.92790239103E+03  0.00000000000E+00 0.  1.
        -11    1    3    3    0    0  0.43097495939E+03  0.35566004237E+03  0.33269129420E+03  0.65032067366E+03  0.00000000000E+00 0. -1.
         22    1    1    2    0    0 -0.10069918158E+04 -0.81495289502E+03  0.52707540887E+03  0.13985668467E+04  0.00000000000E+00 0.  1.
<mgrwt>
<rscale>  0 0.26141459E+04</rscale>
<asrwt>0</asrwt>
<pdfrwt beam="1">  1        2 0.11945231E+00 0.26141459E+04</pdfrwt>
<pdfrwt beam="2">  1       -2 0.33851537E+00 0.26141459E+04</pdfrwt>
<totfact> 0.58179526E-01</totfact>
</mgrwt>
</event>
<event>
 6    1  0.1817112E-005  0.1985438E+04  0.7818608E-02  0.8613459E-01
         -2   -1    0    0    0  501 -0.00000000000E+00  0.00000000000E+00  0.42798434873E+03  0.42798434873E+03  0.00000000000E+00 0. -1.
          2   -1    0    0  501    0  0.00000000000E+00 -0.00000000000E+00 -0.23026332972E+04  0.23026332972E+04  0.00000000000E+00 0.  1.
         23    2    1    2    0    0 -0.14122946088E+03  0.46699168036E+03 -0.21252693598E+04  0.21821310183E+04  0.83059854114E+02 0.  0.
         13    1    3    3    0    0  0.11250522549E+02  0.28112795964E+02 -0.13283519704E+03  0.13624277275E+03  0.00000000000E+00 0.  1.
        -13    1    3    3    0    0 -0.15247998343E+03  0.43887888439E+03 -0.19924341628E+04  0.20458882456E+04  0.00000000000E+00 0. -1.
         22    1    1    2    0    0  0.14122946088E+03 -0.46699168036E+03  0.25062041128E+03  0.54848662764E+03  0.00000000000E+00 0. -1.
<mgrwt>
<rscale>  0 0.19854380E+04</rscale>
<asrwt>0</asrwt>
<pdfrwt beam="1">  1        2 0.35425128E+00 0.19854380E+04</pdfrwt>
<pdfrwt beam="2">  1       -2 0.65843746E-01 0.19854380E+04</pdfrwt>
<totfact> 0.89246620E+00</totfact>
</mgrwt>
</event>
<event>
 6    1  0.1817112E-005  0.2737987E+04  0.7818608E-02  0.8322784E-01
         -2   -1    0    0    0  501 -0.00000000000E+00  0.00000000000E+00  0.10655034152E+04  0.10655034152E+04  0.00000000000E+00 0.  1.
          2   -1    0    0  501    0  0.00000000000E+00 -0.00000000000E+00 -0.17589274848E+04  0.17589274848E+04  0.00000000000E+00 0. -1.
         23    2    1    2    0    0 -0.11537384299E+04 -0.61251025772E+03 -0.76471763345E+03  0.15162398006E+04  0.88931961176E+02 0.  0.
         13    1    3    3    0    0 -0.45188385637E+03 -0.19939813613E+03 -0.26097546397E+03  0.55862942022E+03  0.00000000000E+00 0.  1.
        -13    1    3    3    0    0 -0.70185457349E+03 -0.41311212159E+03 -0.50374216948E+03  0.95761038040E+03  0.00000000000E+00 0. -1.
         22    1    1    2    0    0  0.11537384299E+04  0.61251025772E+03  0.71293563844E+02  0.13081910994E+04  0.00000000000E+00 0. -1.
<mgrwt>
<rscale>  0 0.27379870E+04</rscale>
<asrwt>0</asrwt>
<pdfrwt beam="1">  1        2 0.27060423E+00 0.27379870E+04</pdfrwt>
<pdfrwt beam="2">  1       -2 0.16392360E+00 0.27379870E+04</pdfrwt>
<totfact> 0.18751542E+00</totfact>
</mgrwt>
</event>
<event>
 6    1  0.1817112E-005  0.3693384E+04  0.7818608E-02  0.8069430E-01
         -4   -1    0    0    0  501 -0.00000000000E+00  0.00000000000E+00  0.13598840062E+04  0.13598840062E+04  0.00000000000E+00 0.  1.
          4   -1    0    0  501    0  0.00000000000E+00 -0.00000000000E+00 -0.25077657053E+04  0.25077657053E+04  0.00000000000E+00 0. -1.
         23    2    1    2    0    0  0.12924834017E+04 -0.11974459502E+04 -0.11500648368E+04  0.21057203958E+04  0.83780122896E+02 0.  0.
         13    1    3    3    0    0  0.57176111039E+03 -0.53369621908E+03 -0.56023880056E+03  0.96208624108E+03  0.00000000000E+00 0.  1.
        -13    1    3    3    0    0  0.72072229129E+03 -0.66374973116E+03 -0.58982603624E+03  0.11436341547E+04  0.00000000000E+00 0. -1.
         22    1    1    2    0    0 -0.12924834017E+04  0.11974459502E+04  0.21831376752E+01  0.17619293157E+04  0.00000000000E+00 0. -1.
<mgrwt>
<rscale>  0 0.36933835E+04</rscale>
<asrwt>0</asrwt>
<pdfrwt beam="1">  1        4 0.38581011E+00 0.36933835E+04</pdfrwt>
<pdfrwt beam="2">  1       -4 0.20921292E+00 0.36933835E+04</pdfrwt>
<totfact> 0.15547478E-03</totfact>
</mgrwt>
</event>
<event>
 6    1  0.1817112E-005  0.3131781E+04  0.7818608E-02  0.8207070E-01
          2   -1    0    0  501    0  0.00000000000E+00  0.00000000000E+00  0.29268037387E+04  0.29268037387E+04  0.00000000000E+00 0. -1.
         -2   -1    0    0    0  501 -0.00000000000E+00 -0.00000000000E+00 -0.83777824329E+03  0.83777824329E+03  0.00000000000E+00 0.  1.
         23    2    1    2    0    0  0.14902532837E+03 -0.71579802785E+03  0.27081274167E+04  0.28065305459E+04  0.89912374244E+02 0.  0.
         13    1    3    3    0    0  0.10669869596E+03 -0.64790890794E+03  0.24082897437E+04  0.24962031276E+04  0.00000000000E+00 0.  1.
        -13    1    3    3    0    0  0.42326632418E+02 -0.67889119911E+02  0.29983767301E+03  0.31032741833E+03  0.00000000000E+00 0. -1.
         22    1    1    2    0    0 -0.14902532837E+03  0.71579802785E+03 -0.61910192129E+03  0.95805143605E+03  0.00000000000E+00 0.  1.
<mgrwt>
<rscale>  0 0.31317806E+04</rscale>
<asrwt>0</asrwt>
<pdfrwt beam="1">  1        2 0.45027749E+00 0.31317806E+04</pdfrwt>
<pdfrwt beam="2">  1       -2 0.12888896E+00 0.31317806E+04</pdfrwt>
<totfact> 0.72642577E-01</totfact>
</mgrwt>
</event>
<event>
 6    1  0.1817112E-005  0.1516984E+04  0.7818608E-02  0.8873236E-01
          2   -1    0    0  501    0  0.00000000000E+00  0.00000000000E+00  0.75770718820E+03  0.75770718820E+03  0.00000000000E+00 0. -1.
         -2   -1    0    0    0  501 -0.00000000000E+00 -0.00000000000E+00 -0.75927793705E+03  0.75927793705E+03  0.00000000000E+00 0.  1.
         23    2    1    2    0    0 -0.31478065270E+02 -0.51213806307E+03 -0.55546306359E+03  0.76195336395E+03  0.93581245946E+02 0.  0.
         13    1    3    3    0    0 -0.30846120666E+02 -0.73169987173E+02 -0.56944786513E+02  0.97714067022E+02  0.00000000000E+00 0.  1.
        -13    1    3    3    0    0 -0.63194460349E+00 -0.43896807589E+03 -0.49851827708E+03  0.66423929693E+03  0.00000000000E+00 0. -1.
         22    1    1    2    0    0  0.31478065270E+02  0.51213806307E+03  0.55389231475E+03  0.75503176130E+03  0.00000000000E+00 0. -1.
<mgrwt>
<rscale>  0 0.15169843E+04</rscale>
<asrwt>0</asrwt>
<pdfrwt beam="1">  1        2 0.11657034E+00 0.15169843E+04</pdfrwt>
<pdfrwt beam="2">  1       -2 0.11681199E+00 0.15169843E+04</pdfrwt>
<totfact> 0.20263765E+01</totfact>
</mgrwt>
</event>
<event>
 6    1  0.1817112E-005  0.3969075E+04  0.7818608E-02  0.8010814E-01
          2   -1    0    0  501    0  0.00000000000E+00  0.00000000000E+00  0.27970762048E+04  0.27970762048E+04  0.00000000000E+00 0. -1.
         -2   -1    0    0    0  501 -0.00000000000E+00 -0.00000000000E+00 -0.14080378819E+04  0.14080378819E+04  0.00000000000E+00 0.  1.
         23    2    1    2    0    0 -0.16078700478E+04  0.10521745712E+04  0.17305036139E+03  0.19311430796E+04  0.83962773334E+02 0.  0.
         13    1    3    3    0    0 -0.11316479845E+04  0.74421309805E+03  0.16024331480E+03  0.13638761733E+04  0.00000000000E+00 0. -1.
        -13    1    3    3    0    0 -0.47622206328E+03  0.30796147311E+03  0.12807046587E+02  0.56726690625E+03  0.00000000000E+00 0.  1.
         22    1    1    2    0    0  0.16078700478E+04 -0.10521745712E+04  0.12159879615E+04  0.22739710072E+04  0.00000000000E+00 0. -1.
<mgrwt>
<rscale>  0 0.39690751E+04</rscale>
<asrwt>0</asrwt>
<pdfrwt beam="1">  1        2 0.43031941E+00 0.39690751E+04</pdfrwt>
<pdfrwt beam="2">  1       -2 0.21662121E+00 0.39690751E+04</pdfrwt>
<totfact> 0.19063293E-01</totfact>
</mgrwt>
</event>
<event>
 6    1  0.1817112E-005  0.3401675E+04  0.7818608E-02  0.8137495E-01
         -2   -1    0    0    0  501 -0.00000000000E+00  0.00000000000E+00  0.18582613128E+04  0.18582613128E+04  0.00000000000E+00 0.  1.
          2   -1    0    0  501    0  0.00000000000E+00 -0.00000000000E+00 -0.15567498507E+04  0.15567498507E+04  0.00000000000E+00 0. -1.
         23    2    1    2    0    0 -0.15478773411E+03 -0.41556751763E+03 -0.14963367523E+04  0.15632785138E+04  0.90335105203E+02 0.  0.
         11    1    3    3    0    0 -0.70802667548E+02 -0.14175070874E+03 -0.40244083288E+03  0.43251000581E+03  0.00000000000E+00 0. -1.
        -11    1    3    3    0    0 -0.83985066559E+02 -0.27381680889E+03 -0.10938959194E+04  0.11307685080E+04  0.00000000000E+00 0.  1.
         22    1    1    2    0    0  0.15478773411E+03  0.41556751763E+03  0.17978482143E+04  0.18517326497E+04  0.00000000000E+00 0.  1.
<mgrwt>
<rscale>  0 0.34016749E+04</rscale>
<asrwt>0</asrwt>
<pdfrwt beam="1">  1        2 0.23949998E+00 0.34016749E+04</pdfrwt>
<pdfrwt beam="2">  1       -2 0.28588635E+00 0.34016749E+04</pdfrwt>
<totfact> 0.37868470E-01</totfact>
</mgrwt>
</event>
<event>
 6    1  0.1817112E-005  0.1900294E+04  0.7818608E-02  0.8654710E-01
          2   -1    0    0  501    0  0.00000000000E+00  0.00000000000E+00  0.36954707207E+04  0.36954707207E+04  0.00000000000E+00 0. -1.
         -2   -1    0    0    0  501 -0.00000000000E+00 -0.00000000000E+00 -0.24429350624E+03  0.24429350624E+03  0.00000000000E+00 0.  1.
         23    2    1    2    0    0  0.71896605904E+03 -0.61522274688E+03  0.16114838075E+04  0.18709764046E+04  0.90892366718E+02 0.  0.
         13    1    3    3    0    0  0.42200641740E+03 -0.35622785922E+03  0.85134558882E+03  0.10147792940E+04  0.00000000000E+00 0. -1.
        -13    1    3    3    0    0  0.29695964165E+03 -0.25899488766E+03  0.76013821867E+03  0.85619711053E+03  0.00000000000E+00 0.  1.
         22    1    1    2    0    0 -0.71896605904E+03  0.61522274688E+03  0.18396934069E+04  0.20687878224E+04  0.00000000000E+00 0.  1.
<mgrwt>
<rscale>  0 0.19002942E+04</rscale>
<asrwt>0</asrwt>
<pdfrwt beam="1">  1        2 0.56853391E+00 0.19002942E+04</pdfrwt>
<pdfrwt beam="2">  1       -2 0.37583619E-01 0.19002942E+04</pdfrwt>
<totfact> 0.37114857E+00</totfact>
</mgrwt>
</event>
<event>
 6    1  0.1817112E-005  0.4415855E+04  0.7818608E-02  0.7925536E-01
         -2   -1    0    0    0  501 -0.00000000000E+00  0.00000000000E+00  0.25681248121E+04  0.25681248121E+04  0.00000000000E+00 0.  1.
          2   -1    0    0  501    0  0.00000000000E+00 -0.00000000000E+00 -0.18982505530E+04  0.18982505530E+04  0.00000000000E+00 0. -1.
         23    2    1    2    0    0  0.11877960487E+04 -0.16943037968E+04  0.11116487838E+04  0.23505564835E+04  0.88475726800E+02 0.  0.
         11    1    3    3    0    0  0.10423523265E+04 -0.14866095857E+04  0.10076287888E+04  0.20764927664E+04  0.00000000000E+00 0.  1.
        -11    1    3    3    0    0  0.14544372223E+03 -0.20769421106E+03  0.10401999500E+03  0.27406371705E+03  0.00000000000E+00 0. -1.
         22    1    1    2    0    0 -0.11877960487E+04  0.16943037968E+04 -0.44177452474E+03  0.21158188816E+04  0.00000000000E+00 0. -1.
<mgrwt>
<rscale>  0 0.44158552E+04</rscale>
<asrwt>0</asrwt>
<pdfrwt beam="1">  1        2 0.29203855E+00 0.44158552E+04</pdfrwt>
<pdfrwt beam="2">  1       -2 0.39509613E+00 0.44158552E+04</pdfrwt>
<totfact> 0.46391119E-02</totfact>
</mgrwt>
</event>
<event>
 6    1  0.1817112E-005  0.1680234E+04  0.7818608E-02  0.8772719E-01
          2   -1    0    0  501    0  0.00000000000E+00  0.00000000000E+00  0.19810762681E+04  0.19810762681E+04  0.00000000000E+00 0. -1.
         -2   -1    0    0    0  501 -0.00000000000E+00 -0.00000000000E+00 -0.35626909000E+03  0.35626909000E+03  0.00000000000E+00 0.  1.
         23    2    1    2    0    0  0.29421714408E+03 -0.18339228977E+03 -0.24603161545E+03  0.43465404018E+03  0.90532419730E+02 0.  0.
         13    1    3    3    0    0  0.15304913489E+03 -0.80324049486E+02 -0.17503874537E+03  0.24599705892E+03  0.00000000000E+00 0. -1.
        -13    1    3    3    0    0  0.14116800919E+03 -0.10306824029E+03 -0.70992870077E+02  0.18865698126E+03  0.00000000000E+00 0.  1.
         22    1    1    2    0    0 -0.29421714408E+03  0.18339228977E+03  0.18708387935E+04  0.19026913179E+04  0.00000000000E+00 0. -1.
<mgrwt>
<rscale>  0 0.16802336E+04</rscale>
<asrwt>0</asrwt>
<pdfrwt beam="1">  1        2 0.30478096E+00 0.16802336E+04</pdfrwt>
<pdfrwt beam="2">  1       -2 0.54810630E-01 0.16802336E+04</pdfrwt>
<totfact> 0.20429782E+01</totfact>
</mgrwt>
</event>
<event>
 6    1  0.1817112E-005  0.3226222E+04  0.7818608E-02  0.8181926E-01
          1   -1    0    0  501    0  0.00000000000E+00  0.00000000000E+00  0.37888212910E+04  0.37888212910E+04  0.00000000000E+00 0. -1.
         -1   -1    0    0    0  501 -0.00000000000E+00 -0.00000000000E+00 -0.68679072032E+03  0.68679072032E+03  0.00000000000E+00 0.  1.
         23    2    1    2    0    0 -0.79075077386E+03 -0.13237073301E+04  0.22037297543E+04  0.26911142560E+04  0.90461185913E+02 0.  0.
         13    1    3    3    0    0 -0.38452644908E+03 -0.71374006895E+03  0.12051042565E+04  0.14524330432E+04  0.00000000000E+00 0. -1.
        -13    1    3    3    0    0 -0.40622432478E+03 -0.60996726120E+03  0.99862549786E+03  0.12386812127E+04  0.00000000000E+00 0.  1.
         22    1    1    2    0    0  0.79075077386E+03  0.13237073301E+04  0.89830081629E+03  0.17844977553E+04  0.00000000000E+00 0.  1.
<mgrwt>
<rscale>  0 0.32262221E+04</rscale>
<asrwt>0</asrwt>
<pdfrwt beam="1">  1        1 0.58289557E+00 0.32262221E+04</pdfrwt>
<pdfrwt beam="2">  1       -1 0.10566011E+00 0.32262221E+04</pdfrwt>
<totfact> 0.10183687E-01</totfact>
</mgrwt>
</event>
<event>
 6    1  0.1817112E-005  0.2949536E+04  0.7818608E-02  0.8258290E-01
          2   -1    0    0  501    0  0.00000000000E+00  0.00000000000E+00  0.18215978216E+04  0.18215978216E+04  0.00000000000E+00 0. -1.
         -2   -1    0    0    0  501 -0.00000000000E+00 -0.00000000000E+00 -0.11939737468E+04  0.11939737468E+04  0.00000000000E+00 0.  1.
         23    2    1    2    0    0 -0.45163360206E+03 -0.11931828774E+04  0.10659307841E+04  0.16665826653E+04  0.11675210722E+03 0.  0.
         13    1    3    3    0    0 -0.11319026657E+03 -0.28682075799E+03  0.32475966311E+03  0.44782476756E+03  0.00000000000E+00 0. -1.
        -13    1    3    3    0    0 -0.33844333549E+03 -0.90636211939E+03  0.74117112097E+03  0.12187578978E+04  0.00000000000E+00 0.  1.
         22    1    1    2    0    0  0.45163360206E+03  0.11931828774E+04 -0.43830670929E+03  0.13489889031E+04  0.00000000000E+00 0.  1.
<mgrwt>
<rscale>  0 0.29495355E+04</rscale>
<asrwt>0</asrwt>
<pdfrwt beam="1">  1        2 0.28024582E+00 0.29495355E+04</pdfrwt>
<pdfrwt beam="2">  1       -2 0.18368827E+00 0.29495355E+04</pdfrwt>
<totfact> 0.12342299E+00</totfact>
</mgrwt>
</event>
<event>
 6    1  0.1817112E-005  0.1395889E+04  0.7818608E-02  0.8956799E-01
          2   -1    0    0  501    0  0.00000000000E+00  0.00000000000E+00  0.74703276679E+03  0.74703276679E+03  0.00000000000E+00 0. -1.
         -2   -1    0    0    0  501 -0.00000000000E+00 -0.00000000000E+00 -0.65208227429E+03  0.65208227429E+03  0.00000000000E+00 0.  1.
         23    2    1    2    0    0  0.12138903052E+03 -0.55373415724E+03 -0.35513611205E+03  0.67528165885E+03  0.92340928478E+02 0.  0.
         11    1    3    3    0    0  0.10754784592E+03 -0.28932221839E+03 -0.21012497348E+03  0.37339843290E+03  0.00000000000E+00 0. -1.
        -11    1    3    3    0    0  0.13841184603E+02 -0.26441193886E+03 -0.14501113857E+03  0.30188322595E+03  0.00000000000E+00 0.  1.
         22    1    1    2    0    0 -0.12138903052E+03  0.55373415724E+03  0.45008660455E+03  0.72383338222E+03  0.00000000000E+00 0. -1.
<mgrwt>
<rscale>  0 0.13958894E+04</rscale>
<asrwt>0</asrwt>
<pdfrwt beam="1">  1        2 0.11492812E+00 0.13958894E+04</pdfrwt>
<pdfrwt beam="2">  1       -2 0.10032035E+00 0.13958894E+04</pdfrwt>
<totfact> 0.30090397E+01</totfact>
</mgrwt>
</event>
<event>
 6    1  0.1817112E-005  0.3548794E+04  0.7818608E-02  0.8102323E-01
         -2   -1    0    0    0  501 -0.00000000000E+00  0.00000000000E+00  0.58867883542E+03  0.58867883542E+03  0.00000000000E+00 0.  1.
          2   -1    0    0  501    0  0.00000000000E+00 -0.00000000000E+00 -0.53483900131E+04  0.53483900131E+04  0.00000000000E+00 0. -1.
         23    2    1    2    0    0 -0.80636776463E+03 -0.98718691806E+03 -0.31918809783E+03  0.13172190451E+04  0.91749594369E+02 0.  0.
         11    1    3    3    0    0 -0.13039653899E+03 -0.11345584148E+03 -0.31644889262E+02  0.17571819588E+03  0.00000000000E+00 0.  1.
        -11    1    3    3    0    0 -0.67597122564E+03 -0.87373107658E+03 -0.28754320857E+03  0.11415008493E+04  0.00000000000E+00 0. -1.
         22    1    1    2    0    0  0.80636776463E+03  0.98718691806E+03 -0.44405230799E+04  0.46198498034E+04  0.00000000000E+00 0. -1.
<mgrwt>
<rscale>  0 0.35487936E+04</rscale>
<asrwt>0</asrwt>
<pdfrwt beam="1">  1        2 0.82282922E+00 0.35487936E+04</pdfrwt>
<pdfrwt beam="2">  1       -2 0.90565976E-01 0.35487936E+04</pdfrwt>
<totfact> 0.92224893E-03</totfact>
</mgrwt>
</event>
<event>
 6    1  0.1817112E-005  0.2574311E+04  0.7818608E-02  0.8376980E-01
          2   -1    0    0  501    0  0.00000000000E+00  0.00000000000E+00  0.15265846014E+04  0.15265846014E+04  0.00000000000E+00 0. -1.
         -2   -1    0    0    0  501 -0.00000000000E+00 -0.00000000000E+00 -0.10852783346E+04  0.10852783346E+04  0.00000000000E+00 0.  1.
         23    2    1    2    0    0 -0.97679604507E+03  0.58149455080E+03  0.82999364229E+03  0.14104702849E+04  0.90942575388E+02 0.  0.
         11    1    3    3    0    0 -0.62271606169E+03  0.39876980698E+03  0.49420584031E+03  0.88939983418E+03  0.00000000000E+00 0. -1.
        -11    1    3    3    0    0 -0.35407998338E+03  0.18272474382E+03  0.33578780198E+03  0.52107045070E+03  0.00000000000E+00 0.  1.
         22    1    1    2    0    0  0.97679604507E+03 -0.58149455080E+03 -0.38868737544E+03  0.12013926511E+04  0.00000000000E+00 0.  1.
<mgrwt>
<rscale>  0 0.25743109E+04</rscale>
<asrwt>0</asrwt>
<pdfrwt beam="1">  1        2 0.23485917E+00 0.25743109E+04</pdfrwt>
<pdfrwt beam="2">  1       -2 0.16696590E+00 0.25743109E+04</pdfrwt>
<totfact> 0.24360175E+00</totfact>
</mgrwt>
</event>
<event>
 6    1  0.1817112E-005  0.2906341E+04  0.7818608E-02  0.8270993E-01
          2   -1    0    0  501    0  0.00000000000E+00  0.00000000000E+00  0.17045680926E+04  0.17045680926E+04  0.00000000000E+00 0. -1.
         -2   -1    0    0    0  501 -0.00000000000E+00 -0.00000000000E+00 -0.12388500311E+04  0.12388500311E+04  0.00000000000E+00 0.  1.
         23    2    1    2    0    0  0.10757336197E+04 -0.92252959768E+03  0.55284531857E+03  0.15236100951E+04  0.86522231061E+02 0.  0.
         13    1    3    3    0    0  0.37223620873E+03 -0.36109682848E+03  0.17330139328E+03  0.54679437410E+03  0.00000000000E+00 0. -1.
        -13    1    3    3    0    0  0.70349741101E+03 -0.56143276920E+03  0.37954392529E+03  0.97681572104E+03  0.00000000000E+00 0.  1.
         22    1    1    2    0    0 -0.10757336197E+04  0.92252959768E+03 -0.87127257095E+02  0.14198080286E+04  0.00000000000E+00 0.  1.
<mgrwt>
<rscale>  0 0.29063408E+04</rscale>
<asrwt>0</asrwt>
<pdfrwt beam="1">  1        2 0.26224124E+00 0.29063408E+04</pdfrwt>
<pdfrwt beam="2">  1       -2 0.19059231E+00 0.29063408E+04</pdfrwt>
<totfact> 0.12918796E+00</totfact>
</mgrwt>
</event>
<event>
 6    1  0.1817112E-005  0.2295429E+04  0.7818608E-02  0.8479726E-01
         -4   -1    0    0    0  501 -0.00000000000E+00  0.00000000000E+00  0.77097288470E+03  0.77097288470E+03  0.00000000000E+00 0.  1.
          4   -1    0    0  501    0  0.00000000000E+00 -0.00000000000E+00 -0.17085533972E+04  0.17085533972E+04  0.00000000000E+00 0. -1.
         23    2    1    2    0    0  0.49218081143E+03  0.94331520072E+03 -0.92904007261E+03  0.14154969317E+04  0.91818233926E+02 0.  0.
         13    1    3    3    0    0  0.21598764645E+03  0.37998880117E+03 -0.32587789741E+03  0.54519588815E+03  0.00000000000E+00 0.  1.
        -13    1    3    3    0    0  0.27619316498E+03  0.56332639955E+03 -0.60316217520E+03  0.87030104355E+03  0.00000000000E+00 0. -1.
         22    1    1    2    0    0 -0.49218081143E+03 -0.94331520072E+03 -0.85404399138E+01  0.10640293502E+04  0.00000000000E+00 0.  1.
<mgrwt>
<rscale>  0 0.22954288E+04</rscale>
<asrwt>0</asrwt>
<pdfrwt beam="1">  1        4 0.26285437E+00 0.22954288E+04</pdfrwt>
<pdfrwt beam="2">  1       -4 0.11861121E+00 0.22954288E+04</pdfrwt>
<totfact> 0.51897980E-02</totfact>
</mgrwt>
</event>
<event>
 6    1  0.1817112E-005  0.2797534E+04  0.7818608E-02  0.8304034E-01
          2   -1    0    0  501    0  0.00000000000E+00  0.00000000000E+00  0.26143739067E+04  0.26143739067E+04  0.00000000000E+00 0. -1.
         -2   -1    0    0    0  501 -0.00000000000E+00 -0.00000000000E+00 -0.74838139565E+03  0.74838139565E+03  0.00000000000E+00 0.  1.
         23    2    1    2    0    0  0.25097016421E+03 -0.12932622073E+04  0.14936125521E+04  0.19937483652E+04  0.92956591922E+02 0.  0.
         11    1    3    3    0    0  0.38589069205E+02 -0.40220042939E+03  0.48499713756E+03  0.63124997038E+03  0.00000000000E+00 0. -1.
        -11    1    3    3    0    0  0.21238109501E+03 -0.89106177789E+03  0.10086154145E+04  0.13624983948E+04  0.00000000000E+00 0.  1.
         22    1    1    2    0    0 -0.25097016421E+03  0.12932622073E+04  0.37237995899E+03  0.13690069371E+04  0.00000000000E+00 0.  1.
<mgrwt>
<rscale>  0 0.27975338E+04</rscale>
<asrwt>0</asrwt>
<pdfrwt beam="1">  1        2 0.40221137E+00 0.27975338E+04</pdfrwt>
<pdfrwt beam="2">  1       -2 0.11513560E+00 0.27975338E+04</pdfrwt>
<totfact> 0.15267903E+00</totfact>
</mgrwt>
</event>
<event>
 6    1  0.1817112E-005  0.2259074E+04  0.7818608E-02  0.8494235E-01
         -2   -1    0    0    0  501 -0.00000000000E+00  0.00000000000E+00  0.63709624892E+03  0.63709624892E+03  0.00000000000E+00 0.  1.
          2   -1    0    0  501    0  0.00000000000E+00 -0.00000000000E+00 -0.20026072675E+04  0.20026072675E+04  0.00000000000E+00 0. -1.
         23    2    1    2    0    0  0.50719399790E+03 -0.99970852579E+03 -0.54452270078E+03  0.12502127082E+04  0.99317451181E+02 0.  0.
         13    1    3    3    0    0  0.13463808026E+03 -0.23231597945E+03 -0.17543658510E+03  0.32074307842E+03  0.00000000000E+00 0.  1.
        -13    1    3    3    0    0  0.37255591764E+03 -0.76739254634E+03 -0.36908611568E+03  0.92946962981E+03  0.00000000000E+00 0. -1.
         22    1    1    2    0    0 -0.50719399790E+03  0.99970852579E+03 -0.82098831777E+03  0.13894908082E+04  0.00000000000E+00 0. -1.
<mgrwt>
<rscale>  0 0.22590738E+04</rscale>
<asrwt>0</asrwt>
<pdfrwt beam="1">  1        2 0.30809343E+00 0.22590738E+04</pdfrwt>
<pdfrwt beam="2">  1       -2 0.98014806E-01 0.22590738E+04</pdfrwt>
<totfact> 0.52457324E+00</totfact>
</mgrwt>
</event>
<event>
 6    1  0.1817112E-005  0.4253130E+04  0.7818608E-02  0.7955342E-01
         -2   -1    0    0    0  501 -0.00000000000E+00  0.00000000000E+00  0.15478760991E+04  0.15478760991E+04  0.00000000000E+00 0.  1.
          2   -1    0    0  501    0  0.00000000000E+00 -0.00000000000E+00 -0.29216026596E+04  0.29216026596E+04  0.00000000000E+00 0. -1.
         23    2    1    2    0    0  0.14873057166E+04 -0.92000086917E+03  0.58240306784E+03  0.18455650754E+04  0.91854342579E+02 0.  0.
         11    1    3    3    0    0  0.10794128275E+04 -0.65375168895E+03  0.46144920959E+03  0.13436735824E+04  0.00000000000E+00 0. -1.
        -11    1    3    3    0    0  0.40789288907E+03 -0.26624918022E+03  0.12095385826E+03  0.50189149301E+03  0.00000000000E+00 0.  1.
         22    1    1    2    0    0 -0.14873057166E+04  0.92000086917E+03 -0.19561296284E+04  0.26239136832E+04  0.00000000000E+00 0. -1.
<mgrwt>
<rscale>  0 0.42531301E+04</rscale>
<asrwt>0</asrwt>
<pdfrwt beam="1">  1        2 0.44947733E+00 0.42531301E+04</pdfrwt>
<pdfrwt beam="2">  1       -2 0.23813479E+00 0.42531301E+04</pdfrwt>
<totfact> 0.11451671E-01</totfact>
</mgrwt>
</event>
<event>
 6    1  0.1817112E-005  0.1843138E+04  0.7818608E-02  0.8683689E-01
          2   -1    0    0  501    0  0.00000000000E+00  0.00000000000E+00  0.11712400465E+04  0.11712400465E+04  0.00000000000E+00 0. -1.
         -2   -1    0    0    0  501 -0.00000000000E+00 -0.00000000000E+00 -0.72512015132E+03  0.72512015132E+03  0.00000000000E+00 0.  1.
         23    2    1    2    0    0  0.76585775151E+03 -0.43492724646E+03 -0.48121210762E+02  0.88642253830E+03  0.87917348817E+02 0.  0.
         11    1    3    3    0    0  0.61475991061E+03 -0.38644696115E+03 -0.48280034733E+02  0.72773756481E+03  0.00000000000E+00 0.  1.
        -11    1    3    3    0    0  0.15109784090E+03 -0.48480285309E+02  0.15882397099E+00  0.15868497350E+03  0.00000000000E+00 0. -1.
         22    1    1    2    0    0 -0.76585775151E+03  0.43492724646E+03  0.49424110590E+03  0.10099376595E+04  0.00000000000E+00 0. -1.
<mgrwt>
<rscale>  0 0.18431384E+04</rscale>
<asrwt>0</asrwt>
<pdfrwt beam="1">  1        2 0.18019078E+00 0.18431384E+04</pdfrwt>
<pdfrwt beam="2">  1       -2 0.11155695E+00 0.18431384E+04</pdfrwt>
<totfact> 0.11776856E+01</totfact>
</mgrwt>
</event>
<event>
 6    1  0.1817112E-005  0.1656482E+04  0.7818608E-02  0.8786581E-01
         -2   -1    0    0    0  501 -0.00000000000E+00  0.00000000000E+00  0.77219098695E+03  0.77219098695E+03  0.00000000000E+00 0.  1.
          2   -1    0    0  501    0  0.00000000000E+00 -0.00000000000E+00 -0.88835991510E+03  0.88835991510E+03  0.00000000000E+00 0. -1.
         23    2    1    2    0    0 -0.41950927866E+03  0.63626587601E+03  0.26037019050E+03  0.81048972325E+03  0.90987117425E+02 0.  0.
         13    1    3    3    0    0 -0.11048567090E+03  0.23808744623E+03  0.69353449415E+02  0.27148225812E+03  0.00000000000E+00 0. -1.
        -13    1    3    3    0    0 -0.30902360776E+03  0.39817842978E+03  0.19101674108E+03  0.53900746513E+03  0.00000000000E+00 0.  1.
         22    1    1    2    0    0  0.41950927866E+03 -0.63626587601E+03 -0.37653911865E+03  0.85006117881E+03  0.00000000000E+00 0. -1.
<mgrwt>
<rscale>  0 0.16564824E+04</rscale>
<asrwt>0</asrwt>
<pdfrwt beam="1">  1        2 0.13667076E+00 0.16564824E+04</pdfrwt>
<pdfrwt beam="2">  1       -2 0.11879861E+00 0.16564824E+04</pdfrwt>
<totfact> 0.15522526E+01</totfact>
</mgrwt>
</event>
<event>
 6    1  0.1817112E-005  0.4077229E+04  0.7818608E-02  0.7989146E-01
          2   -1    0    0  501    0  0.00000000000E+00  0.00000000000E+00  0.33378215858E+04  0.33378215858E+04  0.00000000000E+00 0. -1.
         -2   -1    0    0    0  501 -0.00000000000E+00 -0.00000000000E+00 -0.12451085084E+04  0.12451085084E+04  0.00000000000E+00 0.  1.
         23    2    1    2    0    0  0.15628569075E+04 -0.56957064877E+03  0.23696008345E+04  0.28966325916E+04  0.92411138178E+02 0.  0.
         13    1    3    3    0    0  0.28541497264E+03 -0.71146152591E+02  0.38963871204E+03  0.48820262961E+03  0.00000000000E+00 0.  1.
        -13    1    3    3    0    0  0.12774419348E+04 -0.49842449618E+03  0.19799621225E+04  0.24084299620E+04  0.00000000000E+00 0. -1.
         22    1    1    2    0    0 -0.15628569075E+04  0.56957064877E+03 -0.27688775719E+03  0.16862975026E+04  0.00000000000E+00 0.  1.
<mgrwt>
<rscale>  0 0.40772295E+04</rscale>
<asrwt>0</asrwt>
<pdfrwt beam="1">  1        2 0.51351101E+00 0.40772295E+04</pdfrwt>
<pdfrwt beam="2">  1       -2 0.19155516E+00 0.40772295E+04</pdfrwt>
<totfact> 0.12447869E-01</totfact>
</mgrwt>
</event>
<event>
 6    1  0.1817112E-005  0.2825849E+04  0.7818608E-02  0.8295288E-01
         -2   -1    0    0    0  501 -0.00000000000E+00  0.00000000000E+00  0.10392660759E+04  0.10392660759E+04  0.00000000000E+00 0.  1.
          2   -1    0    0  501    0  0.00000000000E+00 -0.00000000000E+00 -0.19209287979E+04  0.19209287979E+04  0.00000000000E+00 0. -1.
         23    2    1    2    0    0 -0.61385100210E+03  0.10681344771E+04 -0.11627077913E+04  0.16965847105E+04  0.93733441557E+02 0.  0.
         11    1    3    3    0    0 -0.26761969176E+03  0.50434493956E+03 -0.59726943401E+03  0.82626563179E+03  0.00000000000E+00 0. -1.
        -11    1    3    3    0    0 -0.34623131034E+03  0.56378953752E+03 -0.56543835725E+03  0.87031907868E+03  0.00000000000E+00 0.  1.
         22    1    1    2    0    0  0.61385100210E+03 -0.10681344771E+04  0.28104506918E+03  0.12636101633E+04  0.00000000000E+00 0.  1.
<mgrwt>
<rscale>  0 0.28258493E+04</rscale>
<asrwt>0</asrwt>
<pdfrwt beam="1">  1        2 0.29552751E+00 0.28258493E+04</pdfrwt>
<pdfrwt beam="2">  1       -2 0.15988709E+00 0.28258493E+04</pdfrwt>
<totfact> 0.16202896E+00</totfact>
</mgrwt>
</event>
<event>
 6    1  0.1817112E-005  0.2675965E+04  0.7818608E-02  0.8342846E-01
         -2   -1    0    0    0  501 -0.00000000000E+00  0.00000000000E+00  0.86848846711E+03  0.86848846711E+03  0.00000000000E+00 0. -1.
          2   -1    0    0  501    0  0.00000000000E+00 -0.00000000000E+00 -0.20612789667E+04  0.20612789667E+04  0.00000000000E+00 0.  1.
         23    2    1    2    0    0  0.11688951778E+03 -0.99245596440E+03  0.37436758913E+03  0.10711075737E+04  0.92132198139E+02 0.  0.
         11    1    3    3    0    0  0.38271357352E+02 -0.56682154424E+03  0.25057977003E+03  0.62091994731E+03  0.00000000000E+00 0.  1.
        -11    1    3    3    0    0  0.78618160433E+02 -0.42563442015E+03  0.12378781910E+03  0.45018762636E+03  0.00000000000E+00 0. -1.
         22    1    1    2    0    0 -0.11688951778E+03  0.99245596440E+03 -0.15671580887E+04  0.18586598601E+04  0.00000000000E+00 0.  1.
<mgrwt>
<rscale>  0 0.26759649E+04</rscale>
<asrwt>0</asrwt>
<pdfrwt beam="1">  1        2 0.31711984E+00 0.26759649E+04</pdfrwt>
<pdfrwt beam="2">  1       -2 0.13361361E+00 0.26759649E+04</pdfrwt>
<totfact> 0.21989970E+00</totfact>
</mgrwt>
</event>
<event>
 6    1  0.1817112E-005  0.1657849E+04  0.7818608E-02  0.8785777E-01
          2   -1    0    0  501    0  0.00000000000E+00  0.00000000000E+00  0.31234172867E+04  0.31234172867E+04  0.00000000000E+00 0. -1.
         -2   -1    0    0    0  501 -0.00000000000E+00 -0.00000000000E+00 -0.21998847223E+03  0.21998847223E+03  0.00000000000E+00 0.  1.
         23    2    1    2    0    0  0.57182383452E+03 -0.58109170266E+03  0.11806678183E+04  0.14374793399E+04  0.87865186388E+02 0.  0.
         13    1    3    3    0    0  0.38996656676E+03 -0.42776642959E+03  0.89317784666E+03  0.10643423825E+04  0.00000000000E+00 0.  1.
        -13    1    3    3    0    0  0.18185726776E+03 -0.15332527307E+03  0.28748997161E+03  0.37313695740E+03  0.00000000000E+00 0. -1.
         22    1    1    2    0    0 -0.57182383452E+03  0.58109170266E+03  0.17227609962E+04  0.19059264190E+04  0.00000000000E+00 0.  1.
<mgrwt>
<rscale>  0 0.16578490E+04</rscale>
<asrwt>0</asrwt>
<pdfrwt beam="1">  1        2 0.48052570E+00 0.16578490E+04</pdfrwt>
<pdfrwt beam="2">  1       -2 0.33844383E-01 0.16578490E+04</pdfrwt>
<totfact> 0.11409478E+01</totfact>
</mgrwt>
</event>
<event>
 6    1  0.1817112E-005  0.3605466E+04  0.7818608E-02  0.8089241E-01
          2   -1    0    0  501    0  0.00000000000E+00  0.00000000000E+00  0.15063918829E+04  0.15063918829E+04  0.00000000000E+00 0. -1.
         -2   -1    0    0    0  501 -0.00000000000E+00 -0.00000000000E+00 -0.21573713238E+04  0.21573713238E+04  0.00000000000E+00 0.  1.
         23    2    1    2    0    0  0.93221053605E+03  0.13375862179E+04 -0.11042306931E+04  0.19715486602E+04  0.97597756579E+02 0.  0.
         11    1    3    3    0    0  0.44205580324E+03  0.70607289410E+03 -0.53164116954E+03  0.98822800917E+03  0.00000000000E+00 0. -1.
        -11    1    3    3    0    0  0.49015473280E+03  0.63151332376E+03 -0.57258952359E+03  0.98332065101E+03  0.00000000000E+00 0.  1.
         22    1    1    2    0    0 -0.93221053605E+03 -0.13375862179E+04  0.45325125230E+03  0.16922145465E+04  0.00000000000E+00 0. -1.
<mgrwt>
<rscale>  0 0.36054662E+04</rscale>
<asrwt>0</asrwt>
<pdfrwt beam="1">  1        2 0.23175260E+00 0.36054662E+04</pdfrwt>
<pdfrwt beam="2">  1       -2 0.33190328E+00 0.36054662E+04</pdfrwt>
<totfact> 0.20710930E-01</totfact>
</mgrwt>
</event>
<event>
 6    1  0.1817112E-005  0.3451787E+04  0.7818608E-02  0.8125312E-01
         -2   -1    0    0    0  501 -0.00000000000E+00  0.00000000000E+00  0.13278154064E+04  0.13278154064E+04  0.00000000000E+00 0.  1.
          2   -1    0    0  501    0  0.00000000000E+00 -0.00000000000E+00 -0.22433145618E+04  0.22433145618E+04  0.00000000000E+00 0. -1.
         23    2    1    2    0    0 -0.14136879535E+04  0.92569315811E+03 -0.10080491933E+03  0.16951906964E+04  0.89935602190E+02 0.  0.
         11    1    3    3    0    0 -0.21114774593E+03  0.16544640857E+03 -0.39799310961E+02  0.27118235538E+03  0.00000000000E+00 0.  1.
        -11    1    3    3    0    0 -0.12025402076E+04  0.76024674954E+03 -0.61005608372E+02  0.14240083410E+04  0.00000000000E+00 0. -1.
         22    1    1    2    0    0  0.14136879535E+04 -0.92569315811E+03 -0.81469423603E+03  0.18759392717E+04  0.00000000000E+00 0.  1.
<mgrwt>
<rscale>  0 0.34517866E+04</rscale>
<asrwt>0</asrwt>
<pdfrwt beam="1">  1        2 0.34512531E+00 0.34517866E+04</pdfrwt>
<pdfrwt beam="2">  1       -2 0.20427929E+00 0.34517866E+04</pdfrwt>
<totfact> 0.50215637E-01</totfact>
</mgrwt>
</event>
<event>
 6    1  0.1817112E-005  0.5552377E+04  0.7818608E-02  0.7748523E-01
         -2   -1    0    0    0  501 -0.00000000000E+00  0.00000000000E+00  0.25338583468E+04  0.25338583468E+04  0.00000000000E+00 0.  1.
          2   -1    0    0  501    0  0.00000000000E+00 -0.00000000000E+00 -0.30416947135E+04  0.30416947135E+04  0.00000000000E+00 0. -1.
         23    2    1    2    0    0 -0.23760604511E+04  0.14191979680E+04 -0.46281230946E+03  0.28075549922E+04  0.91562330742E+02 0.  0.
         11    1    3    3    0    0 -0.15109951863E+04  0.87456578191E+03 -0.25422251507E+03  0.17642564573E+04  0.00000000000E+00 0. -1.
        -11    1    3    3    0    0 -0.86506526479E+03  0.54463218610E+03 -0.20858979439E+03  0.10432985348E+04  0.00000000000E+00 0.  1.
         22    1    1    2    0    0  0.23760604511E+04 -0.14191979680E+04 -0.45024057192E+02  0.27679980682E+04  0.00000000000E+00 0.  1.
<mgrwt>
<rscale>  0 0.55523773E+04</rscale>
<asrwt>0</asrwt>
<pdfrwt beam="1">  1        2 0.46795303E+00 0.55523773E+04</pdfrwt>
<pdfrwt beam="2">  1       -2 0.38982436E+00 0.55523773E+04</pdfrwt>
<totfact> 0.98799194E-03</totfact>
</mgrwt>
</event>
<event>
 6    1  0.1817112E-005  0.1153452E+04  0.7818608E-02  0.9154605E-01
         -2   -1    0    0    0  501 -0.00000000000E+00  0.00000000000E+00  0.41385962342E+03  0.41385962342E+03  0.00000000000E+00 0. -1.
          2   -1    0    0  501    0  0.00000000000E+00 -0.00000000000E+00 -0.80368563259E+03  0.80368563259E+03  0.00000000000E+00 0.  1.
         23    2    1    2    0    0  0.11960640194E+03 -0.22487982192E+03 -0.73761403939E+03  0.78646157543E+03  0.97830020083E+02 0.  0.
         11    1    3    3    0    0  0.63358908674E+02 -0.13542387782E+03 -0.28683728045E+03  0.32346499571E+03  0.00000000000E+00 0. -1.
        -11    1    3    3    0    0  0.56247493268E+02 -0.89455944102E+02 -0.45077675894E+03  0.46299657972E+03  0.00000000000E+00 0.  1.
         22    1    1    2    0    0 -0.11960640194E+03  0.22487982192E+03  0.34778803022E+03  0.43108368058E+03  0.00000000000E+00 0. -1.
<mgrwt>
<rscale>  0 0.11534523E+04</rscale>
<asrwt>0</asrwt>
<pdfrwt beam="1">  1        2 0.12364394E+00 0.11534523E+04</pdfrwt>
<pdfrwt beam="2">  1       -2 0.63670711E-01 0.11534523E+04</pdfrwt>
<totfact> 0.77355153E+01</totfact>
</mgrwt>
</event>
<event>
 6    1  0.1817112E-005  0.3056566E+04  0.7818608E-02  0.8227760E-01
         -2   -1    0    0    0  501 -0.00000000000E+00  0.00000000000E+00  0.22087032178E+04  0.22087032178E+04  0.00000000000E+00 0.  1.
          2   -1    0    0  501    0  0.00000000000E+00 -0.00000000000E+00 -0.10574753378E+04  0.10574753378E+04  0.00000000000E+00 0. -1.
         23    2    1    2    0    0 -0.12552961110E+03  0.13747273575E+04 -0.12099087527E+03  0.13889003258E+04  0.93660729845E+02 0.  0.
         13    1    3    3    0    0 -0.69137708558E+02  0.75855257221E+03 -0.19973764664E+02  0.76195864640E+03  0.00000000000E+00 0.  1.
        -13    1    3    3    0    0 -0.56391902538E+02  0.61617478530E+03 -0.10101711061E+03  0.62694167938E+03  0.00000000000E+00 0. -1.
         22    1    1    2    0    0  0.12552961110E+03 -0.13747273575E+04  0.12722187552E+04  0.18772782298E+04  0.00000000000E+00 0.  1.
<mgrwt>
<rscale>  0 0.30565662E+04</rscale>
<asrwt>0</asrwt>
<pdfrwt beam="1">  1        2 0.16268851E+00 0.30565662E+04</pdfrwt>
<pdfrwt beam="2">  1       -2 0.33980049E+00 0.30565662E+04</pdfrwt>
<totfact> 0.35570458E-01</totfact>
</mgrwt>
</event>
<event>
 6    1  0.1817112E-005  0.1759796E+04  0.7818608E-02  0.8727977E-01
         -2   -1    0    0    0  501 -0.00000000000E+00  0.00000000000E+00  0.13299350876E+04  0.13299350876E+04  0.00000000000E+00 0.  1.
          2   -1    0    0  501    0  0.00000000000E+00 -0.00000000000E+00 -0.58214886749E+03  0.58214886749E+03  0.00000000000E+00 0. -1.
         23    2    1    2    0    0 -0.83666131418E+03  0.22351257337E+03  0.52892067451E+03  0.10188526569E+04  0.91343480233E+02 0.  0.
         11    1    3    3    0    0 -0.14297769215E+03  0.11812034481E+02  0.11432975743E+03  0.18344873411E+03  0.00000000000E+00 0. -1.
        -11    1    3    3    0    0 -0.69368362203E+03  0.21170053889E+03  0.41459091708E+03  0.83540392276E+03  0.00000000000E+00 0.  1.
         22    1    1    2    0    0  0.83666131418E+03 -0.22351257337E+03  0.21886554561E+03  0.89323129824E+03  0.00000000000E+00 0. -1.
<mgrwt>
<rscale>  0 0.17597957E+04</rscale>
<asrwt>0</asrwt>
<pdfrwt beam="1">  1        2 0.89561364E-01 0.17597957E+04</pdfrwt>
<pdfrwt beam="2">  1       -2 0.20460540E+00 0.17597957E+04</pdfrwt>
<totfact> 0.60402295E+00</totfact>
</mgrwt>
</event>
<event>
 6    1  0.1817112E-005  0.9678699E+03  0.7818608E-02  0.9344504E-01
         -2   -1    0    0    0  501 -0.00000000000E+00  0.00000000000E+00  0.14593971214E+04  0.14593971214E+04  0.00000000000E+00 0.  1.
          2   -1    0    0  501    0  0.00000000000E+00 -0.00000000000E+00 -0.16047243671E+03  0.16047243671E+03  0.00000000000E+00 0. -1.
         23    2    1    2    0    0 -0.41037748034E+03 -0.88539563415E+02  0.26588551507E+03  0.50478263027E+03  0.88664908721E+02 0.  0.
         11    1    3    3    0    0 -0.18141858080E+03 -0.32968700068E+01  0.82617933859E+02  0.19937224934E+03  0.00000000000E+00 0.  1.
        -11    1    3    3    0    0 -0.22895889954E+03 -0.85242693408E+02  0.18326758121E+03  0.30541038093E+03  0.00000000000E+00 0. -1.
         22    1    1    2    0    0  0.41037748034E+03  0.88539563415E+02  0.10330391696E+04  0.11150869278E+04  0.00000000000E+00 0.  1.
<mgrwt>
<rscale>  0 0.96786985E+03</rscale>
<asrwt>0</asrwt>
<pdfrwt beam="1">  1        2 0.24688068E-01 0.96786985E+03</pdfrwt>
<pdfrwt beam="2">  1       -2 0.22452263E+00 0.96786985E+03</pdfrwt>
<totfact> 0.20683391E+01</totfact>
</mgrwt>
</event>
<event>
 6    1  0.1817112E-005  0.4702912E+04  0.7818608E-02  0.7876045E-01
         -2   -1    0    0    0  501 -0.00000000000E+00  0.00000000000E+00  0.12596210658E+04  0.12596210658E+04  0.00000000000E+00 0.  1.
          2   -1    0    0  501    0  0.00000000000E+00 -0.00000000000E+00 -0.43896900646E+04  0.43896900646E+04  0.00000000000E+00 0. -1.
         23    2    1    2    0    0 -0.46568070128E+03 -0.17066708594E+04  0.29366844421E+03  0.17955386907E+04  0.90189229193E+02 0.  0.
         11    1    3    3    0    0 -0.24345220280E+03 -0.76379414632E+03  0.16293410568E+03  0.81804522845E+03  0.00000000000E+00 0. -1.
        -11    1    3    3    0    0 -0.22222849848E+03 -0.94287671305E+03  0.13073433853E+03  0.97749346229E+03  0.00000000000E+00 0.  1.
         22    1    1    2    0    0  0.46568070128E+03  0.17066708594E+04 -0.34237374430E+04  0.38537724396E+04  0.00000000000E+00 0. -1.
<mgrwt>
<rscale>  0 0.47029123E+04</rscale>
<asrwt>0</asrwt>
<pdfrwt beam="1">  1        2 0.67533693E+00 0.47029123E+04</pdfrwt>
<pdfrwt beam="2">  1       -2 0.19378786E+00 0.47029123E+04</pdfrwt>
<totfact> 0.16968459E-02</totfact>
</mgrwt>
</event>
<event>
 6    1  0.1817112E-005  0.1877126E+04  0.7818608E-02  0.8666327E-01
         -2   -1    0    0    0  501 -0.00000000000E+00  0.00000000000E+00  0.45162753134E+03  0.45162753134E+03  0.00000000000E+00 0.  1.
          2   -1    0    0  501    0  0.00000000000E+00 -0.00000000000E+00 -0.19505014316E+04  0.19505014316E+04  0.00000000000E+00 0. -1.
         23    2    1    2    0    0 -0.70056321245E+03 -0.12270767964E+03  0.28030400549E+02  0.71770540187E+03  0.92029078201E+02 0.  0.
         13    1    3    3    0    0 -0.48466103641E+03 -0.57847083629E+02 -0.14397056634E+02  0.48831330161E+03  0.00000000000E+00 0. -1.
        -13    1    3    3    0    0 -0.21590217605E+03 -0.64860596010E+02  0.42427457184E+02  0.22939210026E+03  0.00000000000E+00 0.  1.
         22    1    1    2    0    0  0.70056321245E+03  0.12270767964E+03 -0.15269043008E+04  0.16844235611E+04  0.00000000000E+00 0. -1.
<mgrwt>
<rscale>  0 0.18771256E+04</rscale>
<asrwt>0</asrwt>
<pdfrwt beam="1">  1        2 0.30007714E+00 0.18771256E+04</pdfrwt>
<pdfrwt beam="2">  1       -2 0.69481159E-01 0.18771256E+04</pdfrwt>
<totfact> 0.12618339E+01</totfact>
</mgrwt>
</event>
<event>
 6    1  0.1817112E-005  0.1347469E+04  0.7818608E-02  0.8992746E-01
          2   -1    0    0  501    0  0.00000000000E+00  0.00000000000E+00  0.79266565910E+03  0.79266565910E+03  0.00000000000E+00 0. -1.
         -2   -1    0    0    0  501 -0.00000000000E+00 -0.00000000000E+00 -0.57264765207E+03  0.57264765207E+03  0.00000000000E+00 0.  1.
         23    2    1    2    0    0 -0.21788594647E+03 -0.63223305381E+03  0.16298640956E+03  0.69416092676E+03  0.90010569043E+02 0.  0.
         11    1    3    3    0    0 -0.86403440184E+02 -0.20962388138E+03  0.97276498205E+02  0.24671936126E+03  0.00000000000E+00 0.  1.
        -11    1    3    3    0    0 -0.13148250629E+03 -0.42260917243E+03  0.65709911359E+02  0.44744156550E+03  0.00000000000E+00 0. -1.
         22    1    1    2    0    0  0.21788594647E+03  0.63223305381E+03  0.57031597462E+02  0.67115238441E+03  0.00000000000E+00 0. -1.
<mgrwt>
<rscale>  0 0.13474689E+04</rscale>
<asrwt>0</asrwt>
<pdfrwt beam="1">  1        2 0.12194856E+00 0.13474689E+04</pdfrwt>
<pdfrwt beam="2">  1       -2 0.88099638E-01 0.13474689E+04</pdfrwt>
<totfact> 0.37830610E+01</totfact>
</mgrwt>
</event>
<event>
 6    1  0.1817112E-005  0.3592842E+04  0.7818608E-02  0.8092133E-01
          2   -1    0    0  501    0  0.00000000000E+00  0.00000000000E+00  0.35497740718E+04  0.35497740718E+04  0.00000000000E+00 0. -1.
         -2   -1    0    0    0  501 -0.00000000000E+00 -0.00000000000E+00 -0.90910799016E+03  0.90910799016E+03  0.00000000000E+00 0.  1.
         23    2    1    2    0    0 -0.10545335099E+04 -0.13970031440E+04  0.82585588096E+03  0.19375342533E+04  0.91336405101E+02 0.  0.
         13    1    3    3    0    0 -0.27614467765E+03 -0.34298352042E+03  0.16711898478E+03  0.47098018360E+03  0.00000000000E+00 0. -1.
        -13    1    3    3    0    0 -0.77838883221E+03 -0.10540196236E+04  0.65873689619E+03  0.14665540697E+04  0.00000000000E+00 0.  1.
         22    1    1    2    0    0  0.10545335099E+04  0.13970031440E+04  0.18148102006E+04  0.25213478086E+04  0.00000000000E+00 0. -1.
<mgrwt>
<rscale>  0 0.35928418E+04</rscale>
<asrwt>0</asrwt>
<pdfrwt beam="1">  1        2 0.54611908E+00 0.35928418E+04</pdfrwt>
<pdfrwt beam="2">  1       -2 0.13986277E+00 0.35928418E+04</pdfrwt>
<totfact> 0.21980225E-01</totfact>
</mgrwt>
</event>
<event>
 6    1  0.1817112E-005  0.3489002E+04  0.7818608E-02  0.8116401E-01
         -2   -1    0    0    0  501 -0.00000000000E+00  0.00000000000E+00  0.88796346142E+03  0.88796346142E+03  0.00000000000E+00 0.  1.
          2   -1    0    0  501    0  0.00000000000E+00 -0.00000000000E+00 -0.34272625713E+04  0.34272625713E+04  0.00000000000E+00 0. -1.
         23    2    1    2    0    0  0.11395311841E+03  0.16603963403E+04 -0.19121737678E+04  0.25366908167E+04  0.92143699274E+02 0.  0.
         11    1    3    3    0    0  0.22585633473E+02  0.47210373411E+03 -0.60565373053E+03  0.76825027687E+03  0.00000000000E+00 0. -1.
        -11    1    3    3    0    0  0.91367484935E+02  0.11882926061E+04 -0.13065200373E+04  0.17684405398E+04  0.00000000000E+00 0.  1.
         22    1    1    2    0    0 -0.11395311841E+03 -0.16603963403E+04 -0.62712534207E+03  0.17785352160E+04  0.00000000000E+00 0.  1.
<mgrwt>
<rscale>  0 0.34890021E+04</rscale>
<asrwt>0</asrwt>
<pdfrwt beam="1">  1        2 0.52727116E+00 0.34890021E+04</pdfrwt>
<pdfrwt beam="2">  1       -2 0.13660976E+00 0.34890021E+04</pdfrwt>
<totfact> 0.28703342E-01</totfact>
</mgrwt>
</event>
<event>
 6    1  0.1817112E-005  0.6189175E+03  0.7818608E-02  0.9866917E-01
         -2   -1    0    0    0  501 -0.00000000000E+00  0.00000000000E+00  0.43368685484E+03  0.43368685484E+03  0.00000000000E+00 0. -1.
          2   -1    0    0  501    0  0.00000000000E+00 -0.00000000000E+00 -0.22081534104E+03  0.22081534104E+03  0.00000000000E+00 0.  1.
         23    2    1    2    0    0 -0.17528334433E+03  0.42920992815E+02 -0.14865794907E+03  0.25043535124E+03  0.89734145691E+02 0.  0.
         11    1    3    3    0    0 -0.86440485538E+02  0.19811401483E+02 -0.12902069304E+03  0.15655921692E+03  0.00000000000E+00 0.  1.
        -11    1    3    3    0    0 -0.88842858793E+02  0.23109591332E+02 -0.19637256026E+02  0.93876134317E+02  0.00000000000E+00 0. -1.
         22    1    1    2    0    0  0.17528334433E+03 -0.42920992815E+02  0.36152946287E+03  0.40406684465E+03  0.00000000000E+00 0. -1.
<mgrwt>
<rscale>  0 0.61891748E+03</rscale>
<asrwt>0</asrwt>
<pdfrwt beam="1">  1        2 0.33971591E-01 0.61891748E+03</pdfrwt>
<pdfrwt beam="2">  1       -2 0.66721055E-01 0.61891748E+03</pdfrwt>
<totfact> 0.32243634E+02</totfact>
</mgrwt>
</event>
<event>
 6    1  0.1817112E-005  0.3163599E+04  0.7818608E-02  0.8198497E-01
          2   -1    0    0  501    0  0.00000000000E+00  0.00000000000E+00  0.15610040898E+04  0.15610040898E+04  0.00000000000E+00 0. -1.
         -2   -1    0    0    0  501 -0.00000000000E+00 -0.00000000000E+00 -0.16028720217E+04  0.16028720217E+04  0.00000000000E+00 0.  1.
         23    2    1    2    0    0 -0.93365859575E+03 -0.21779276944E+03 -0.12775407910E+04  0.15998941812E+04  0.91645264691E+02 0.  0.
         11    1    3    3    0    0 -0.36139133305E+03 -0.10385487433E+03 -0.43440687597E+03  0.57454230864E+03  0.00000000000E+00 0.  1.
        -11    1    3    3    0    0 -0.57226726271E+03 -0.11393789511E+03 -0.84313391500E+03  0.10253518725E+04  0.00000000000E+00 0. -1.
         22    1    1    2    0    0  0.93365859575E+03  0.21779276944E+03  0.12356728590E+04  0.15639819303E+04  0.00000000000E+00 0. -1.
<mgrwt>
<rscale>  0 0.31635991E+04</rscale>
<asrwt>0</asrwt>
<pdfrwt beam="1">  1        2 0.24015448E+00 0.31635991E+04</pdfrwt>
<pdfrwt beam="2">  1       -2 0.24659569E+00 0.31635991E+04</pdfrwt>
<totfact> 0.66805164E-01</totfact>
</mgrwt>
</event>
<event>
 6    1  0.1817112E-005  0.2006787E+04  0.7818608E-02  0.8603454E-01
          2   -1    0    0  501    0  0.00000000000E+00  0.00000000000E+00  0.28991984993E+04  0.28991984993E+04  0.00000000000E+00 0. -1.
         -2   -1    0    0    0  501 -0.00000000000E+00 -0.00000000000E+00 -0.34726795217E+03  0.34726795217E+03  0.00000000000E+00 0.  1.
         23    2    1    2    0    0  0.39210030465E+03 -0.29146208497E+03  0.26925768111E+04  0.27380629037E+04  0.91245739934E+02 0.  0.
         13    1    3    3    0    0  0.24059879750E+03 -0.13562117418E+03  0.16650217967E+04  0.16877732276E+04  0.00000000000E+00 0.  1.
        -13    1    3    3    0    0  0.15150150714E+03 -0.15584091080E+03  0.10275550143E+04  0.10502896761E+04  0.00000000000E+00 0. -1.
         22    1    1    2    0    0 -0.39210030465E+03  0.29146208497E+03 -0.14064626392E+03  0.50840354782E+03  0.00000000000E+00 0.  1.
<mgrwt>
<rscale>  0 0.20067872E+04</rscale>
<asrwt>0</asrwt>
<pdfrwt beam="1">  1        2 0.44603052E+00 0.20067872E+04</pdfrwt>
<pdfrwt beam="2">  1       -2 0.53425841E-01 0.20067872E+04</pdfrwt>
<totfact> 0.61788228E+00</totfact>
</mgrwt>
</event>
<event>
 6    1  0.1817112E-005  0.2469603E+04  0.7818608E-02  0.8413895E-01
          2   -1    0    0  501    0  0.00000000000E+00  0.00000000000E+00  0.11594061028E+04  0.11594061028E+04  0.00000000000E+00 0. -1.
         -2   -1    0    0    0  501 -0.00000000000E+00 -0.00000000000E+00 -0.13151001129E+04  0.13151001129E+04  0.00000000000E+00 0.  1.
         23    2    1    2    0    0  0.41213040336E+03  0.52653779721E+03  0.96017534322E+03  0.11736380690E+04  0.91630268450E+02 0.  0.
         11    1    3    3    0    0  0.17001454069E+03  0.18449497538E+03  0.29261425944E+03  0.38544317975E+03  0.00000000000E+00 0.  1.
        -11    1    3    3    0    0  0.24211586267E+03  0.34204282183E+03  0.66756108377E+03  0.78819488928E+03  0.00000000000E+00 0. -1.
         22    1    1    2    0    0 -0.41213040336E+03 -0.52653779721E+03 -0.11158693533E+04  0.13008681466E+04  0.00000000000E+00 0.  1.
<mgrwt>
<rscale>  0 0.24696033E+04</rscale>
<asrwt>0</asrwt>
<pdfrwt beam="1">  1        2 0.17837017E+00 0.24696033E+04</pdfrwt>
<pdfrwt beam="2">  1       -2 0.20232309E+00 0.24696033E+04</pdfrwt>
<totfact> 0.23005299E+00</totfact>
</mgrwt>
</event>
<event>
 6    1  0.1817112E-005  0.1719166E+04  0.7818608E-02  0.8750508E-01
         -2   -1    0    0    0  501 -0.00000000000E+00  0.00000000000E+00  0.10126103309E+04  0.10126103309E+04  0.00000000000E+00 0.  1.
          2   -1    0    0  501    0  0.00000000000E+00 -0.00000000000E+00 -0.72968111723E+03  0.72968111723E+03  0.00000000000E+00 0. -1.
         23    2    1    2    0    0 -0.16597500756E+03  0.24800124301E+03  0.95613492443E+03  0.10059095848E+04  0.92778119121E+02 0.  0.
         13    1    3    3    0    0 -0.17201091336E+03  0.19868028105E+03  0.79973998313E+03  0.84181093424E+03  0.00000000000E+00 0.  1.
        -13    1    3    3    0    0  0.60359057947E+01  0.49320961964E+02  0.15639494131E+03  0.16409865056E+03  0.00000000000E+00 0. -1.
         22    1    1    2    0    0  0.16597500756E+03 -0.24800124301E+03 -0.67320571076E+03  0.73638186335E+03  0.00000000000E+00 0. -1.
<mgrwt>
<rscale>  0 0.17191657E+04</rscale>
<asrwt>0</asrwt>
<pdfrwt beam="1">  1        2 0.11225863E+00 0.17191657E+04</pdfrwt>
<pdfrwt beam="2">  1       -2 0.15578621E+00 0.17191657E+04</pdfrwt>
<totfact> 0.99919571E+00</totfact>
</mgrwt>
</event>
<event>
 6    1  0.1817112E-005  0.4093970E+04  0.7818608E-02  0.7985854E-01
         -2   -1    0    0    0  501 -0.00000000000E+00  0.00000000000E+00  0.95041651130E+03  0.95041651130E+03  0.00000000000E+00 0.  1.
          2   -1    0    0  501    0  0.00000000000E+00 -0.00000000000E+00 -0.44087476733E+04  0.44087476733E+04  0.00000000000E+00 0. -1.
         23    2    1    2    0    0 -0.11035607341E+04  0.67707247493E+03  0.34386256802E+03  0.13425797412E+04  0.89473268332E+02 0.  0.
         13    1    3    3    0    0 -0.44402816005E+03  0.24972879849E+03  0.17592498481E+03  0.53895740091E+03  0.00000000000E+00 0. -1.
        -13    1    3    3    0    0 -0.65953257403E+03  0.42734367644E+03  0.16793758321E+03  0.80362234032E+03  0.00000000000E+00 0.  1.
         22    1    1    2    0    0  0.11035607341E+04 -0.67707247493E+03 -0.38021937301E+04  0.40165844434E+04  0.00000000000E+00 0. -1.
<mgrwt>
<rscale>  0 0.40939695E+04</rscale>
<asrwt>0</asrwt>
<pdfrwt beam="1">  1        2 0.67826886E+00 0.40939695E+04</pdfrwt>
<pdfrwt beam="2">  1       -2 0.14621793E+00 0.40939695E+04</pdfrwt>
<totfact> 0.37544155E-02</totfact>
</mgrwt>
</event>
<event>
 6    1  0.1817112E-005  0.2003001E+04  0.7818608E-02  0.8605219E-01
         -2   -1    0    0    0  501 -0.00000000000E+00  0.00000000000E+00  0.33678336420E+03  0.33678336420E+03  0.00000000000E+00 0.  1.
          2   -1    0    0  501    0  0.00000000000E+00 -0.00000000000E+00 -0.29781864310E+04  0.29781864310E+04  0.00000000000E+00 0. -1.
         23    2    1    2    0    0  0.93137558581E+03  0.30436983426E+03 -0.99767334152E+03  0.14013478661E+04  0.91226462645E+02 0.  0.
         13    1    3    3    0    0  0.58231865845E+03  0.17189928127E+03 -0.55895916100E+03  0.82527554584E+03  0.00000000000E+00 0. -1.
        -13    1    3    3    0    0  0.34905692736E+03  0.13247055299E+03 -0.43871418052E+03  0.57607232023E+03  0.00000000000E+00 0.  1.
         22    1    1    2    0    0 -0.93137558581E+03 -0.30436983426E+03 -0.16437297252E+04  0.19136219291E+04  0.00000000000E+00 0. -1.
<mgrwt>
<rscale>  0 0.20030014E+04</rscale>
<asrwt>0</asrwt>
<pdfrwt beam="1">  1        2 0.45818250E+00 0.20030014E+04</pdfrwt>
<pdfrwt beam="2">  1       -2 0.51812828E-01 0.20030014E+04</pdfrwt>
<totfact> 0.58841859E+00</totfact>
</mgrwt>
</event>
<event>
 6    1  0.1817112E-005  0.3843585E+04  0.7818608E-02  0.8036866E-01
          2   -1    0    0  501    0  0.00000000000E+00  0.00000000000E+00  0.24341107860E+04  0.24341107860E+04  0.00000000000E+00 0. -1.
         -2   -1    0    0    0  501 -0.00000000000E+00 -0.00000000000E+00 -0.15173040466E+04  0.15173040466E+04  0.00000000000E+00 0.  1.
         23    2    1    2    0    0  0.11336074049E+04  0.15448432074E+04  0.59460559214E+03  0.20083708641E+04  0.91604768751E+02 0.  0.
         11    1    3    3    0    0  0.10484591748E+04  0.14394743722E+04  0.57577669134E+03  0.18715960856E+04  0.00000000000E+00 0. -1.
        -11    1    3    3    0    0  0.85148230091E+02  0.10536883526E+03  0.18828900800E+02  0.13677477851E+03  0.00000000000E+00 0.  1.
         22    1    1    2    0    0 -0.11336074049E+04 -0.15448432074E+04  0.32220114729E+03  0.19430439685E+04  0.00000000000E+00 0. -1.
<mgrwt>
<rscale>  0 0.38435849E+04</rscale>
<asrwt>0</asrwt>
<pdfrwt beam="1">  1        2 0.37447858E+00 0.38435849E+04</pdfrwt>
<pdfrwt beam="2">  1       -2 0.23343139E+00 0.38435849E+04</pdfrwt>
<totfact> 0.24707650E-01</totfact>
</mgrwt>
</event>
<event>
 6    1  0.1817112E-005  0.2315611E+04  0.7818608E-02  0.8471791E-01
          2   -1    0    0  501    0  0.00000000000E+00  0.00000000000E+00  0.12688134309E+04  0.12688134309E+04  0.00000000000E+00 0. -1.
         -2   -1    0    0    0  501 -0.00000000000E+00 -0.00000000000E+00 -0.10565097858E+04  0.10565097858E+04  0.00000000000E+00 0.  1.
         23    2    1    2    0    0 -0.11183876101E+04 -0.25396551111E+03  0.25212056157E+03  0.11777715996E+04  0.91059519503E+02 0.  0.
         13    1    3    3    0    0 -0.25080228588E+03 -0.43242361376E+02  0.20036027743E+02  0.25529028737E+03  0.00000000000E+00 0. -1.
        -13    1    3    3    0    0 -0.86758532418E+03 -0.21072314973E+03  0.23208453383E+03  0.92248131222E+03  0.00000000000E+00 0.  1.
         22    1    1    2    0    0  0.11183876101E+04  0.25396551111E+03 -0.39816916516E+02  0.11475516171E+04  0.00000000000E+00 0.  1.
<mgrwt>
<rscale>  0 0.23156112E+04</rscale>
<asrwt>0</asrwt>
<pdfrwt beam="1">  1        2 0.19520207E+00 0.23156112E+04</pdfrwt>
<pdfrwt beam="2">  1       -2 0.16253997E+00 0.23156112E+04</pdfrwt>
<totfact> 0.37671017E+00</totfact>
</mgrwt>
</event>
<event>
 6    1  0.1817112E-005  0.1828338E+04  0.7818608E-02  0.8691373E-01
         -1   -1    0    0    0  501 -0.00000000000E+00  0.00000000000E+00  0.45857993860E+03  0.45857993860E+03  0.00000000000E+00 0.  1.
          1   -1    0    0  501    0  0.00000000000E+00 -0.00000000000E+00 -0.18223765867E+04  0.18223765867E+04  0.00000000000E+00 0. -1.
         23    2    1    2    0    0  0.48079325110E+03  0.58993336066E+03 -0.13102817937E+04  0.15180362411E+04  0.91717665500E+02 0.  0.
         11    1    3    3    0    0  0.14103429413E+03  0.22037049767E+03 -0.38782353625E+03  0.46782574067E+03  0.00000000000E+00 0. -1.
        -11    1    3    3    0    0  0.33975895697E+03  0.36956286299E+03 -0.92245825744E+03  0.10502105005E+04  0.00000000000E+00 0.  1.
         22    1    1    2    0    0 -0.48079325110E+03 -0.58993336066E+03 -0.53514854371E+02  0.76292028415E+03  0.00000000000E+00 0.  1.
<mgrwt>
<rscale>  0 0.18283384E+04</rscale>
<asrwt>0</asrwt>
<pdfrwt beam="1">  1        1 0.28036563E+00 0.18283384E+04</pdfrwt>
<pdfrwt beam="2">  1       -1 0.70550759E-01 0.18283384E+04</pdfrwt>
<totfact> 0.75174310E+00</totfact>
</mgrwt>
</event>
<event>
 6    1  0.1817112E-005  0.3671837E+04  0.7818608E-02  0.8074232E-01
          2   -1    0    0  501    0  0.00000000000E+00  0.00000000000E+00  0.15023226814E+04  0.15023226814E+04  0.00000000000E+00 0. -1.
         -2   -1    0    0    0  501 -0.00000000000E+00 -0.00000000000E+00 -0.22435902898E+04  0.22435902898E+04  0.00000000000E+00 0.  1.
         23    2    1    2    0    0 -0.10489542838E+04  0.12841219321E+04 -0.11723221141E+04  0.20327048074E+04  0.90969604008E+02 0.  0.
         13    1    3    3    0    0 -0.81357543091E+03  0.93393734377E+03 -0.88076222019E+03  0.15198309223E+04  0.00000000000E+00 0.  1.
        -13    1    3    3    0    0 -0.23537885290E+03  0.35018458829E+03 -0.29155989387E+03  0.51287388507E+03  0.00000000000E+00 0. -1.
         22    1    1    2    0    0  0.10489542838E+04 -0.12841219321E+04  0.43105450561E+03  0.17132081639E+04  0.00000000000E+00 0. -1.
<mgrwt>
<rscale>  0 0.36718369E+04</rscale>
<asrwt>0</asrwt>
<pdfrwt beam="1">  1        2 0.23112657E+00 0.36718369E+04</pdfrwt>
<pdfrwt beam="2">  1       -2 0.34516773E+00 0.36718369E+04</pdfrwt>
<totfact> 0.17105544E-01</totfact>
</mgrwt>
</event>
<event>
 6    1  0.1817112E-005  0.2685775E+04  0.7818608E-02  0.8339635E-01
          2   -1    0    0  501    0  0.00000000000E+00  0.00000000000E+00  0.13122142994E+04  0.13122142994E+04  0.00000000000E+00 0. -1.
         -2   -1    0    0    0  501 -0.00000000000E+00 -0.00000000000E+00 -0.13742774082E+04  0.13742774082E+04  0.00000000000E+00 0.  1.
         23    2    1    2    0    0 -0.68787157299E+03 -0.17330304876E+03 -0.11697998960E+04  0.13710898537E+04  0.90853413307E+02 0.  0.
         13    1    3    3    0    0 -0.28031502840E+03 -0.41658940051E+02 -0.53309276006E+03  0.60373824897E+03  0.00000000000E+00 0. -1.
        -13    1    3    3    0    0 -0.40755654459E+03 -0.13164410871E+03 -0.63670713594E+03  0.76735160478E+03  0.00000000000E+00 0.  1.
         22    1    1    2    0    0  0.68787157299E+03  0.17330304876E+03  0.11077367872E+04  0.13154018539E+04  0.00000000000E+00 0. -1.
<mgrwt>
<rscale>  0 0.26857747E+04</rscale>
<asrwt>0</asrwt>
<pdfrwt beam="1">  1        2 0.20187912E+00 0.26857747E+04</pdfrwt>
<pdfrwt beam="2">  1       -2 0.21142729E+00 0.26857747E+04</pdfrwt>
<totfact> 0.16014211E+00</totfact>
</mgrwt>
</event>
<event>
 6    1  0.1817112E-005  0.2167283E+04  0.7818608E-02  0.8532170E-01
          2   -1    0    0  501    0  0.00000000000E+00  0.00000000000E+00  0.13705783790E+04  0.13705783790E+04  0.00000000000E+00 0. -1.
         -2   -1    0    0    0  501 -0.00000000000E+00 -0.00000000000E+00 -0.85677643582E+03  0.85677643582E+03  0.00000000000E+00 0.  1.
         23    2    1    2    0    0 -0.46621915982E+03  0.48572854470E+03 -0.61375029076E+03  0.91408920407E+03  0.74680181269E+02 0.  0.
         13    1    3    3    0    0 -0.19339207495E+03  0.24990363999E+03 -0.26475597549E+03  0.41224755972E+03  0.00000000000E+00 0.  1.
        -13    1    3    3    0    0 -0.27282708487E+03  0.23582490471E+03 -0.34899431526E+03  0.50184164435E+03  0.00000000000E+00 0. -1.
         22    1    1    2    0    0  0.46621915982E+03 -0.48572854470E+03  0.11275522339E+04  0.13132656107E+04  0.00000000000E+00 0. -1.
<mgrwt>
<rscale>  0 0.21672833E+04</rscale>
<asrwt>0</asrwt>
<pdfrwt beam="1">  1        2 0.21085821E+00 0.21672833E+04</pdfrwt>
<pdfrwt beam="2">  1       -2 0.13181176E+00 0.21672833E+04</pdfrwt>
<totfact> 0.57826885E+00</totfact>
</mgrwt>
</event>
<event>
 6    1  0.1817112E-005  0.4782661E+04  0.7818608E-02  0.7862937E-01
          2   -1    0    0  501    0  0.00000000000E+00  0.00000000000E+00  0.17161063248E+04  0.17161063248E+04  0.00000000000E+00 0. -1.
         -2   -1    0    0    0  501 -0.00000000000E+00 -0.00000000000E+00 -0.33322303434E+04  0.33322303434E+04  0.00000000000E+00 0.  1.
         23    2    1    2    0    0 -0.18065035195E+04  0.15318374986E+04 -0.46754082938E+03  0.24159946633E+04  0.91949429163E+02 0.  0.
         13    1    3    3    0    0 -0.92815684306E+03  0.82116789335E+03 -0.20599275061E+03  0.12562741929E+04  0.00000000000E+00 0.  1.
        -13    1    3    3    0    0 -0.87834667646E+03  0.71066960527E+03 -0.26154807877E+03  0.11597204704E+04  0.00000000000E+00 0. -1.
         22    1    1    2    0    0  0.18065035195E+04 -0.15318374986E+04 -0.11485831892E+04  0.26323420049E+04  0.00000000000E+00 0.  1.
<mgrwt>
<rscale>  0 0.47826610E+04</rscale>
<asrwt>0</asrwt>
<pdfrwt beam="1">  1        2 0.26401636E+00 0.47826610E+04</pdfrwt>
<pdfrwt beam="2">  1       -2 0.51265082E+00 0.47826610E+04</pdfrwt>
<totfact> 0.98891998E-03</totfact>
</mgrwt>
</event>
<event>
 6    1  0.1817112E-005  0.2501390E+04  0.7818608E-02  0.8402490E-01
         -2   -1    0    0    0  501 -0.00000000000E+00  0.00000000000E+00  0.60690774885E+03  0.60690774885E+03  0.00000000000E+00 0.  1.
          2   -1    0    0  501    0  0.00000000000E+00 -0.00000000000E+00 -0.25773903892E+04  0.25773903892E+04  0.00000000000E+00 0. -1.
         23    2    1    2    0    0 -0.94112255933E+03 -0.72624703424E+03 -0.49989138147E+03  0.12933235012E+04  0.98223516281E+02 0.  0.
         11    1    3    3    0    0 -0.94004421059E+02 -0.45228406893E+02 -0.63123983708E+02  0.12193062490E+03  0.00000000000E+00 0. -1.
        -11    1    3    3    0    0 -0.84711813827E+03 -0.68101862735E+03 -0.43676739776E+03  0.11713928763E+04  0.00000000000E+00 0.  1.
         22    1    1    2    0    0  0.94112255933E+03  0.72624703424E+03 -0.14705912589E+04  0.18909746368E+04  0.00000000000E+00 0.  1.
<mgrwt>
<rscale>  0 0.25013902E+04</rscale>
<asrwt>0</asrwt>
<pdfrwt beam="1">  1        2 0.39652160E+00 0.25013902E+04</pdfrwt>
<pdfrwt beam="2">  1       -2 0.93370423E-01 0.25013902E+04</pdfrwt>
<totfact> 0.27148702E+00</totfact>
</mgrwt>
</event>
<event>
 6    1  0.1817112E-005  0.2443065E+04  0.7818608E-02  0.8423554E-01
         -1   -1    0    0    0  501 -0.00000000000E+00  0.00000000000E+00  0.54095151794E+03  0.54095151794E+03  0.00000000000E+00 0.  1.
          1   -1    0    0  501    0  0.00000000000E+00 -0.00000000000E+00 -0.27583652856E+04  0.27583652856E+04  0.00000000000E+00 0. -1.
         23    2    1    2    0    0 -0.20029503233E+03 -0.75158932497E+03 -0.23792711867E+04  0.25048343069E+04  0.90878552929E+02 0.  0.
         11    1    3    3    0    0 -0.15891812297E+03 -0.44271293567E+03 -0.14955352265E+04  0.15677612468E+04  0.00000000000E+00 0. -1.
        -11    1    3    3    0    0 -0.41376909358E+02 -0.30887638931E+03 -0.88373596024E+03  0.93707306008E+03  0.00000000000E+00 0.  1.
         22    1    1    2    0    0  0.20029503233E+03  0.75158932497E+03  0.16185741910E+03  0.79448249666E+03  0.00000000000E+00 0.  1.
<mgrwt>
<rscale>  0 0.24430652E+04</rscale>
<asrwt>0</asrwt>
<pdfrwt beam="1">  1        1 0.42436388E+00 0.24430652E+04</pdfrwt>
<pdfrwt beam="2">  1       -1 0.83223312E-01 0.24430652E+04</pdfrwt>
<totfact> 0.11415046E+00</totfact>
</mgrwt>
</event>
<event>
 6    1  0.1817112E-005  0.1562567E+04  0.7818608E-02  0.8843880E-01
         -2   -1    0    0    0  501 -0.00000000000E+00  0.00000000000E+00  0.12363432618E+04  0.12363432618E+04  0.00000000000E+00 0.  1.
          2   -1    0    0  501    0  0.00000000000E+00 -0.00000000000E+00 -0.49371730228E+03  0.49371730228E+03  0.00000000000E+00 0. -1.
         23    2    1    2    0    0 -0.72586499824E+03 -0.26772883858E+03  0.47102938317E+03  0.91010725631E+03  0.88700684901E+02 0.  0.
         13    1    3    3    0    0 -0.37017026283E+03 -0.16668292143E+03  0.28626869060E+03  0.49674841016E+03  0.00000000000E+00 0. -1.
        -13    1    3    3    0    0 -0.35569473541E+03 -0.10104591715E+03  0.18476069257E+03  0.41335884615E+03  0.00000000000E+00 0.  1.
         22    1    1    2    0    0  0.72586499824E+03  0.26772883858E+03  0.27159657639E+03  0.81995330781E+03  0.00000000000E+00 0. -1.
<mgrwt>
<rscale>  0 0.15625672E+04</rscale>
<asrwt>0</asrwt>
<pdfrwt beam="1">  1        2 0.75956509E-01 0.15625672E+04</pdfrwt>
<pdfrwt beam="2">  1       -2 0.19020665E+00 0.15625672E+04</pdfrwt>
<totfact> 0.92754688E+00</totfact>
</mgrwt>
</event>
<event>
 6    1  0.1817112E-005  0.1126404E+04  0.7818608E-02  0.9179832E-01
          2   -1    0    0  501    0  0.00000000000E+00  0.00000000000E+00  0.12270566413E+04  0.12270566413E+04  0.00000000000E+00 0.  1.
         -2   -1    0    0    0  501 -0.00000000000E+00 -0.00000000000E+00 -0.25850191688E+03  0.25850191688E+03  0.00000000000E+00 0. -1.
         23    2    1    2    0    0 -0.65795363503E+02  0.50219952003E+03  0.80096987394E+03  0.95206247581E+03  0.91306249053E+02 0.  0.
         13    1    3    3    0    0 -0.41272538073E+02  0.14016625069E+03  0.16973404661E+03  0.22396349437E+03  0.00000000000E+00 0.  1.
        -13    1    3    3    0    0 -0.24522825430E+02  0.36203326934E+03  0.63123582732E+03  0.72809898144E+03  0.00000000000E+00 0. -1.
         22    1    1    2    0    0  0.65795363503E+02 -0.50219952003E+03  0.16758485047E+03  0.53349608235E+03  0.00000000000E+00 0. -1.
<mgrwt>
<rscale>  0 0.11264040E+04</rscale>
<asrwt>0</asrwt>
<pdfrwt beam="1">  1        2 0.18877794E+00 0.11264040E+04</pdfrwt>
<pdfrwt beam="2">  1       -2 0.39769526E-01 0.11264040E+04</pdfrwt>
<totfact> 0.10813246E+02</totfact>
</mgrwt>
</event>
<event>
 6    1  0.1817112E-005  0.3357850E+04  0.7818608E-02  0.8148329E-01
         -2   -1    0    0    0  501 -0.00000000000E+00  0.00000000000E+00  0.88664995316E+03  0.88664995316E+03  0.00000000000E+00 0.  1.
          2   -1    0    0  501    0  0.00000000000E+00 -0.00000000000E+00 -0.31791460185E+04  0.31791460185E+04  0.00000000000E+00 0. -1.
         23    2    1    2    0    0 -0.13637181679E+04  0.93063034099E+03 -0.15086919626E+04  0.22381885345E+04  0.86812468514E+02 0.  0.
         11    1    3    3    0    0 -0.20041732181E+03  0.12206684044E+03 -0.17799827330E+03  0.29453489049E+03  0.00000000000E+00 0.  1.
        -11    1    3    3    0    0 -0.11633008461E+04  0.80856350055E+03 -0.13306936893E+04  0.19436536440E+04  0.00000000000E+00 0. -1.
         22    1    1    2    0    0  0.13637181679E+04 -0.93063034099E+03 -0.78380410269E+03  0.18276074372E+04  0.00000000000E+00 0. -1.
<mgrwt>
<rscale>  0 0.33578503E+04</rscale>
<asrwt>0</asrwt>
<pdfrwt beam="1">  1        2 0.48909938E+00 0.33578503E+04</pdfrwt>
<pdfrwt beam="2">  1       -2 0.13640769E+00 0.33578503E+04</pdfrwt>
<totfact> 0.42687344E-01</totfact>
</mgrwt>
</event>
<event>
 6    1  0.1817112E-005  0.4826399E+03  0.7818608E-02  0.1018412E+00
          2   -1    0    0  501    0  0.00000000000E+00  0.00000000000E+00  0.73454546909E+03  0.73454546909E+03  0.00000000000E+00 0. -1.
         -2   -1    0    0    0  501 -0.00000000000E+00 -0.00000000000E+00 -0.79280763057E+02  0.79280763057E+02  0.00000000000E+00 0.  1.
         23    2    1    2    0    0 -0.18539120671E+03 -0.12950006567E+03  0.42962683991E+03  0.49436948521E+03  0.93176176175E+02 0.  0.
         13    1    3    3    0    0 -0.91042179654E+02 -0.11615610025E+03  0.23188730396E+03  0.27486840458E+03  0.00000000000E+00 0. -1.
        -13    1    3    3    0    0 -0.94349027053E+02 -0.13343965418E+02  0.19773953595E+03  0.21950108063E+03  0.00000000000E+00 0.  1.
         22    1    1    2    0    0  0.18539120671E+03  0.12950006567E+03  0.22563786612E+03  0.31945674693E+03  0.00000000000E+00 0.  1.
<mgrwt>
<rscale>  0 0.48263993E+03</rscale>
<asrwt>0</asrwt>
<pdfrwt beam="1">  1        2 0.11300699E+00 0.48263993E+03</pdfrwt>
<pdfrwt beam="2">  1       -2 0.12197041E-01 0.48263993E+03</pdfrwt>
<totfact> 0.19091328E+03</totfact>
</mgrwt>
</event>
<event>
 6    1  0.1817112E-005  0.3289008E+04  0.7818608E-02  0.8165698E-01
         -2   -1    0    0    0  501 -0.00000000000E+00  0.00000000000E+00  0.14094636137E+04  0.14094636137E+04  0.00000000000E+00 0.  1.
          2   -1    0    0  501    0  0.00000000000E+00 -0.00000000000E+00 -0.19187392338E+04  0.19187392338E+04  0.00000000000E+00 0. -1.
         23    2    1    2    0    0 -0.12583485526E+04  0.10405095474E+04 -0.44191474506E+03  0.16939939607E+04  0.90695638745E+02 0.  0.
         11    1    3    3    0    0 -0.99677635009E+03  0.79936080661E+03 -0.37871316647E+03  0.13326531633E+04  0.00000000000E+00 0.  1.
        -11    1    3    3    0    0 -0.26157220254E+03  0.24114874074E+03 -0.63201578586E+02  0.36134079736E+03  0.00000000000E+00 0. -1.
         22    1    1    2    0    0  0.12583485526E+04 -0.10405095474E+04 -0.67360875012E+02  0.16342088867E+04  0.00000000000E+00 0.  1.
<mgrwt>
<rscale>  0 0.32890078E+04</rscale>
<asrwt>0</asrwt>
<pdfrwt beam="1">  1        2 0.29519065E+00 0.32890078E+04</pdfrwt>
<pdfrwt beam="2">  1       -2 0.21684056E+00 0.32890078E+04</pdfrwt>
<totfact> 0.64156994E-01</totfact>
</mgrwt>
</event>
<event>
 6    1  0.1817112E-005  0.2243272E+04  0.7818608E-02  0.8500630E-01
         -2   -1    0    0    0  501 -0.00000000000E+00  0.00000000000E+00  0.91500325960E+03  0.91500325960E+03  0.00000000000E+00 0.  1.
          2   -1    0    0  501    0  0.00000000000E+00 -0.00000000000E+00 -0.13749324169E+04  0.13749324169E+04  0.00000000000E+00 0. -1.
         23    2    1    2    0    0 -0.18916099379E+03 -0.10743681212E+04  0.27556633095E+02  0.10950753761E+04  0.91553098980E+02 0.  0.
         11    1    3    3    0    0 -0.73539821067E+02 -0.53175858484E+03 -0.27735390738E+02  0.53753562648E+03  0.00000000000E+00 0.  1.
        -11    1    3    3    0    0 -0.11562117273E+03 -0.54260953638E+03  0.55292023834E+02  0.55753974967E+03  0.00000000000E+00 0. -1.
         22    1    1    2    0    0  0.18916099379E+03  0.10743681212E+04 -0.48748579035E+03  0.11948603003E+04  0.00000000000E+00 0. -1.
<mgrwt>
<rscale>  0 0.22432723E+04</rscale>
<asrwt>0</asrwt>
<pdfrwt beam="1">  1        2 0.21152806E+00 0.22432723E+04</pdfrwt>
<pdfrwt beam="2">  1       -2 0.14076973E+00 0.22432723E+04</pdfrwt>
<totfact> 0.48247658E+00</totfact>
</mgrwt>
</event>
<event>
 6    1  0.1817112E-005  0.2095648E+04  0.7818608E-02  0.8563163E-01
          2   -1    0    0  501    0  0.00000000000E+00  0.00000000000E+00  0.23826466694E+04  0.23826466694E+04  0.00000000000E+00 0. -1.
         -2   -1    0    0    0  501 -0.00000000000E+00 -0.00000000000E+00 -0.46080472089E+03  0.46080472089E+03  0.00000000000E+00 0.  1.
         23    2    1    2    0    0 -0.74009498220E+03  0.55008712471E+03  0.16323770371E+04  0.18769492628E+04  0.89147722102E+02 0.  0.
         13    1    3    3    0    0 -0.67045004164E+03  0.52226294435E+03  0.15276965715E+04  0.17481758081E+04  0.00000000000E+00 0.  1.
        -13    1    3    3    0    0 -0.69644940570E+02  0.27824180361E+02  0.10468046564E+03  0.12877345474E+03  0.00000000000E+00 0. -1.
         22    1    1    2    0    0  0.74009498220E+03 -0.55008712471E+03  0.28946491135E+03  0.96650212745E+03  0.00000000000E+00 0. -1.
<mgrwt>
<rscale>  0 0.20956477E+04</rscale>
<asrwt>0</asrwt>
<pdfrwt beam="1">  1        2 0.36656102E+00 0.20956477E+04</pdfrwt>
<pdfrwt beam="2">  1       -2 0.70893036E-01 0.20956477E+04</pdfrwt>
<totfact> 0.67805713E+00</totfact>
</mgrwt>
</event>
<event>
 6    1  0.1817112E-005  0.2141887E+04  0.7818608E-02  0.8543013E-01
          2   -1    0    0  501    0  0.00000000000E+00  0.00000000000E+00  0.19315284289E+04  0.19315284289E+04  0.00000000000E+00 0. -1.
         -2   -1    0    0    0  501 -0.00000000000E+00 -0.00000000000E+00 -0.59378900861E+03  0.59378900861E+03  0.00000000000E+00 0.  1.
         23    2    1    2    0    0  0.87276660778E+03  0.53809799424E+03  0.31316373765E+03  0.10758256878E+04  0.89768484982E+02 0.  0.
         13    1    3    3    0    0  0.42376976394E+03  0.20875285756E+03  0.14534077819E+03  0.49424944125E+03  0.00000000000E+00 0. -1.
        -13    1    3    3    0    0  0.44899684383E+03  0.32934513669E+03  0.16782295946E+03  0.58157624655E+03  0.00000000000E+00 0.  1.
         22    1    1    2    0    0 -0.87276660778E+03 -0.53809799424E+03  0.10245756827E+04  0.14494917497E+04  0.00000000000E+00 0.  1.
<mgrwt>
<rscale>  0 0.21418873E+04</rscale>
<asrwt>0</asrwt>
<pdfrwt beam="1">  1        2 0.29715822E+00 0.21418873E+04</pdfrwt>
<pdfrwt beam="2">  1       -2 0.91352156E-01 0.21418873E+04</pdfrwt>
<totfact> 0.68382609E+00</totfact>
</mgrwt>
</event>
<event>
 6    1  0.1817112E-005  0.8651317E+03  0.7818608E-02  0.9470250E-01
          2   -1    0    0  501    0  0.00000000000E+00  0.00000000000E+00  0.35000367396E+03  0.35000367396E+03  0.00000000000E+00 0. -1.
         -2   -1    0    0    0  501 -0.00000000000E+00 -0.00000000000E+00 -0.53460358195E+03  0.53460358195E+03  0.00000000000E+00 0.  1.
         23    2    1    2    0    0  0.21622740308E+03  0.27827340111E+03 -0.34119796252E+03  0.49897358739E+03  0.91477951847E+02 0.  0.
         13    1    3    3    0    0  0.14753954748E+02  0.66099407938E+01 -0.50397383832E+02  0.52926994956E+02  0.00000000000E+00 0.  1.
        -13    1    3    3    0    0  0.20147344833E+03  0.27166346032E+03 -0.29080057869E+03  0.44604659243E+03  0.00000000000E+00 0. -1.
         22    1    1    2    0    0 -0.21622740308E+03 -0.27827340111E+03  0.15659805453E+03  0.38563366851E+03  0.00000000000E+00 0. -1.
<mgrwt>
<rscale>  0 0.86513171E+03</rscale>
<asrwt>0</asrwt>
<pdfrwt beam="1">  1        2 0.53846719E-01 0.86513171E+03</pdfrwt>
<pdfrwt beam="2">  1       -2 0.82246705E-01 0.86513171E+03</pdfrwt>
<totfact> 0.12063064E+02</totfact>
</mgrwt>
</event>
<event>
 6    1  0.1817112E-005  0.1352085E+04  0.7818608E-02  0.8989251E-01
         -4   -1    0    0    0  501 -0.00000000000E+00  0.00000000000E+00  0.25008530038E+03  0.25008530038E+03  0.00000000000E+00 0.  1.
          4   -1    0    0  501    0  0.00000000000E+00 -0.00000000000E+00 -0.18275110309E+04  0.18275110309E+04  0.00000000000E+00 0. -1.
         23    2    1    2    0    0 -0.23903094402E+03  0.48527699452E+03 -0.14073292584E+04  0.15105316406E+04  0.92198925396E+02 0.  0.
         11    1    3    3    0    0 -0.22714897357E+03  0.41287736898E+03 -0.12738294095E+04  0.13581994488E+04  0.00000000000E+00 0. -1.
        -11    1    3    3    0    0 -0.11881970449E+02  0.72399625532E+02 -0.13349984890E+03  0.15233219179E+03  0.00000000000E+00 0.  1.
         22    1    1    2    0    0  0.23903094402E+03 -0.48527699452E+03 -0.17009647203E+03  0.56706469067E+03  0.00000000000E+00 0.  1.
<mgrwt>
<rscale>  0 0.13520853E+04</rscale>
<asrwt>0</asrwt>
<pdfrwt beam="1">  1        4 0.28115554E+00 0.13520853E+04</pdfrwt>
<pdfrwt beam="2">  1       -4 0.38474662E-01 0.13520853E+04</pdfrwt>
<totfact> 0.52445182E-01</totfact>
</mgrwt>
</event>
<event>
 6    1  0.1817112E-005  0.3900039E+04  0.7818608E-02  0.8025021E-01
         -2   -1    0    0    0  501 -0.00000000000E+00  0.00000000000E+00  0.12369961242E+04  0.12369961242E+04  0.00000000000E+00 0.  1.
          2   -1    0    0  501    0  0.00000000000E+00 -0.00000000000E+00 -0.30740402313E+04  0.30740402313E+04  0.00000000000E+00 0. -1.
         23    2    1    2    0    0 -0.29247240743E+03 -0.75147102802E+03 -0.28801284167E+04  0.29926002775E+04  0.10133069148E+03 0.  0.
         13    1    3    3    0    0 -0.22857764528E+03 -0.66369052276E+03 -0.24134411027E+04  0.25134499808E+04  0.00000000000E+00 0.  1.
        -13    1    3    3    0    0 -0.63894762144E+02 -0.87780505262E+02 -0.46668731405E+03  0.47915029670E+03  0.00000000000E+00 0. -1.
         22    1    1    2    0    0  0.29247240743E+03  0.75147102802E+03  0.10430843096E+04  0.13184360781E+04  0.00000000000E+00 0.  1.
<mgrwt>
<rscale>  0 0.39000389E+04</rscale>
<asrwt>0</asrwt>
<pdfrwt beam="1">  1        2 0.47292926E+00 0.39000389E+04</pdfrwt>
<pdfrwt beam="2">  1       -2 0.19030710E+00 0.39000389E+04</pdfrwt>
<totfact> 0.19165227E-01</totfact>
</mgrwt>
</event>
<event>
 6    1  0.1817112E-005  0.1656801E+04  0.7818608E-02  0.8786393E-01
         -2   -1    0    0    0  501 -0.00000000000E+00  0.00000000000E+00  0.38274152511E+03  0.38274152511E+03  0.00000000000E+00 0. -1.
          2   -1    0    0  501    0  0.00000000000E+00 -0.00000000000E+00 -0.17929788378E+04  0.17929788378E+04  0.00000000000E+00 0.  1.
         23    2    1    2    0    0  0.66472917517E+03  0.41127083762E+03 -0.35676932219E+03  0.86392640608E+03  0.89866054006E+02 0.  0.
         13    1    3    3    0    0  0.38320933872E+03  0.22453215668E+03 -0.15488500475E+03  0.47037586180E+03  0.00000000000E+00 0.  1.
        -13    1    3    3    0    0  0.28151983645E+03  0.18673868094E+03 -0.20188431744E+03  0.39355054428E+03  0.00000000000E+00 0. -1.
         22    1    1    2    0    0 -0.66472917517E+03 -0.41127083762E+03 -0.10534679905E+04  0.13117939568E+04  0.00000000000E+00 0.  1.
<mgrwt>
<rscale>  0 0.16568011E+04</rscale>
<asrwt>0</asrwt>
<pdfrwt beam="1">  1        2 0.27584289E+00 0.16568011E+04</pdfrwt>
<pdfrwt beam="2">  1       -2 0.58883313E-01 0.16568011E+04</pdfrwt>
<totfact> 0.22399411E+01</totfact>
</mgrwt>
</event>
<event>
 6    1  0.1817112E-005  0.1470880E+04  0.7818608E-02  0.8904052E-01
         -2   -1    0    0    0  501 -0.00000000000E+00  0.00000000000E+00  0.22880322725E+03  0.22880322725E+03  0.00000000000E+00 0.  1.
          2   -1    0    0  501    0  0.00000000000E+00 -0.00000000000E+00 -0.23639169332E+04  0.23639169332E+04  0.00000000000E+00 0. -1.
         23    2    1    2    0    0  0.24413585840E+03 -0.64108056732E+03 -0.61796649095E+03  0.92769094656E+03  0.90229137390E+02 0.  0.
         11    1    3    3    0    0  0.11362836356E+03 -0.20346366956E+03 -0.17449020617E+03  0.29112832546E+03  0.00000000000E+00 0.  1.
        -11    1    3    3    0    0  0.13050749484E+03 -0.43761689776E+03 -0.44347628478E+03  0.63656262110E+03  0.00000000000E+00 0. -1.
         22    1    1    2    0    0 -0.24413585840E+03  0.64108056732E+03 -0.15171472150E+04  0.16650292139E+04  0.00000000000E+00 0. -1.
<mgrwt>
<rscale>  0 0.14708798E+04</rscale>
<asrwt>0</asrwt>
<pdfrwt beam="1">  1        2 0.36367954E+00 0.14708798E+04</pdfrwt>
<pdfrwt beam="2">  1       -2 0.35200495E-01 0.14708798E+04</pdfrwt>
<totfact> 0.30653773E+01</totfact>
</mgrwt>
</event>
<event>
 6    1  0.1817112E-005  0.2325547E+04  0.7818608E-02  0.8467916E-01
          2   -1    0    0  501    0  0.00000000000E+00  0.00000000000E+00  0.89152995714E+03  0.89152995714E+03  0.00000000000E+00 0. -1.
         -2   -1    0    0    0  501 -0.00000000000E+00 -0.00000000000E+00 -0.15165420251E+04  0.15165420251E+04  0.00000000000E+00 0.  1.
         23    2    1    2    0    0  0.35751698085E+02 -0.40873952017E+03 -0.14376187686E+04  0.14977556476E+04  0.90432720655E+02 0.  0.
         11    1    3    3    0    0 -0.24244870082E+02 -0.19598853502E+03 -0.61311757155E+03  0.64413700105E+03  0.00000000000E+00 0. -1.
        -11    1    3    3    0    0  0.59996568167E+02 -0.21275098515E+03 -0.82450119702E+03  0.85361864657E+03  0.00000000000E+00 0.  1.
         22    1    1    2    0    0 -0.35751698085E+02  0.40873952017E+03  0.81260670059E+03  0.91031633464E+03  0.00000000000E+00 0. -1.
<mgrwt>
<rscale>  0 0.23255474E+04</rscale>
<asrwt>0</asrwt>
<pdfrwt beam="1">  1        2 0.13715846E+00 0.23255474E+04</pdfrwt>
<pdfrwt beam="2">  1       -2 0.23331416E+00 0.23255474E+04</pdfrwt>
<totfact> 0.21907488E+00</totfact>
</mgrwt>
</event>
<event>
 6    1  0.1817112E-005  0.1269340E+04  0.7818608E-02  0.9054238E-01
         -1   -1    0    0    0  501 -0.00000000000E+00  0.00000000000E+00  0.23362228119E+03  0.23362228119E+03  0.00000000000E+00 0.  1.
          1   -1    0    0  501    0  0.00000000000E+00 -0.00000000000E+00 -0.17241766878E+04  0.17241766878E+04  0.00000000000E+00 0. -1.
         23    2    1    2    0    0  0.60389845432E+02  0.51222812120E+02 -0.17152905933E+04  0.17195195877E+04  0.90857488418E+02 0.  0.
         13    1    3    3    0    0  0.86582674178E+01 -0.20429729516E+02 -0.71156734244E+03  0.71191321259E+03  0.00000000000E+00 0. -1.
        -13    1    3    3    0    0  0.51731578014E+02  0.71652541636E+02 -0.10037232509E+04  0.10076063751E+04  0.00000000000E+00 0.  1.
         22    1    1    2    0    0 -0.60389845432E+02 -0.51222812120E+02  0.22473618670E+03  0.23827938124E+03  0.00000000000E+00 0.  1.
<mgrwt>
<rscale>  0 0.12693401E+04</rscale>
<asrwt>0</asrwt>
<pdfrwt beam="1">  1        1 0.26525795E+00 0.12693401E+04</pdfrwt>
<pdfrwt beam="2">  1       -1 0.35941889E-01 0.12693401E+04</pdfrwt>
<totfact> 0.33436025E+01</totfact>
</mgrwt>
</event>
<event>
 6    1  0.1817112E-005  0.2597049E+04  0.7818608E-02  0.8369204E-01
          2   -1    0    0  501    0  0.00000000000E+00  0.00000000000E+00  0.23079297462E+04  0.23079297462E+04  0.00000000000E+00 0. -1.
         -2   -1    0    0    0  501 -0.00000000000E+00 -0.00000000000E+00 -0.73059688177E+03  0.73059688177E+03  0.00000000000E+00 0.  1.
         23    2    1    2    0    0 -0.67212641943E+03  0.89135413124E+03  0.15616377150E+04  0.19220534090E+04  0.96492710578E+02 0.  0.
         13    1    3    3    0    0 -0.29783039532E+03  0.32423936528E+03  0.57960947566E+03  0.72786073850E+03  0.00000000000E+00 0. -1.
        -13    1    3    3    0    0 -0.37429602410E+03  0.56711476596E+03  0.98202823935E+03  0.11941926705E+04  0.00000000000E+00 0.  1.
         22    1    1    2    0    0  0.67212641943E+03 -0.89135413124E+03  0.15695149445E+02  0.11164732190E+04  0.00000000000E+00 0.  1.
<mgrwt>
<rscale>  0 0.25970493E+04</rscale>
<asrwt>0</asrwt>
<pdfrwt beam="1">  1        2 0.35506611E+00 0.25970493E+04</pdfrwt>
<pdfrwt beam="2">  1       -2 0.11239952E+00 0.25970493E+04</pdfrwt>
<totfact> 0.24746982E+00</totfact>
</mgrwt>
</event>
<event>
 6    1  0.1817112E-005  0.2092060E+04  0.7818608E-02  0.8564749E-01
          2   -1    0    0  501    0  0.00000000000E+00  0.00000000000E+00  0.10323735556E+04  0.10323735556E+04  0.00000000000E+00 0. -1.
         -2   -1    0    0    0  501 -0.00000000000E+00 -0.00000000000E+00 -0.10598673316E+04  0.10598673316E+04  0.00000000000E+00 0.  1.
         23    2    1    2    0    0 -0.47346705207E+03 -0.36478092259E+03 -0.86973956793E+03  0.10594707556E+04  0.93782701190E+02 0.  0.
         13    1    3    3    0    0 -0.35507987637E+03 -0.25790954507E+03 -0.70296760159E+03  0.82871134958E+03  0.00000000000E+00 0.  1.
        -13    1    3    3    0    0 -0.11838717570E+03 -0.10687137752E+03 -0.16677196634E+03  0.23075940601E+03  0.00000000000E+00 0. -1.
         22    1    1    2    0    0  0.47346705207E+03  0.36478092259E+03  0.84224579185E+03  0.10327701316E+04  0.00000000000E+00 0. -1.
<mgrwt>
<rscale>  0 0.20920602E+04</rscale>
<asrwt>0</asrwt>
<pdfrwt beam="1">  1        2 0.15882670E+00 0.20920602E+04</pdfrwt>
<pdfrwt beam="2">  1       -2 0.16305651E+00 0.20920602E+04</pdfrwt>
<totfact> 0.52966156E+00</totfact>
</mgrwt>
</event>
<event>
 6    1  0.1817112E-005  0.3182082E+04  0.7818608E-02  0.8193565E-01
          2   -1    0    0  501    0  0.00000000000E+00  0.00000000000E+00  0.15464900525E+04  0.15464900525E+04  0.00000000000E+00 0. -1.
         -2   -1    0    0    0  501 -0.00000000000E+00 -0.00000000000E+00 -0.16368748611E+04  0.16368748611E+04  0.00000000000E+00 0.  1.
         23    2    1    2    0    0  0.12811182834E+04  0.79402173627E+03  0.46016075137E+03  0.15787356768E+04  0.94466112437E+02 0.  0.
         13    1    3    3    0    0  0.29916416354E+03  0.19482763381E+03  0.15061685949E+03  0.38748218282E+03  0.00000000000E+00 0. -1.
        -13    1    3    3    0    0  0.98195411990E+03  0.59919410246E+03  0.30954389188E+03  0.11912534940E+04  0.00000000000E+00 0.  1.
         22    1    1    2    0    0 -0.12811182834E+04 -0.79402173627E+03 -0.55054555990E+03  0.16046292367E+04  0.00000000000E+00 0.  1.
<mgrwt>
<rscale>  0 0.31820815E+04</rscale>
<asrwt>0</asrwt>
<pdfrwt beam="1">  1        2 0.23792155E+00 0.31820815E+04</pdfrwt>
<pdfrwt beam="2">  1       -2 0.25182690E+00 0.31820815E+04</pdfrwt>
<totfact> 0.63108465E-01</totfact>
</mgrwt>
</event>
<event>
 6    1  0.1817112E-005  0.3548882E+04  0.7818608E-02  0.8102302E-01
         -2   -1    0    0    0  501 -0.00000000000E+00  0.00000000000E+00  0.19552507319E+04  0.19552507319E+04  0.00000000000E+00 0.  1.
          2   -1    0    0  501    0  0.00000000000E+00 -0.00000000000E+00 -0.16103513826E+04  0.16103513826E+04  0.00000000000E+00 0. -1.
         23    2    1    2    0    0 -0.10886597059E+04  0.13297997940E+04  0.61138649006E+03  0.18264750796E+04  0.93114599699E+02 0.  0.
         11    1    3    3    0    0 -0.42052393695E+03  0.47115094603E+03  0.18658990152E+03  0.65851301190E+03  0.00000000000E+00 0.  1.
        -11    1    3    3    0    0 -0.66813576893E+03  0.85864884800E+03  0.42479658853E+03  0.11679620677E+04  0.00000000000E+00 0. -1.
         22    1    1    2    0    0  0.10886597059E+04 -0.13297997940E+04 -0.26648714072E+03  0.17391270349E+04  0.00000000000E+00 0. -1.
<mgrwt>
<rscale>  0 0.35488819E+04</rscale>
<asrwt>0</asrwt>
<pdfrwt beam="1">  1        2 0.24774637E+00 0.35488819E+04</pdfrwt>
<pdfrwt beam="2">  1       -2 0.30080780E+00 0.35488819E+04</pdfrwt>
<totfact> 0.28298331E-01</totfact>
</mgrwt>
</event>
<event>
 6    1  0.1817112E-005  0.2740469E+04  0.7818608E-02  0.8321992E-01
         -2   -1    0    0    0  501 -0.00000000000E+00  0.00000000000E+00  0.72031806141E+03  0.72031806141E+03  0.00000000000E+00 0.  1.
          2   -1    0    0  501    0  0.00000000000E+00 -0.00000000000E+00 -0.26065473611E+04  0.26065473611E+04  0.00000000000E+00 0. -1.
         23    2    1    2    0    0  0.11606291366E+04 -0.70162438419E+03 -0.11666432275E+04  0.17915671178E+04  0.96537805517E+02 0.  0.
         11    1    3    3    0    0  0.95706475084E+03 -0.59758194613E+03 -0.92596330633E+03  0.14596181570E+04  0.00000000000E+00 0. -1.
        -11    1    3    3    0    0  0.20356438577E+03 -0.10404243806E+03 -0.24067992122E+03  0.33194896076E+03  0.00000000000E+00 0.  1.
         22    1    1    2    0    0 -0.11606291366E+04  0.70162438419E+03 -0.71958607214E+03  0.15352983047E+04  0.00000000000E+00 0.  1.
<mgrwt>
<rscale>  0 0.27404694E+04</rscale>
<asrwt>0</asrwt>
<pdfrwt beam="1">  1        2 0.40100729E+00 0.27404694E+04</pdfrwt>
<pdfrwt beam="2">  1       -2 0.11081816E+00 0.27404694E+04</pdfrwt>
<totfact> 0.17015427E+00</totfact>
</mgrwt>
</event>
<event>
 6    1  0.1817112E-005  0.2318158E+04  0.7818608E-02  0.8470796E-01
          2   -1    0    0  501    0  0.00000000000E+00  0.00000000000E+00  0.21891719393E+04  0.21891719393E+04  0.00000000000E+00 0. -1.
         -2   -1    0    0    0  501 -0.00000000000E+00 -0.00000000000E+00 -0.61368588964E+03  0.61368588964E+03  0.00000000000E+00 0.  1.
         23    2    1    2    0    0  0.10110263631E+03 -0.94460796402E+03  0.15880572992E+04  0.18527715249E+04  0.91270967424E+02 0.  0.
         11    1    3    3    0    0  0.46196353041E+02 -0.37068472746E+03  0.71154655613E+03  0.80364156920E+03  0.00000000000E+00 0. -1.
        -11    1    3    3    0    0  0.54906283268E+02 -0.57392323656E+03  0.87651074303E+03  0.10491299557E+04  0.00000000000E+00 0.  1.
         22    1    1    2    0    0 -0.10110263631E+03  0.94460796402E+03 -0.12571249483E+02  0.95008630401E+03  0.00000000000E+00 0.  1.
<mgrwt>
<rscale>  0 0.23181578E+04</rscale>
<asrwt>0</asrwt>
<pdfrwt beam="1">  1        2 0.33679568E+00 0.23181578E+04</pdfrwt>
<pdfrwt beam="2">  1       -2 0.94413215E-01 0.23181578E+04</pdfrwt>
<totfact> 0.44822523E+00</totfact>
</mgrwt>
</event>
<event>
 6    1  0.1817112E-005  0.1718225E+04  0.7818608E-02  0.8751038E-01
         -2   -1    0    0    0  501 -0.00000000000E+00  0.00000000000E+00  0.69216590522E+03  0.69216590522E+03  0.00000000000E+00 0. -1.
          2   -1    0    0  501    0  0.00000000000E+00 -0.00000000000E+00 -0.10663261379E+04  0.10663261379E+04  0.00000000000E+00 0.  1.
         23    2    1    2    0    0  0.35287865394E+03  0.42554073907E+03 -0.85742083950E+03  0.10242243269E+04  0.90866444954E+02 0.  0.
         13    1    3    3    0    0  0.23162463494E+03  0.29383506297E+03 -0.50015873795E+03  0.62461810644E+03  0.00000000000E+00 0. -1.
        -13    1    3    3    0    0  0.12125401901E+03  0.13170567611E+03 -0.35726210155E+03  0.39960622048E+03  0.00000000000E+00 0.  1.
         22    1    1    2    0    0 -0.35287865394E+03 -0.42554073907E+03  0.48326060680E+03  0.73426771623E+03  0.00000000000E+00 0. -1.
<mgrwt>
<rscale>  0 0.17182254E+04</rscale>
<asrwt>0</asrwt>
<pdfrwt beam="1">  1        2 0.16405017E+00 0.17182254E+04</pdfrwt>
<pdfrwt beam="2">  1       -2 0.10648706E+00 0.17182254E+04</pdfrwt>
<totfact> 0.15439957E+01</totfact>
</mgrwt>
</event>
<event>
 6    1  0.1817112E-005  0.2153934E+04  0.7818608E-02  0.8537850E-01
         -2   -1    0    0    0  501 -0.00000000000E+00  0.00000000000E+00  0.48402785378E+03  0.48402785378E+03  0.00000000000E+00 0. -1.
          2   -1    0    0  501    0  0.00000000000E+00 -0.00000000000E+00 -0.23962637635E+04  0.23962637635E+04  0.00000000000E+00 0.  1.
         23    2    1    2    0    0 -0.41749910719E+03 -0.95560631095E+03 -0.60792729824E+03  0.12103485404E+04  0.88764087681E+02 0.  0.
         13    1    3    3    0    0 -0.87262806202E+02 -0.15577441928E+03 -0.13793916005E+03  0.22562730092E+03  0.00000000000E+00 0. -1.
        -13    1    3    3    0    0 -0.33023630099E+03 -0.79983189167E+03 -0.46998813820E+03  0.98472123948E+03  0.00000000000E+00 0.  1.
         22    1    1    2    0    0  0.41749910719E+03  0.95560631095E+03 -0.13043086114E+04  0.16699430768E+04  0.00000000000E+00 0. -1.
<mgrwt>
<rscale>  0 0.21539345E+04</rscale>
<asrwt>0</asrwt>
<pdfrwt beam="1">  1        2 0.36865597E+00 0.21539345E+04</pdfrwt>
<pdfrwt beam="2">  1       -2 0.74465822E-01 0.21539345E+04</pdfrwt>
<totfact> 0.59470106E+00</totfact>
</mgrwt>
</event>
<event>
 6    1  0.1817112E-005  0.2439864E+04  0.7818608E-02  0.8424728E-01
         -2   -1    0    0    0  501 -0.00000000000E+00  0.00000000000E+00  0.54476529378E+03  0.54476529378E+03  0.00000000000E+00 0.  1.
          2   -1    0    0  501    0  0.00000000000E+00 -0.00000000000E+00 -0.27318818808E+04  0.27318818808E+04  0.00000000000E+00 0. -1.
         23    2    1    2    0    0 -0.29773695617E+02  0.88982719126E+03 -0.22117212440E+04  0.23859820903E+04  0.92308020467E+02 0.  0.
         13    1    3    3    0    0  0.15123528596E+02  0.61237152863E+03 -0.14511519564E+04  0.15751411399E+04  0.00000000000E+00 0. -1.
        -13    1    3    3    0    0 -0.44897224213E+02  0.27745566263E+03 -0.76056928765E+03  0.81084095036E+03  0.00000000000E+00 0.  1.
         22    1    1    2    0    0  0.29773695617E+02 -0.88982719126E+03  0.24604656985E+02  0.89066508431E+03  0.00000000000E+00 0.  1.
<mgrwt>
<rscale>  0 0.24398643E+04</rscale>
<asrwt>0</asrwt>
<pdfrwt beam="1">  1        2 0.42028951E+00 0.24398643E+04</pdfrwt>
<pdfrwt beam="2">  1       -2 0.83810047E-01 0.24398643E+04</pdfrwt>
<totfact> 0.28342148E+00</totfact>
</mgrwt>
</event>
<event>
 6    1  0.1817112E-005  0.2554643E+04  0.7818608E-02  0.8383773E-01
         -2   -1    0    0    0  501 -0.00000000000E+00  0.00000000000E+00  0.12776343682E+04  0.12776343682E+04  0.00000000000E+00 0.  1.
          2   -1    0    0  501    0  0.00000000000E+00 -0.00000000000E+00 -0.12770082474E+04  0.12770082474E+04  0.00000000000E+00 0. -1.
         23    2    1    2    0    0  0.67093068056E+03  0.78071197648E+03  0.75393880888E+03  0.12790489599E+04  0.88788208701E+02 0.  0.
         13    1    3    3    0    0  0.37642012621E+03  0.39577738895E+03  0.35637299723E+03  0.65217602392E+03  0.00000000000E+00 0. -1.
        -13    1    3    3    0    0  0.29451055435E+03  0.38493458753E+03  0.39756581164E+03  0.62687293600E+03  0.00000000000E+00 0.  1.
         22    1    1    2    0    0 -0.67093068056E+03 -0.78071197648E+03 -0.75331268809E+03  0.12755936557E+04  0.00000000000E+00 0. -1.
<mgrwt>
<rscale>  0 0.25546425E+04</rscale>
<asrwt>0</asrwt>
<pdfrwt beam="1">  1        2 0.19646281E+00 0.25546425E+04</pdfrwt>
<pdfrwt beam="2">  1       -2 0.19655913E+00 0.25546425E+04</pdfrwt>
<totfact> 0.21217337E+00</totfact>
</mgrwt>
</event>
<event>
 6    1  0.1817112E-005  0.4526572E+04  0.7818608E-02  0.7906001E-01
         -2   -1    0    0    0  501 -0.00000000000E+00  0.00000000000E+00  0.17364476294E+04  0.17364476294E+04  0.00000000000E+00 0.  1.
          2   -1    0    0  501    0  0.00000000000E+00 -0.00000000000E+00 -0.29499676526E+04  0.29499676526E+04  0.00000000000E+00 0. -1.
         23    2    1    2    0    0  0.20377208416E+03  0.10563238142E+04 -0.26675151645E+04  0.28777016691E+04  0.90480279792E+02 0.  0.
         11    1    3    3    0    0  0.16902855871E+03  0.98341455093E+03 -0.24330478955E+04  0.26297142229E+04  0.00000000000E+00 0. -1.
        -11    1    3    3    0    0  0.34743525448E+02  0.72909263224E+02 -0.23446726900E+03  0.24798744616E+03  0.00000000000E+00 0.  1.
         22    1    1    2    0    0 -0.20377208416E+03 -0.10563238142E+04  0.14539951413E+04  0.18087136129E+04  0.00000000000E+00 0.  1.
<mgrwt>
<rscale>  0 0.45265724E+04</rscale>
<asrwt>0</asrwt>
<pdfrwt beam="1">  1        2 0.45384117E+00 0.45265724E+04</pdfrwt>
<pdfrwt beam="2">  1       -2 0.26714579E+00 0.45265724E+04</pdfrwt>
<totfact> 0.71341680E-02</totfact>
</mgrwt>
</event>
<event>
 6    1  0.1817112E-005  0.4693279E+04  0.7818608E-02  0.7877646E-01
          2   -1    0    0  501    0  0.00000000000E+00  0.00000000000E+00  0.32565221305E+04  0.32565221305E+04  0.00000000000E+00 0. -1.
         -2   -1    0    0    0  501 -0.00000000000E+00 -0.00000000000E+00 -0.16909807254E+04  0.16909807254E+04  0.00000000000E+00 0.  1.
         23    2    1    2    0    0  0.83635096100E+03  0.74934446569E+03  0.29541349869E+04  0.31616719027E+04  0.90860558519E+02 0.  0.
         11    1    3    3    0    0  0.26043358869E+03  0.18636520319E+03  0.78170852834E+03  0.84476379323E+03  0.00000000000E+00 0.  1.
        -11    1    3    3    0    0  0.57591737231E+03  0.56297926250E+03  0.21724264586E+04  0.23169081095E+04  0.00000000000E+00 0. -1.
         22    1    1    2    0    0 -0.83635096100E+03 -0.74934446569E+03 -0.13885935817E+04  0.17858309532E+04  0.00000000000E+00 0.  1.
<mgrwt>
<rscale>  0 0.46932787E+04</rscale>
<asrwt>0</asrwt>
<pdfrwt beam="1">  1        2 0.50100340E+00 0.46932787E+04</pdfrwt>
<pdfrwt beam="2">  1       -2 0.26015088E+00 0.46932787E+04</pdfrwt>
<totfact> 0.49386503E-02</totfact>
</mgrwt>
</event>
<event>
 6    1  0.1817112E-005  0.2939157E+04  0.7818608E-02  0.8261322E-01
         -2   -1    0    0    0  501 -0.00000000000E+00  0.00000000000E+00  0.50087855119E+03  0.50087855119E+03  0.00000000000E+00 0.  1.
          2   -1    0    0  501    0  0.00000000000E+00 -0.00000000000E+00 -0.43117458501E+04  0.43117458501E+04  0.00000000000E+00 0. -1.
         23    2    1    2    0    0 -0.13929317768E+04 -0.89154989961E+02 -0.26528117859E+04  0.29989816255E+04  0.90955328005E+02 0.  0.
         11    1    3    3    0    0 -0.25140742098E+03 -0.50419923459E+02 -0.46967413415E+03  0.53510900973E+03  0.00000000000E+00 0. -1.
        -11    1    3    3    0    0 -0.11415243558E+04 -0.38735066502E+02 -0.21831376517E+04  0.24638726157E+04  0.00000000000E+00 0.  1.
         22    1    1    2    0    0  0.13929317768E+04  0.89154989961E+02 -0.11580555131E+04  0.18136427759E+04  0.00000000000E+00 0.  1.
<mgrwt>
<rscale>  0 0.29391570E+04</rscale>
<asrwt>0</asrwt>
<pdfrwt beam="1">  1        2 0.66334551E+00 0.29391570E+04</pdfrwt>
<pdfrwt beam="2">  1       -2 0.77058239E-01 0.29391570E+04</pdfrwt>
<totfact> 0.23937565E-01</totfact>
</mgrwt>
</event>
<event>
 6    1  0.1817112E-005  0.1249328E+04  0.7818608E-02  0.9070742E-01
          2   -1    0    0  501    0  0.00000000000E+00  0.00000000000E+00  0.24452664917E+04  0.24452664917E+04  0.00000000000E+00 0. -1.
         -2   -1    0    0    0  501 -0.00000000000E+00 -0.00000000000E+00 -0.15957579356E+03  0.15957579356E+03  0.00000000000E+00 0.  1.
         23    2    1    2    0    0  0.35740232987E+03 -0.45476880170E+03  0.16246251857E+04  0.17264581437E+04  0.81851326205E+02 0.  0.
         11    1    3    3    0    0  0.14505817094E+03 -0.21993395611E+03  0.84061595563E+03  0.88093586762E+03  0.00000000000E+00 0. -1.
        -11    1    3    3    0    0  0.21234415893E+03 -0.23483484558E+03  0.78400923003E+03  0.84552227605E+03  0.00000000000E+00 0.  1.
         22    1    1    2    0    0 -0.35740232987E+03  0.45476880170E+03  0.66106551248E+03  0.87838414158E+03  0.00000000000E+00 0.  1.
<mgrwt>
<rscale>  0 0.12493284E+04</rscale>
<asrwt>0</asrwt>
<pdfrwt beam="1">  1        2 0.37619482E+00 0.12493284E+04</pdfrwt>
<pdfrwt beam="2">  1       -2 0.24550124E-01 0.12493284E+04</pdfrwt>
<totfact> 0.54867454E+01</totfact>
</mgrwt>
</event>
<event>
 6    1  0.1817112E-005  0.3122046E+04  0.7818608E-02  0.8209713E-01
         -2   -1    0    0    0  501 -0.00000000000E+00  0.00000000000E+00  0.25069524571E+04  0.25069524571E+04  0.00000000000E+00 0.  1.
          2   -1    0    0  501    0  0.00000000000E+00 -0.00000000000E+00 -0.97201423275E+03  0.97201423275E+03  0.00000000000E+00 0. -1.
         23    2    1    2    0    0 -0.35703795769E+03 -0.31010376695E+03 -0.88803160947E+03  0.10102781179E+04  0.91767568543E+02 0.  0.
         11    1    3    3    0    0 -0.13900411149E+03 -0.17656376641E+03 -0.45304147822E+03  0.50571087353E+03  0.00000000000E+00 0. -1.
        -11    1    3    3    0    0 -0.21803384620E+03 -0.13354000055E+03 -0.43499013125E+03  0.50456724440E+03  0.00000000000E+00 0.  1.
         22    1    1    2    0    0  0.35703795769E+03  0.31010376695E+03  0.24229698339E+04  0.24686885720E+04  0.00000000000E+00 0.  1.
<mgrwt>
<rscale>  0 0.31220464E+04</rscale>
<asrwt>0</asrwt>
<pdfrwt beam="1">  1        2 0.14954065E+00 0.31220464E+04</pdfrwt>
<pdfrwt beam="2">  1       -2 0.38568499E+00 0.31220464E+04</pdfrwt>
<totfact> 0.20461150E-01</totfact>
</mgrwt>
</event>
<event>
 6    1  0.1817112E-005  0.2667170E+04  0.7818608E-02  0.8345736E-01
          2   -1    0    0  501    0  0.00000000000E+00  0.00000000000E+00  0.35073999298E+04  0.35073999298E+04  0.00000000000E+00 0. -1.
         -2   -1    0    0    0  501 -0.00000000000E+00 -0.00000000000E+00 -0.50705620283E+03  0.50705620283E+03  0.00000000000E+00 0.  1.
         23    2    1    2    0    0  0.61450396442E+03 -0.26146213971E+03 -0.23542850869E+03  0.71048889099E+03  0.58226357686E+02 0.  0.
         11    1    3    3    0    0  0.19249477414E+03 -0.81527045315E+02 -0.10266176765E+03  0.23289554681E+03  0.00000000000E+00 0. -1.
        -11    1    3    3    0    0  0.42200919028E+03 -0.17993509440E+03 -0.13276674104E+03  0.47759334418E+03  0.00000000000E+00 0.  1.
         22    1    1    2    0    0 -0.61450396442E+03  0.26146213971E+03  0.32357722356E+04  0.33039672416E+04  0.00000000000E+00 0. -1.
<mgrwt>
<rscale>  0 0.26671700E+04</rscale>
<asrwt>0</asrwt>
<pdfrwt beam="1">  1        2 0.53959998E+00 0.26671700E+04</pdfrwt>
<pdfrwt beam="2">  1       -2 0.78008649E-01 0.26671700E+04</pdfrwt>
<totfact> 0.10340603E+00</totfact>
</mgrwt>
</event>
<event>
 6    1  0.1817112E-005  0.3161306E+04  0.7818608E-02  0.8199111E-01
         -1   -1    0    0    0  501 -0.00000000000E+00  0.00000000000E+00  0.13208063207E+04  0.13208063207E+04  0.00000000000E+00 0.  1.
          1   -1    0    0  501    0  0.00000000000E+00 -0.00000000000E+00 -0.18916204691E+04  0.18916204691E+04  0.00000000000E+00 0. -1.
         23    2    1    2    0    0 -0.39230235878E+03  0.94722274338E+03  0.93484476123E+03  0.13908503246E+04  0.96942413595E+02 0.  0.
         13    1    3    3    0    0 -0.30542806825E+03  0.70620459407E+03  0.64501813390E+03  0.10040217262E+04  0.00000000000E+00 0.  1.
        -13    1    3    3    0    0 -0.86874290528E+02  0.24101814930E+03  0.28982662733E+03  0.38682859842E+03  0.00000000000E+00 0. -1.
         22    1    1    2    0    0  0.39230235878E+03 -0.94722274338E+03 -0.15056589096E+04  0.18215764652E+04  0.00000000000E+00 0. -1.
<mgrwt>
<rscale>  0 0.31613062E+04</rscale>
<asrwt>0</asrwt>
<pdfrwt beam="1">  1        1 0.29101853E+00 0.31613062E+04</pdfrwt>
<pdfrwt beam="2">  1       -1 0.20320097E+00 0.31613062E+04</pdfrwt>
<totfact> 0.42392984E-01</totfact>
</mgrwt>
</event>
<event>
 6    1  0.1817112E-005  0.4192309E+04  0.7818608E-02  0.7966837E-01
          1   -1    0    0  501    0  0.00000000000E+00  0.00000000000E+00  0.32984645789E+04  0.32984645789E+04  0.00000000000E+00 0.  1.
         -1   -1    0    0    0  501 -0.00000000000E+00 -0.00000000000E+00 -0.13320934506E+04  0.13320934506E+04  0.00000000000E+00 0. -1.
         23    2    1    2    0    0 -0.15226758175E+04 -0.66129743863E+03  0.23954788967E+04  0.29159182934E+04  0.91675522103E+02 0.  0.
         11    1    3    3    0    0 -0.88843178119E+03 -0.43485031774E+03  0.14213454236E+04  0.17316548854E+04  0.00000000000E+00 0. -1.
        -11    1    3    3    0    0 -0.63424403634E+03 -0.22644712088E+03  0.97413347309E+03  0.11842634080E+04  0.00000000000E+00 0.  1.
         22    1    1    2    0    0  0.15226758175E+04  0.66129743863E+03 -0.42910776847E+03  0.17146397361E+04  0.00000000000E+00 0. -1.
<mgrwt>
<rscale>  0 0.41923087E+04</rscale>
<asrwt>0</asrwt>
<pdfrwt beam="1">  1        1 0.50745609E+00 0.41923087E+04</pdfrwt>
<pdfrwt beam="2">  1       -1 0.20493745E+00 0.41923087E+04</pdfrwt>
<totfact> 0.38364485E-02</totfact>
</mgrwt>
</event>
<event>
 6    1  0.1817112E-005  0.2659740E+04  0.7818608E-02  0.8348187E-01
         -2   -1    0    0    0  501 -0.00000000000E+00  0.00000000000E+00  0.17326827992E+04  0.17326827992E+04  0.00000000000E+00 0. -1.
          2   -1    0    0  501    0  0.00000000000E+00 -0.00000000000E+00 -0.10207025459E+04  0.10207025459E+04  0.00000000000E+00 0.  1.
         23    2    1    2    0    0 -0.16644743849E+03  0.13060359516E+04  0.53571429677E+03  0.14250388753E+04  0.10154472706E+03 0.  0.
         11    1    3    3    0    0 -0.38990180708E+02  0.63627549880E+03  0.28998367068E+03  0.70032654800E+03  0.00000000000E+00 0. -1.
        -11    1    3    3    0    0 -0.12745725778E+03  0.66976045279E+03  0.24573062609E+03  0.72471232726E+03  0.00000000000E+00 0.  1.
         22    1    1    2    0    0  0.16644743849E+03 -0.13060359516E+04  0.17626595657E+03  0.13283464699E+04  0.00000000000E+00 0.  1.
<mgrwt>
<rscale>  0 0.26597396E+04</rscale>
<asrwt>0</asrwt>
<pdfrwt beam="1">  1        2 0.15703116E+00 0.26597396E+04</pdfrwt>
<pdfrwt beam="2">  1       -2 0.26656658E+00 0.26597396E+04</pdfrwt>
<totfact> 0.10937788E+00</totfact>
</mgrwt>
</event>
<event>
 6    1  0.1817112E-005  0.4819680E+04  0.7818608E-02  0.7856942E-01
          2   -1    0    0  501    0  0.00000000000E+00  0.00000000000E+00  0.28061265716E+04  0.28061265716E+04  0.00000000000E+00 0.  1.
         -2   -1    0    0    0  501 -0.00000000000E+00 -0.00000000000E+00 -0.20695181198E+04  0.20695181198E+04  0.00000000000E+00 0. -1.
         23    2    1    2    0    0  0.10719971523E+04  0.10910090409E+04  0.22511623023E+04  0.27231224527E+04  0.90474081067E+02 0.  0.
         13    1    3    3    0    0  0.54798504497E+03  0.52168493097E+03  0.10462743829E+04  0.12911749924E+04  0.00000000000E+00 0. -1.
        -13    1    3    3    0    0  0.52401210737E+03  0.56932410989E+03  0.12048879194E+04  0.14319474603E+04  0.00000000000E+00 0.  1.
         22    1    1    2    0    0 -0.10719971523E+04 -0.10910090409E+04 -0.15145538505E+04  0.21525222387E+04  0.00000000000E+00 0. -1.
<mgrwt>
<rscale>  0 0.48196804E+04</rscale>
<asrwt>0</asrwt>
<pdfrwt beam="1">  1        2 0.43171178E+00 0.48196804E+04</pdfrwt>
<pdfrwt beam="2">  1       -2 0.31838740E+00 0.48196804E+04</pdfrwt>
<totfact> 0.41474665E-02</totfact>
</mgrwt>
</event>
<event>
 6    1  0.1817112E-005  0.2419329E+04  0.7818608E-02  0.8432302E-01
         -2   -1    0    0    0  501 -0.00000000000E+00  0.00000000000E+00  0.10005154020E+04  0.10005154020E+04  0.00000000000E+00 0.  1.
          2   -1    0    0  501    0  0.00000000000E+00 -0.00000000000E+00 -0.14625344687E+04  0.14625344687E+04  0.00000000000E+00 0. -1.
         23    2    1    2    0    0  0.76007868136E+03 -0.79981981637E+03  0.26904866611E+03  0.11394595373E+04  0.92463571153E+02 0.  0.
         13    1    3    3    0    0  0.29844863945E+03 -0.35173977195E+03  0.15104046931E+03  0.48539229591E+03  0.00000000000E+00 0.  1.
        -13    1    3    3    0    0  0.46163004191E+03 -0.44808004441E+03  0.11800819680E+03  0.65406724143E+03  0.00000000000E+00 0. -1.
         22    1    1    2    0    0 -0.76007868136E+03  0.79981981637E+03 -0.73106773287E+03  0.13235903334E+04  0.00000000000E+00 0. -1.
<mgrwt>
<rscale>  0 0.24193290E+04</rscale>
<asrwt>0</asrwt>
<pdfrwt beam="1">  1        2 0.22500530E+00 0.24193290E+04</pdfrwt>
<pdfrwt beam="2">  1       -2 0.15392545E+00 0.24193290E+04</pdfrwt>
<totfact> 0.33476973E+00</totfact>
</mgrwt>
</event>
<event>
 6    1  0.1817112E-005  0.1776800E+04  0.7818608E-02  0.8718735E-01
          2   -1    0    0  501    0  0.00000000000E+00  0.00000000000E+00  0.10902178761E+04  0.10902178761E+04  0.00000000000E+00 0. -1.
         -2   -1    0    0    0  501 -0.00000000000E+00 -0.00000000000E+00 -0.72394205317E+03  0.72394205317E+03  0.00000000000E+00 0.  1.
         23    2    1    2    0    0  0.18785005871E+03 -0.77503406359E+03 -0.21068376631E+03  0.82985925777E+03  0.91177267075E+02 0.  0.
         11    1    3    3    0    0  0.91169830121E+02 -0.20348441473E+03 -0.61513678833E+02  0.23130451281E+03  0.00000000000E+00 0.  1.
        -11    1    3    3    0    0  0.96680228585E+02 -0.57154964886E+03 -0.14917008748E+03  0.59855474496E+03  0.00000000000E+00 0. -1.
         22    1    1    2    0    0 -0.18785005871E+03  0.77503406359E+03  0.57695958921E+03  0.98430067148E+03  0.00000000000E+00 0. -1.
<mgrwt>
<rscale>  0 0.17768000E+04</rscale>
<asrwt>0</asrwt>
<pdfrwt beam="1">  1        2 0.16772583E+00 0.17768000E+04</pdfrwt>
<pdfrwt beam="2">  1       -2 0.11137570E+00 0.17768000E+04</pdfrwt>
<totfact> 0.13322526E+01</totfact>
</mgrwt>
</event>
<event>
 6    1  0.1817112E-005  0.1761993E+04  0.7818608E-02  0.8726776E-01
          2   -1    0    0  501    0  0.00000000000E+00  0.00000000000E+00  0.94195472945E+03  0.94195472945E+03  0.00000000000E+00 0. -1.
         -2   -1    0    0    0  501 -0.00000000000E+00 -0.00000000000E+00 -0.82398334492E+03  0.82398334492E+03  0.00000000000E+00 0.  1.
         23    2    1    2    0    0 -0.16575893954E+03 -0.32926111309E+03 -0.74017844842E+03  0.83196267726E+03  0.91699804896E+02 0.  0.
         11    1    3    3    0    0 -0.75066362330E+02 -0.11863400026E+03 -0.37864170835E+03  0.40382982563E+03  0.00000000000E+00 0.  1.
        -11    1    3    3    0    0 -0.90692577207E+02 -0.21062711282E+03 -0.36153674007E+03  0.42813285162E+03  0.00000000000E+00 0. -1.
         22    1    1    2    0    0  0.16575893954E+03  0.32926111309E+03  0.85814983295E+03  0.93397539712E+03  0.00000000000E+00 0. -1.
<mgrwt>
<rscale>  0 0.17619932E+04</rscale>
<asrwt>0</asrwt>
<pdfrwt beam="1">  1        2 0.14491611E+00 0.17619932E+04</pdfrwt>
<pdfrwt beam="2">  1       -2 0.12676667E+00 0.17619932E+04</pdfrwt>
<totfact> 0.12045520E+01</totfact>
</mgrwt>
</event>
<event>
 6    1  0.1817112E-005  0.3223877E+04  0.7818608E-02  0.8182540E-01
         -2   -1    0    0    0  501 -0.00000000000E+00  0.00000000000E+00  0.77977040655E+03  0.77977040655E+03  0.00000000000E+00 0.  1.
          2   -1    0    0  501    0  0.00000000000E+00 -0.00000000000E+00 -0.33321939532E+04  0.33321939532E+04  0.00000000000E+00 0. -1.
         23    2    1    2    0    0  0.14402752762E+04  0.15191237718E+03 -0.37773903704E+03  0.14991645285E+04  0.85657818150E+02 0.  0.
         13    1    3    3    0    0  0.56948615839E+03  0.18153014941E+02 -0.14474214008E+03  0.58787269342E+03  0.00000000000E+00 0.  1.
        -13    1    3    3    0    0  0.87078911785E+03  0.13375936224E+03 -0.23299689696E+03  0.91129183511E+03  0.00000000000E+00 0. -1.
         22    1    1    2    0    0 -0.14402752762E+04 -0.15191237718E+03 -0.21746845096E+04  0.26127998312E+04  0.00000000000E+00 0. -1.
<mgrwt>
<rscale>  0 0.32238773E+04</rscale>
<asrwt>0</asrwt>
<pdfrwt beam="1">  1        2 0.51264522E+00 0.32238773E+04</pdfrwt>
<pdfrwt beam="2">  1       -2 0.11996468E+00 0.32238773E+04</pdfrwt>
<totfact> 0.47279102E-01</totfact>
</mgrwt>
</event>
<event>
 6    1  0.1817112E-005  0.1425090E+04  0.7818608E-02  0.8935855E-01
          2   -1    0    0  501    0  0.00000000000E+00  0.00000000000E+00  0.91520114187E+03  0.91520114187E+03  0.00000000000E+00 0. -1.
         -2   -1    0    0    0  501 -0.00000000000E+00 -0.00000000000E+00 -0.55476380519E+03  0.55476380519E+03  0.00000000000E+00 0.  1.
         23    2    1    2    0    0  0.45679765139E+03 -0.50791831716E+03 -0.17076184733E+02  0.68947691379E+03  0.91878764357E+02 0.  0.
         11    1    3    3    0    0  0.26173883037E+03 -0.33865756022E+03 -0.41736561581E+02  0.43004429887E+03  0.00000000000E+00 0.  1.
        -11    1    3    3    0    0  0.19505882102E+03 -0.16926075695E+03  0.24660376847E+02  0.25943261492E+03  0.00000000000E+00 0. -1.
         22    1    1    2    0    0 -0.45679765139E+03  0.50791831716E+03  0.37751352142E+03  0.78048803327E+03  0.00000000000E+00 0. -1.
<mgrwt>
<rscale>  0 0.14250901E+04</rscale>
<asrwt>0</asrwt>
<pdfrwt beam="1">  1        2 0.14080018E+00 0.14250901E+04</pdfrwt>
<pdfrwt beam="2">  1       -2 0.85348278E-01 0.14250901E+04</pdfrwt>
<totfact> 0.33222035E+01</totfact>
</mgrwt>
</event>
<event>
 6    1  0.1817112E-005  0.5042221E+04  0.7818608E-02  0.7822027E-01
          2   -1    0    0  501    0  0.00000000000E+00  0.00000000000E+00  0.35276336325E+04  0.35276336325E+04  0.00000000000E+00 0. -1.
         -2   -1    0    0    0  501 -0.00000000000E+00 -0.00000000000E+00 -0.18017738328E+04  0.18017738328E+04  0.00000000000E+00 0.  1.
         23    2    1    2    0    0  0.19380423084E+04 -0.36729484469E+03 -0.79490077956E+03  0.21286032867E+04  0.90394749917E+02 0.  0.
         13    1    3    3    0    0  0.18199265777E+03 -0.79786248416E+01 -0.75181973224E+02  0.19707185246E+03  0.00000000000E+00 0.  1.
        -13    1    3    3    0    0  0.17560496506E+04 -0.35931621984E+03 -0.71971880634E+03  0.19315314343E+04  0.00000000000E+00 0. -1.
         22    1    1    2    0    0 -0.19380423084E+04  0.36729484469E+03  0.25207605792E+04  0.32008041786E+04  0.00000000000E+00 0. -1.
<mgrwt>
<rscale>  0 0.50422209E+04</rscale>
<asrwt>0</asrwt>
<pdfrwt beam="1">  1        2 0.54271286E+00 0.50422209E+04</pdfrwt>
<pdfrwt beam="2">  1       -2 0.27719598E+00 0.50422209E+04</pdfrwt>
<totfact> 0.24657159E-02</totfact>
</mgrwt>
</event>
<event>
 6    1  0.1817112E-005  0.6545464E+03  0.7818608E-02  0.9798285E-01
          2   -1    0    0  501    0  0.00000000000E+00  0.00000000000E+00  0.82263415084E+03  0.82263415084E+03  0.00000000000E+00 0. -1.
         -2   -1    0    0    0  501 -0.00000000000E+00 -0.00000000000E+00 -0.13020096136E+03  0.13020096136E+03  0.00000000000E+00 0.  1.
         23    2    1    2    0    0  0.21187724251E+03 -0.22536276183E+03  0.47494369589E+03  0.57470547816E+03  0.95050155495E+02 0.  0.
         13    1    3    3    0    0  0.78978017069E+02 -0.47528985344E+02  0.81943361424E+02  0.12333388062E+03  0.00000000000E+00 0. -1.
        -13    1    3    3    0    0  0.13289922544E+03 -0.17783377648E+03  0.39300033446E+03  0.45137159754E+03  0.00000000000E+00 0.  1.
         22    1    1    2    0    0 -0.21187724251E+03  0.22536276183E+03  0.21748949360E+03  0.37812963403E+03  0.00000000000E+00 0.  1.
<mgrwt>
<rscale>  0 0.65454643E+03</rscale>
<asrwt>0</asrwt>
<pdfrwt beam="1">  1        2 0.12655910E+00 0.65454643E+03</pdfrwt>
<pdfrwt beam="2">  1       -2 0.20030918E-01 0.65454643E+03</pdfrwt>
<totfact> 0.71042545E+02</totfact>
</mgrwt>
</event>
<event>
 6    1  0.1817112E-005  0.1007943E+04  0.7818608E-02  0.9299875E-01
          2   -1    0    0  501    0  0.00000000000E+00  0.00000000000E+00  0.13741847920E+04  0.13741847920E+04  0.00000000000E+00 0. -1.
         -2   -1    0    0    0  501 -0.00000000000E+00 -0.00000000000E+00 -0.18482777382E+03  0.18482777382E+03  0.00000000000E+00 0.  1.
         23    2    1    2    0    0  0.46964269216E+03  0.10856369925E+03  0.80546501806E+03  0.94279555626E+03  0.87972896340E+02 0.  0.
         11    1    3    3    0    0  0.42722612868E+03  0.92442341090E+02  0.76913323601E+03  0.88466586132E+03  0.00000000000E+00 0.  1.
        -11    1    3    3    0    0  0.42416563486E+02  0.16121358156E+02  0.36331782043E+02  0.58129694934E+02  0.00000000000E+00 0. -1.
         22    1    1    2    0    0 -0.46964269216E+03 -0.10856369925E+03  0.38389200008E+03  0.61621700952E+03  0.00000000000E+00 0. -1.
<mgrwt>
<rscale>  0 0.10079435E+04</rscale>
<asrwt>0</asrwt>
<pdfrwt beam="1">  1        2 0.21141304E+00 0.10079435E+04</pdfrwt>
<pdfrwt beam="2">  1       -2 0.28435043E-01 0.10079435E+04</pdfrwt>
<totfact> 0.16907812E+02</totfact>
</mgrwt>
</event>
<event>
 6    1  0.1817112E-005  0.3907650E+04  0.7818608E-02  0.8023440E-01
         -2   -1    0    0    0  501 -0.00000000000E+00  0.00000000000E+00  0.15043895904E+04  0.15043895904E+04  0.00000000000E+00 0.  1.
          2   -1    0    0  501    0  0.00000000000E+00 -0.00000000000E+00 -0.25375284306E+04  0.25375284306E+04  0.00000000000E+00 0. -1.
         23    2    1    2    0    0 -0.87437082573E+03  0.12144904061E+04  0.78077387316E+03  0.16903673370E+04  0.90678585379E+02 0.  0.
         13    1    3    3    0    0 -0.72107419572E+03  0.10348199447E+04  0.68715557902E+03  0.14363088468E+04  0.00000000000E+00 0.  1.
        -13    1    3    3    0    0 -0.15329663001E+03  0.17967046136E+03  0.93618294147E+02  0.25405849023E+03  0.00000000000E+00 0. -1.
         22    1    1    2    0    0  0.87437082573E+03 -0.12144904061E+04 -0.18139127134E+04  0.23515506839E+04  0.00000000000E+00 0. -1.
<mgrwt>
<rscale>  0 0.39076496E+04</rscale>
<asrwt>0</asrwt>
<pdfrwt beam="1">  1        2 0.39038898E+00 0.39076496E+04</pdfrwt>
<pdfrwt beam="2">  1       -2 0.23144456E+00 0.39076496E+04</pdfrwt>
<totfact> 0.22031649E-01</totfact>
</mgrwt>
</event>
<event>
 6    1  0.1817112E-005  0.3456496E+04  0.7818608E-02  0.8124178E-01
         -2   -1    0    0    0  501 -0.00000000000E+00  0.00000000000E+00  0.11724451268E+04  0.11724451268E+04  0.00000000000E+00 0.  1.
          2   -1    0    0  501    0  0.00000000000E+00 -0.00000000000E+00 -0.25475319186E+04  0.25475319186E+04  0.00000000000E+00 0. -1.
         23    2    1    2    0    0  0.15091311479E+04 -0.66080948576E+03 -0.13015601561E+03  0.16550318560E+04  0.89687557355E+02 0.  0.
         13    1    3    3    0    0  0.46696483460E+03 -0.16447696079E+03 -0.57767128841E+02  0.49844344570E+03  0.00000000000E+00 0. -1.
        -13    1    3    3    0    0  0.10421663133E+04 -0.49633252497E+03 -0.72388886766E+02  0.11565884103E+04  0.00000000000E+00 0.  1.
         22    1    1    2    0    0 -0.15091311479E+04  0.66080948576E+03 -0.12449307762E+04  0.20649451894E+04  0.00000000000E+00 0. -1.
<mgrwt>
<rscale>  0 0.34564961E+04</rscale>
<asrwt>0</asrwt>
<pdfrwt beam="1">  1        2 0.39192798E+00 0.34564961E+04</pdfrwt>
<pdfrwt beam="2">  1       -2 0.18037618E+00 0.34564961E+04</pdfrwt>
<totfact> 0.48541576E-01</totfact>
</mgrwt>
</event>
<event>
 6    1  0.1817112E-005  0.2436164E+04  0.7818608E-02  0.8426087E-01
         -2   -1    0    0    0  501 -0.00000000000E+00  0.00000000000E+00  0.60731249735E+03  0.60731249735E+03  0.00000000000E+00 0.  1.
          2   -1    0    0  501    0  0.00000000000E+00 -0.00000000000E+00 -0.24430985854E+04  0.24430985854E+04  0.00000000000E+00 0. -1.
         23    2    1    2    0    0 -0.79052290786E+02  0.10913506469E+04 -0.25468855746E+03  0.11276097668E+04  0.96654154969E+02 0.  0.
         13    1    3    3    0    0  0.17118267302E+02  0.39567528834E+03 -0.10029949391E+03  0.40854859852E+03  0.00000000000E+00 0. -1.
        -13    1    3    3    0    0 -0.96170558088E+02  0.69567535861E+03 -0.15438906355E+03  0.71906116831E+03  0.00000000000E+00 0.  1.
         22    1    1    2    0    0  0.79052290786E+02 -0.10913506469E+04 -0.15810975306E+04  0.19228013159E+04  0.00000000000E+00 0. -1.
<mgrwt>
<rscale>  0 0.24361644E+04</rscale>
<asrwt>0</asrwt>
<pdfrwt beam="1">  1        2 0.37586132E+00 0.24361644E+04</pdfrwt>
<pdfrwt beam="2">  1       -2 0.93432692E-01 0.24361644E+04</pdfrwt>
<totfact> 0.32615263E+00</totfact>
</mgrwt>
</event>
<event>
 6    1  0.1817112E-005  0.4979955E+04  0.7818608E-02  0.7831607E-01
          2   -1    0    0  501    0  0.00000000000E+00  0.00000000000E+00  0.49842661057E+04  0.49842661057E+04  0.00000000000E+00 0. -1.
         -2   -1    0    0    0  501 -0.00000000000E+00 -0.00000000000E+00 -0.12439120458E+04  0.12439120458E+04  0.00000000000E+00 0.  1.
         23    2    1    2    0    0  0.17924251539E+04  0.18779150290E+03 -0.27642270818E+03  0.18256164897E+04  0.91719533642E+02 0.  0.
         11    1    3    3    0    0  0.95079528664E+03  0.82233187079E+02 -0.10344444146E+03  0.95993475123E+03  0.00000000000E+00 0. -1.
        -11    1    3    3    0    0  0.84162986730E+03  0.10555831582E+03 -0.17297826672E+03  0.86568173847E+03  0.00000000000E+00 0.  1.
         22    1    1    2    0    0 -0.17924251539E+04 -0.18779150290E+03  0.40167767681E+04  0.44025616618E+04  0.00000000000E+00 0. -1.
<mgrwt>
<rscale>  0 0.49799553E+04</rscale>
<asrwt>0</asrwt>
<pdfrwt beam="1">  1        2 0.76681016E+00 0.49799553E+04</pdfrwt>
<pdfrwt beam="2">  1       -2 0.19137109E+00 0.49799553E+04</pdfrwt>
<totfact> 0.39093780E-03</totfact>
</mgrwt>
</event>
<event>
 6    1  0.1817112E-005  0.1421899E+04  0.7818608E-02  0.8938118E-01
         -2   -1    0    0    0  501 -0.00000000000E+00  0.00000000000E+00  0.28784654034E+03  0.28784654034E+03  0.00000000000E+00 0.  1.
          2   -1    0    0  501    0  0.00000000000E+00 -0.00000000000E+00 -0.17559676644E+04  0.17559676644E+04  0.00000000000E+00 0. -1.
         23    2    1    2    0    0 -0.32599219043E+02  0.21320312186E+03 -0.17064392839E+04  0.17223895237E+04  0.90401114664E+02 0.  0.
         11    1    3    3    0    0 -0.53865083155E+02  0.66651787822E+02 -0.60430960264E+03  0.61035563719E+03  0.00000000000E+00 0. -1.
        -11    1    3    3    0    0  0.21265864112E+02  0.14655133404E+03 -0.11021296813E+04  0.11120338865E+04  0.00000000000E+00 0.  1.
         22    1    1    2    0    0  0.32599219043E+02 -0.21320312186E+03  0.23831815985E+03  0.32142468102E+03  0.00000000000E+00 0.  1.
<mgrwt>
<rscale>  0 0.14218990E+04</rscale>
<asrwt>0</asrwt>
<pdfrwt beam="1">  1        2 0.27014887E+00 0.14218990E+04</pdfrwt>
<pdfrwt beam="2">  1       -2 0.44284084E-01 0.14218990E+04</pdfrwt>
<totfact> 0.42896030E+01</totfact>
</mgrwt>
</event>
<event>
 6    1  0.1817112E-005  0.2604982E+04  0.7818608E-02  0.8366511E-01
         -2   -1    0    0    0  501 -0.00000000000E+00  0.00000000000E+00  0.48001419895E+03  0.48001419895E+03  0.00000000000E+00 0. -1.
          2   -1    0    0  501    0  0.00000000000E+00 -0.00000000000E+00 -0.35342345681E+04  0.35342345681E+04  0.00000000000E+00 0.  1.
         23    2    1    2    0    0  0.82990056086E+03 -0.10013263079E+04 -0.15743498093E+04  0.20441202967E+04  0.91984506942E+02 0.  0.
         13    1    3    3    0    0  0.73737931516E+03 -0.87536237401E+03 -0.13377189325E+04  0.17605338630E+04  0.00000000000E+00 0.  1.
        -13    1    3    3    0    0  0.92521245704E+02 -0.12596393388E+03 -0.23663087674E+03  0.28358643369E+03  0.00000000000E+00 0. -1.
         22    1    1    2    0    0 -0.82990056086E+03  0.10013263079E+04 -0.14798705599E+04  0.19701284704E+04  0.00000000000E+00 0. -1.
<mgrwt>
<rscale>  0 0.26049820E+04</rscale>
<asrwt>0</asrwt>
<pdfrwt beam="1">  1        2 0.54372838E+00 0.26049820E+04</pdfrwt>
<pdfrwt beam="2">  1       -2 0.73848340E-01 0.26049820E+04</pdfrwt>
<totfact> 0.11246450E+00</totfact>
</mgrwt>
</event>
<event>
 6    1  0.1817112E-005  0.2610770E+04  0.7818608E-02  0.8364552E-01
          4   -1    0    0  501    0  0.00000000000E+00  0.00000000000E+00  0.13060537894E+04  0.13060537894E+04  0.00000000000E+00 0. -1.
         -4   -1    0    0    0  501 -0.00000000000E+00 -0.00000000000E+00 -0.13047170399E+04  0.13047170399E+04  0.00000000000E+00 0.  1.
         23    2    1    2    0    0  0.19520247476E+03 -0.90096664833E+03 -0.92129162879E+03  0.13065131739E+04  0.91397486925E+02 0.  0.
         11    1    3    3    0    0  0.60907891909E+02 -0.49084447145E+03 -0.47743481106E+03  0.68744604535E+03  0.00000000000E+00 0.  1.
        -11    1    3    3    0    0  0.13429458285E+03 -0.41012217688E+03 -0.44385681773E+03  0.61906712850E+03  0.00000000000E+00 0. -1.
         22    1    1    2    0    0 -0.19520247476E+03  0.90096664833E+03  0.92262837822E+03  0.13042576555E+04  0.00000000000E+00 0. -1.
<mgrwt>
<rscale>  0 0.26107705E+04</rscale>
<asrwt>0</asrwt>
<pdfrwt beam="1">  1        4 0.20093135E+00 0.26107705E+04</pdfrwt>
<pdfrwt beam="2">  1       -4 0.20072570E+00 0.26107705E+04</pdfrwt>
<totfact> 0.29727402E-02</totfact>
</mgrwt>
</event>
<event>
 6    1  0.1817112E-005  0.2679685E+04  0.7818608E-02  0.8341627E-01
          2   -1    0    0  501    0  0.00000000000E+00  0.00000000000E+00  0.10768353344E+04  0.10768353344E+04  0.00000000000E+00 0.  1.
         -2   -1    0    0    0  501 -0.00000000000E+00 -0.00000000000E+00 -0.16670868606E+04  0.16670868606E+04  0.00000000000E+00 0. -1.
         23    2    1    2    0    0 -0.10754991969E+04 -0.38844736755E+03 -0.10074676516E+04  0.15266879631E+04  0.90527275060E+02 0.  0.
         13    1    3    3    0    0 -0.78560762236E+03 -0.32356773060E+03 -0.76355416164E+03  0.11423179813E+04  0.00000000000E+00 0. -1.
        -13    1    3    3    0    0 -0.28989157459E+03 -0.64879636954E+02 -0.24391348997E+03  0.38436998179E+03  0.00000000000E+00 0.  1.
         22    1    1    2    0    0  0.10754991969E+04  0.38844736755E+03  0.41721612540E+03  0.12172342319E+04  0.00000000000E+00 0.  1.
<mgrwt>
<rscale>  0 0.26796851E+04</rscale>
<asrwt>0</asrwt>
<pdfrwt beam="1">  1        2 0.16566697E+00 0.26796851E+04</pdfrwt>
<pdfrwt beam="2">  1       -2 0.25647490E+00 0.26796851E+04</pdfrwt>
<totfact> 0.11603152E+00</totfact>
</mgrwt>
</event>
<event>
 6    1  0.1817112E-005  0.2801470E+04  0.7818608E-02  0.8302812E-01
          2   -1    0    0  501    0  0.00000000000E+00  0.00000000000E+00  0.16811359761E+04  0.16811359761E+04  0.00000000000E+00 0. -1.
         -2   -1    0    0    0  501 -0.00000000000E+00 -0.00000000000E+00 -0.11671024189E+04  0.11671024189E+04  0.00000000000E+00 0.  1.
         23    2    1    2    0    0 -0.37885461197E+03 -0.13470226460E+04  0.25122623260E+03  0.14244868311E+04  0.89706667125E+02 0.  0.
         13    1    3    3    0    0 -0.74848012146E+02 -0.25737188382E+03  0.12610511553E+02  0.26833102039E+03  0.00000000000E+00 0. -1.
        -13    1    3    3    0    0 -0.30400659982E+03 -0.10896507622E+04  0.23861572104E+03  0.11561558107E+04  0.00000000000E+00 0.  1.
         22    1    1    2    0    0  0.37885461197E+03  0.13470226460E+04  0.26280732462E+03  0.14237515639E+04  0.00000000000E+00 0. -1.
<mgrwt>
<rscale>  0 0.28014695E+04</rscale>
<asrwt>0</asrwt>
<pdfrwt beam="1">  1        2 0.25863630E+00 0.28014695E+04</pdfrwt>
<pdfrwt beam="2">  1       -2 0.17955422E+00 0.28014695E+04</pdfrwt>
<totfact> 0.15966052E+00</totfact>
</mgrwt>
</event>
<event>
 6    1  0.1817112E-005  0.2325451E+04  0.7818608E-02  0.8467953E-01
         -2   -1    0    0    0  501 -0.00000000000E+00  0.00000000000E+00  0.16443230703E+04  0.16443230703E+04  0.00000000000E+00 0.  1.
          2   -1    0    0  501    0  0.00000000000E+00 -0.00000000000E+00 -0.82218033617E+03  0.82218033617E+03  0.00000000000E+00 0. -1.
         23    2    1    2    0    0 -0.28547281834E+03 -0.10739354631E+04  0.76787848600E+03  0.13539492650E+04  0.93322741234E+02 0.  0.
         11    1    3    3    0    0 -0.11072478964E+03 -0.31794778507E+03  0.19104496967E+03  0.38710328532E+03  0.00000000000E+00 0.  1.
        -11    1    3    3    0    0 -0.17474802871E+03 -0.75598767808E+03  0.57683351633E+03  0.96684597972E+03  0.00000000000E+00 0. -1.
         22    1    1    2    0    0  0.28547281834E+03  0.10739354631E+04  0.54264248147E+02  0.11125541414E+04  0.00000000000E+00 0. -1.
<mgrwt>
<rscale>  0 0.23254506E+04</rscale>
<asrwt>0</asrwt>
<pdfrwt beam="1">  1        2 0.12648928E+00 0.23254506E+04</pdfrwt>
<pdfrwt beam="2">  1       -2 0.25297278E+00 0.23254506E+04</pdfrwt>
<totfact> 0.18507154E+00</totfact>
</mgrwt>
</event>
<event>
 6    1  0.1817112E-005  0.2750899E+04  0.7818608E-02  0.8318676E-01
         -2   -1    0    0    0  501 -0.00000000000E+00  0.00000000000E+00  0.23494946650E+04  0.23494946650E+04  0.00000000000E+00 0.  1.
          2   -1    0    0  501    0  0.00000000000E+00 -0.00000000000E+00 -0.80522069975E+03  0.80522069975E+03  0.00000000000E+00 0. -1.
         23    2    1    2    0    0  0.72776003689E+03 -0.11615873478E+04  0.66385293564E+03  0.15255864480E+04  0.88280533178E+02 0.  0.
         11    1    3    3    0    0  0.73006911145E+02 -0.16142152591E+03  0.66592615453E+02  0.18926567183E+03  0.00000000000E+00 0. -1.
        -11    1    3    3    0    0  0.65475312574E+03 -0.10001658219E+04  0.59726032018E+03  0.13363207762E+04  0.00000000000E+00 0.  1.
         22    1    1    2    0    0 -0.72776003689E+03  0.11615873478E+04  0.88042102957E+03  0.16291289167E+04  0.00000000000E+00 0.  1.
<mgrwt>
<rscale>  0 0.27508993E+04</rscale>
<asrwt>0</asrwt>
<pdfrwt beam="1">  1        2 0.12388011E+00 0.27508993E+04</pdfrwt>
<pdfrwt beam="2">  1       -2 0.36146071E+00 0.27508993E+04</pdfrwt>
<totfact> 0.39269201E-01</totfact>
</mgrwt>
</event>
<event>
 6    1  0.1817112E-005  0.2716078E+04  0.7818608E-02  0.8329807E-01
          1   -1    0    0  501    0  0.00000000000E+00  0.00000000000E+00  0.17076899003E+04  0.17076899003E+04  0.00000000000E+00 0. -1.
         -1   -1    0    0    0  501 -0.00000000000E+00 -0.00000000000E+00 -0.10799795197E+04  0.10799795197E+04  0.00000000000E+00 0.  1.
         23    2    1    2    0    0 -0.57953793004E+03  0.12150582206E+04  0.48557004316E+03  0.14339949513E+04  0.91282867183E+02 0.  0.
         11    1    3    3    0    0 -0.74736610353E+02  0.23896443585E+03  0.89002707417E+02  0.26572738748E+03  0.00000000000E+00 0. -1.
        -11    1    3    3    0    0 -0.50480131969E+03  0.97609378473E+03  0.39656733575E+03  0.11682675638E+04  0.00000000000E+00 0.  1.
         22    1    1    2    0    0  0.57953793004E+03 -0.12150582206E+04  0.14214033746E+03  0.13536744687E+04  0.00000000000E+00 0.  1.
<mgrwt>
<rscale>  0 0.27160781E+04</rscale>
<asrwt>0</asrwt>
<pdfrwt beam="1">  1        1 0.26272152E+00 0.27160781E+04</pdfrwt>
<pdfrwt beam="2">  1       -1 0.16615070E+00 0.27160781E+04</pdfrwt>
<totfact> 0.10787993E+00</totfact>
</mgrwt>
</event>
<event>
 6    1  0.1817112E-005  0.9269630E+03  0.7818608E-02  0.9392490E-01
          2   -1    0    0  501    0  0.00000000000E+00  0.00000000000E+00  0.13125148778E+04  0.13125148778E+04  0.00000000000E+00 0. -1.
         -2   -1    0    0    0  501 -0.00000000000E+00 -0.00000000000E+00 -0.16366679247E+03  0.16366679247E+03  0.00000000000E+00 0.  1.
         23    2    1    2    0    0 -0.21423347430E+03 -0.26453371577E+03  0.10708793228E+04  0.11269636922E+04  0.85968431856E+02 0.  0.
         13    1    3    3    0    0 -0.10208687109E+03 -0.66724392772E+02  0.32194533791E+03  0.34427122221E+03  0.00000000000E+00 0. -1.
        -13    1    3    3    0    0 -0.11214660321E+03 -0.19780932299E+03  0.74893398488E+03  0.78269246999E+03  0.00000000000E+00 0.  1.
         22    1    1    2    0    0  0.21423347430E+03  0.26453371577E+03  0.77968762574E+02  0.34921797810E+03  0.00000000000E+00 0.  1.
<mgrwt>
<rscale>  0 0.92696300E+03</rscale>
<asrwt>0</asrwt>
<pdfrwt beam="1">  1        2 0.20192536E+00 0.92696300E+03</pdfrwt>
<pdfrwt beam="2">  1       -2 0.25179507E-01 0.92696300E+03</pdfrwt>
<totfact> 0.23026421E+02</totfact>
</mgrwt>
</event>
<event>
 6    1  0.1817112E-005  0.1333734E+04  0.7818608E-02  0.9003233E-01
          1   -1    0    0  501    0  0.00000000000E+00  0.00000000000E+00  0.38288260077E+04  0.38288260077E+04  0.00000000000E+00 0. -1.
         -1   -1    0    0    0  501 -0.00000000000E+00 -0.00000000000E+00 -0.11614833781E+03  0.11614833781E+03  0.00000000000E+00 0.  1.
         23    2    1    2    0    0 -0.56870309823E+03 -0.15263470777E+03  0.96029266076E+03  0.11303085028E+04  0.93352820681E+02 0.  0.
         13    1    3    3    0    0 -0.18908146051E+02  0.11213028512E+02  0.27336760968E+02  0.35079174672E+02  0.00000000000E+00 0. -1.
        -13    1    3    3    0    0 -0.54979495218E+03 -0.16384773628E+03  0.93295589979E+03  0.10952293281E+04  0.00000000000E+00 0.  1.
         22    1    1    2    0    0  0.56870309823E+03  0.15263470777E+03  0.27523850091E+04  0.28146658428E+04  0.00000000000E+00 0. -1.
<mgrwt>
<rscale>  0 0.13337343E+04</rscale>
<asrwt>0</asrwt>
<pdfrwt beam="1">  1        1 0.58905006E+00 0.13337343E+04</pdfrwt>
<pdfrwt beam="2">  1       -1 0.17868978E-01 0.13337343E+04</pdfrwt>
<totfact> 0.33354253E+00</totfact>
</mgrwt>
</event>
<event>
 6    1  0.1817112E-005  0.1136932E+04  0.7818608E-02  0.9169925E-01
          2   -1    0    0  501    0  0.00000000000E+00  0.00000000000E+00  0.24985950047E+04  0.24985950047E+04  0.00000000000E+00 0. -1.
         -2   -1    0    0    0  501 -0.00000000000E+00 -0.00000000000E+00 -0.12933409886E+03  0.12933409886E+03  0.00000000000E+00 0.  1.
         23    2    1    2    0    0 -0.33662957057E+03 -0.35610380157E+03  0.54279639675E+03  0.73687067289E+03  0.90670143794E+02 0.  0.
         11    1    3    3    0    0 -0.18346051149E+03 -0.20582854396E+03  0.36960655163E+03  0.46112053933E+03  0.00000000000E+00 0.  1.
        -11    1    3    3    0    0 -0.15316905908E+03 -0.15027525760E+03  0.17318984512E+03  0.27575013356E+03  0.00000000000E+00 0. -1.
         22    1    1    2    0    0  0.33662957057E+03  0.35610380157E+03  0.18264645091E+04  0.18910584307E+04  0.00000000000E+00 0.  1.
<mgrwt>
<rscale>  0 0.11369319E+04</rscale>
<asrwt>0</asrwt>
<pdfrwt beam="1">  1        2 0.38439919E+00 0.11369319E+04</pdfrwt>
<pdfrwt beam="2">  1       -2 0.19897556E-01 0.11369319E+04</pdfrwt>
<totfact> 0.75105678E+01</totfact>
</mgrwt>
</event>
<event>
 6    1  0.1817112E-005  0.6956889E+03  0.7818608E-02  0.9724633E-01
         -2   -1    0    0    0  501 -0.00000000000E+00  0.00000000000E+00  0.95168240765E+02  0.95168240765E+02  0.00000000000E+00 0.  1.
          2   -1    0    0  501    0  0.00000000000E+00 -0.00000000000E+00 -0.12713881866E+04  0.12713881866E+04  0.00000000000E+00 0. -1.
         23    2    1    2    0    0  0.20286703279E+03  0.16216665548E+02 -0.58615771681E+02  0.23057354751E+03  0.91161060160E+02 0.  0.
         11    1    3    3    0    0  0.46641090753E+01  0.43368392285E+01  0.16961486639E+02  0.18117784549E+02  0.00000000000E+00 0.  1.
        -11    1    3    3    0    0  0.19820292371E+03  0.11879826319E+02 -0.75577258320E+02  0.21245576296E+03  0.00000000000E+00 0. -1.
         22    1    1    2    0    0 -0.20286703279E+03 -0.16216665548E+02 -0.11176041742E+04  0.11359828799E+04  0.00000000000E+00 0. -1.
<mgrwt>
<rscale>  0 0.69568895E+03</rscale>
<asrwt>0</asrwt>
<pdfrwt beam="1">  1        2 0.19559816E+00 0.69568895E+03</pdfrwt>
<pdfrwt beam="2">  1       -2 0.14641270E-01 0.69568895E+03</pdfrwt>
<totfact> 0.63386261E+02</totfact>
</mgrwt>
</event>
<event>
 6    1  0.1817112E-005  0.3092136E+04  0.7818608E-02  0.8217899E-01
         -1   -1    0    0    0  501 -0.00000000000E+00  0.00000000000E+00  0.12445872699E+04  0.12445872699E+04  0.00000000000E+00 0.  1.
          1   -1    0    0  501    0  0.00000000000E+00 -0.00000000000E+00 -0.19205775467E+04  0.19205775467E+04  0.00000000000E+00 0. -1.
         23    2    1    2    0    0  0.12968831008E+04  0.81653662136E+03 -0.53928867674E+03  0.16265533781E+04  0.78776797864E+02 0.  0.
         13    1    3    3    0    0  0.34689208665E+03  0.23913844963E+03 -0.18077209519E+03  0.45847559179E+03  0.00000000000E+00 0. -1.
        -13    1    3    3    0    0  0.94999101417E+03  0.57739817173E+03 -0.35851658155E+03  0.11680777864E+04  0.00000000000E+00 0.  1.
         22    1    1    2    0    0 -0.12968831008E+04 -0.81653662136E+03 -0.13670160001E+03  0.15386114385E+04  0.00000000000E+00 0.  1.
<mgrwt>
<rscale>  0 0.30921361E+04</rscale>
<asrwt>0</asrwt>
<pdfrwt beam="1">  1        1 0.29547347E+00 0.30921361E+04</pdfrwt>
<pdfrwt beam="2">  1       -1 0.19147497E+00 0.30921361E+04</pdfrwt>
<totfact> 0.49155281E-01</totfact>
</mgrwt>
</event>
<event>
 6    1  0.1817112E-005  0.2351452E+04  0.7818608E-02  0.8457906E-01
          2   -1    0    0  501    0  0.00000000000E+00  0.00000000000E+00  0.14896748697E+04  0.14896748697E+04  0.00000000000E+00 0. -1.
         -2   -1    0    0    0  501 -0.00000000000E+00 -0.00000000000E+00 -0.92794219279E+03  0.92794219279E+03  0.00000000000E+00 0.  1.
         23    2    1    2    0    0  0.44949605839E+03  0.57371997527E+02 -0.83221440068E+03  0.95186581902E+03  0.90163607451E+02 0.  0.
         13    1    3    3    0    0  0.37968963815E+03  0.16635971788E+02 -0.65937312727E+03  0.76106103424E+03  0.00000000000E+00 0. -1.
        -13    1    3    3    0    0  0.69806420243E+02  0.40736025739E+02 -0.17284127342E+03  0.19080478479E+03  0.00000000000E+00 0.  1.
         22    1    1    2    0    0 -0.44949605839E+03 -0.57371997527E+02  0.13939470776E+04  0.14657512434E+04  0.00000000000E+00 0. -1.
<mgrwt>
<rscale>  0 0.23514525E+04</rscale>
<asrwt>0</asrwt>
<pdfrwt beam="1">  1        2 0.22918075E+00 0.23514525E+04</pdfrwt>
<pdfrwt beam="2">  1       -2 0.14276034E+00 0.23514525E+04</pdfrwt>
<totfact> 0.39652897E+00</totfact>
</mgrwt>
</event>
<event>
 6    1  0.1817112E-005  0.3351241E+04  0.7818608E-02  0.8149978E-01
         -2   -1    0    0    0  501 -0.00000000000E+00  0.00000000000E+00  0.10047480646E+04  0.10047480646E+04  0.00000000000E+00 0.  1.
          2   -1    0    0  501    0  0.00000000000E+00 -0.00000000000E+00 -0.27944362430E+04  0.27944362430E+04  0.00000000000E+00 0. -1.
         23    2    1    2    0    0 -0.13707979218E+04 -0.76641328290E+03 -0.23741621406E+03  0.15910120965E+04  0.92069374407E+02 0.  0.
         13    1    3    3    0    0 -0.74964936012E+03 -0.40255248736E+03 -0.84552962609E+02  0.85508588557E+03  0.00000000000E+00 0. -1.
        -13    1    3    3    0    0 -0.62114856171E+03 -0.36386079554E+03 -0.15286325145E+03  0.73592621090E+03  0.00000000000E+00 0.  1.
         22    1    1    2    0    0  0.13707979218E+04  0.76641328290E+03 -0.15522719644E+04  0.22081722112E+04  0.00000000000E+00 0. -1.
<mgrwt>
<rscale>  0 0.33512412E+04</rscale>
<asrwt>0</asrwt>
<pdfrwt beam="1">  1        2 0.42991327E+00 0.33512412E+04</pdfrwt>
<pdfrwt beam="2">  1       -2 0.15457663E+00 0.33512412E+04</pdfrwt>
<totfact> 0.53577710E-01</totfact>
</mgrwt>
</event>
<event>
 6    1  0.1817112E-005  0.2652850E+04  0.7818608E-02  0.8350468E-01
         -2   -1    0    0    0  501 -0.00000000000E+00  0.00000000000E+00  0.89056535331E+03  0.89056535331E+03  0.00000000000E+00 0.  1.
          2   -1    0    0  501    0  0.00000000000E+00 -0.00000000000E+00 -0.19756019523E+04  0.19756019523E+04  0.00000000000E+00 0. -1.
         23    2    1    2    0    0 -0.86271130037E+03 -0.38519733709E+03 -0.15465815996E+04  0.18146581218E+04  0.91769703401E+02 0.  0.
         11    1    3    3    0    0 -0.76382220178E+03 -0.36329811930E+03 -0.14162434233E+04  0.16495924689E+04  0.00000000000E+00 0.  1.
        -11    1    3    3    0    0 -0.98889098587E+02 -0.21899217787E+02 -0.13033817623E+03  0.16506565282E+03  0.00000000000E+00 0. -1.
         22    1    1    2    0    0  0.86271130037E+03  0.38519733709E+03  0.46154500054E+03  0.10515091839E+04  0.00000000000E+00 0.  1.
<mgrwt>
<rscale>  0 0.26528495E+04</rscale>
<asrwt>0</asrwt>
<pdfrwt beam="1">  1        2 0.30393876E+00 0.26528495E+04</pdfrwt>
<pdfrwt beam="2">  1       -2 0.13701006E+00 0.26528495E+04</pdfrwt>
<totfact> 0.23061500E+00</totfact>
</mgrwt>
</event>
<event>
 6    1  0.1817112E-005  0.2284488E+04  0.7818608E-02  0.8484063E-01
          2   -1    0    0  501    0  0.00000000000E+00  0.00000000000E+00  0.26192395941E+04  0.26192395941E+04  0.00000000000E+00 0.  1.
         -2   -1    0    0    0  501 -0.00000000000E+00 -0.00000000000E+00 -0.49812968432E+03  0.49812968432E+03  0.00000000000E+00 0. -1.
         23    2    1    2    0    0  0.15214101941E+03  0.70500607808E+03 -0.14320867987E+03  0.74096040465E+03  0.91286008504E+02 0.  0.
         11    1    3    3    0    0  0.70295536563E+02  0.42140902348E+03 -0.12538816329E+03  0.44525186021E+03  0.00000000000E+00 0. -1.
        -11    1    3    3    0    0  0.81845482844E+02  0.28359705460E+03 -0.17820516583E+02  0.29570854444E+03  0.00000000000E+00 0.  1.
         22    1    1    2    0    0 -0.15214101941E+03 -0.70500607808E+03  0.22643185897E+04  0.23764088738E+04  0.00000000000E+00 0.  1.
<mgrwt>
<rscale>  0 0.22844877E+04</rscale>
<asrwt>0</asrwt>
<pdfrwt beam="1">  1        2 0.40295993E+00 0.22844877E+04</pdfrwt>
<pdfrwt beam="2">  1       -2 0.76635337E-01 0.22844877E+04</pdfrwt>
<totfact> 0.40968241E+00</totfact>
</mgrwt>
</event>
<event>
 6    1  0.1817112E-005  0.1046203E+04  0.7818608E-02  0.9259273E-01
         -1   -1    0    0    0  501 -0.00000000000E+00  0.00000000000E+00  0.72348239103E+03  0.72348239103E+03  0.00000000000E+00 0.  1.
          1   -1    0    0  501    0  0.00000000000E+00 -0.00000000000E+00 -0.37821976638E+03  0.37821976638E+03  0.00000000000E+00 0. -1.
         23    2    1    2    0    0 -0.39105236576E+03 -0.19276690623E+03  0.47064601643E+03  0.64804807351E+03  0.91529229726E+02 0.  0.
         13    1    3    3    0    0 -0.27886163310E+03 -0.11419396393E+03  0.26689320353E+03  0.40253702178E+03  0.00000000000E+00 0. -1.
        -13    1    3    3    0    0 -0.11219073266E+03 -0.78572942304E+02  0.20375281290E+03  0.24551105173E+03  0.00000000000E+00 0.  1.
         22    1    1    2    0    0  0.39105236576E+03  0.19276690623E+03 -0.12538339178E+03  0.45365408390E+03  0.00000000000E+00 0. -1.
<mgrwt>
<rscale>  0 0.10462033E+04</rscale>
<asrwt>0</asrwt>
<pdfrwt beam="1">  1        1 0.58187656E-01 0.10462033E+04</pdfrwt>
<pdfrwt beam="2">  1       -1 0.11130498E+00 0.10462033E+04</pdfrwt>
<totfact> 0.47986067E+01</totfact>
</mgrwt>
</event>
<event>
 6    1  0.1817112E-005  0.7605658E+03  0.7818608E-02  0.9618919E-01
          2   -1    0    0  501    0  0.00000000000E+00  0.00000000000E+00  0.20268513175E+03  0.20268513175E+03  0.00000000000E+00 0. -1.
         -2   -1    0    0    0  501 -0.00000000000E+00 -0.00000000000E+00 -0.71349630201E+03  0.71349630201E+03  0.00000000000E+00 0.  1.
         23    2    1    2    0    0 -0.15231096327E+03 -0.32154253289E+03 -0.11705029697E+03  0.38548768467E+03  0.91168816038E+02 0.  0.
         13    1    3    3    0    0 -0.13046228769E+03 -0.19405139204E+03 -0.10254591829E+03  0.25532727356E+03  0.00000000000E+00 0.  1.
        -13    1    3    3    0    0 -0.21848675583E+02 -0.12749114085E+03 -0.14504378673E+02  0.13016041111E+03  0.00000000000E+00 0. -1.
         22    1    1    2    0    0  0.15231096327E+03  0.32154253289E+03 -0.39376087329E+03  0.53069374909E+03  0.00000000000E+00 0.  1.
<mgrwt>
<rscale>  0 0.76056582E+03</rscale>
<asrwt>0</asrwt>
<pdfrwt beam="1">  1        2 0.31182328E-01 0.76056582E+03</pdfrwt>
<pdfrwt beam="2">  1       -2 0.10976866E+00 0.76056582E+03</pdfrwt>
<totfact> 0.11347405E+02</totfact>
</mgrwt>
</event>
<event>
 6    1  0.1817112E-005  0.1388707E+04  0.7818608E-02  0.8962034E-01
          2   -1    0    0  501    0  0.00000000000E+00  0.00000000000E+00  0.13789460377E+04  0.13789460377E+04  0.00000000000E+00 0. -1.
         -2   -1    0    0    0  501 -0.00000000000E+00 -0.00000000000E+00 -0.34963407030E+03  0.34963407030E+03  0.00000000000E+00 0.  1.
         23    2    1    2    0    0 -0.42357057651E+03 -0.51836327076E+03  0.73209080547E+03  0.99615063504E+03  0.90810938185E+02 0.  0.
         13    1    3    3    0    0 -0.22520640602E+03 -0.21927766365E+03  0.38322449343E+03  0.49564264491E+03  0.00000000000E+00 0.  1.
        -13    1    3    3    0    0 -0.19836417048E+03 -0.29908560712E+03  0.34886631204E+03  0.50050799013E+03  0.00000000000E+00 0. -1.
         22    1    1    2    0    0  0.42357057651E+03  0.51836327076E+03  0.29722116195E+03  0.73242947296E+03  0.00000000000E+00 0.  1.
<mgrwt>
<rscale>  0 0.13887066E+04</rscale>
<asrwt>0</asrwt>
<pdfrwt beam="1">  1        2 0.21214554E+00 0.13887066E+04</pdfrwt>
<pdfrwt beam="2">  1       -2 0.53789858E-01 0.13887066E+04</pdfrwt>
<totfact> 0.47182766E+01</totfact>
</mgrwt>
</event>
<event>
 6    1  0.1817112E-005  0.1198266E+04  0.7818608E-02  0.9114376E-01
         -2   -1    0    0    0  501 -0.00000000000E+00  0.00000000000E+00  0.73426166064E+03  0.73426166064E+03  0.00000000000E+00 0.  1.
          2   -1    0    0  501    0  0.00000000000E+00 -0.00000000000E+00 -0.48887263404E+03  0.48887263404E+03  0.00000000000E+00 0. -1.
         23    2    1    2    0    0 -0.28987967552E+03 -0.50337671855E+03  0.25795397882E+03  0.64212119235E+03  0.91438631965E+02 0.  0.
         11    1    3    3    0    0 -0.15492283485E+03 -0.33941721417E+03  0.19292053475E+03  0.42002793093E+03  0.00000000000E+00 0.  1.
        -11    1    3    3    0    0 -0.13495684067E+03 -0.16395950439E+03  0.65033444066E+02  0.22209326142E+03  0.00000000000E+00 0. -1.
         22    1    1    2    0    0  0.28987967552E+03  0.50337671855E+03 -0.12564952217E+02  0.58101310233E+03  0.00000000000E+00 0. -1.
<mgrwt>
<rscale>  0 0.11982661E+04</rscale>
<asrwt>0</asrwt>
<pdfrwt beam="1">  1        2 0.75211174E-01 0.11982661E+04</pdfrwt>
<pdfrwt beam="2">  1       -2 0.11296333E+00 0.11982661E+04</pdfrwt>
<totfact> 0.38417931E+01</totfact>
</mgrwt>
</event>
<event>
 6    1  0.1817112E-005  0.1083562E+04  0.7818608E-02  0.9221363E-01
          2   -1    0    0  501    0  0.00000000000E+00  0.00000000000E+00  0.11526473359E+04  0.11526473359E+04  0.00000000000E+00 0. -1.
         -2   -1    0    0    0  501 -0.00000000000E+00 -0.00000000000E+00 -0.25465427622E+03  0.25465427622E+03  0.00000000000E+00 0.  1.
         23    2    1    2    0    0 -0.22248361336E+03  0.37894023663E+03  0.85525151347E+03  0.96580246041E+03  0.90689470668E+02 0.  0.
         11    1    3    3    0    0 -0.11725263252E+03  0.25190250826E+03  0.45845579883E+03  0.53608280423E+03  0.00000000000E+00 0. -1.
        -11    1    3    3    0    0 -0.10523098084E+03  0.12703772836E+03  0.39679571463E+03  0.42971965618E+03  0.00000000000E+00 0.  1.
         22    1    1    2    0    0  0.22248361336E+03 -0.37894023663E+03  0.42741546165E+02  0.44149915166E+03  0.00000000000E+00 0.  1.
<mgrwt>
<rscale>  0 0.10835619E+04</rscale>
<asrwt>0</asrwt>
<pdfrwt beam="1">  1        2 0.17733036E+00 0.10835619E+04</pdfrwt>
<pdfrwt beam="2">  1       -2 0.39177582E-01 0.10835619E+04</pdfrwt>
<totfact> 0.12371711E+02</totfact>
</mgrwt>
</event>
<event>
 6    1  0.1817112E-005  0.2731896E+04  0.7818608E-02  0.8324729E-01
          2   -1    0    0  501    0  0.00000000000E+00  0.00000000000E+00  0.19222742619E+04  0.19222742619E+04  0.00000000000E+00 0. -1.
         -2   -1    0    0    0  501 -0.00000000000E+00 -0.00000000000E+00 -0.97062868561E+03  0.97062868561E+03  0.00000000000E+00 0.  1.
         23    2    1    2    0    0  0.12773455547E+04 -0.27491546351E+03  0.60260880370E+02  0.13112086489E+04  0.91905217035E+02 0.  0.
         11    1    3    3    0    0  0.38822957749E+03 -0.64723201213E+02  0.56172337607E+02  0.39757594134E+03  0.00000000000E+00 0. -1.
        -11    1    3    3    0    0  0.88911597723E+03 -0.21019226229E+03  0.40885427629E+01  0.91363270753E+03  0.00000000000E+00 0.  1.
         22    1    1    2    0    0 -0.12773455547E+04  0.27491546351E+03  0.89138469589E+03  0.15816942986E+04  0.00000000000E+00 0.  1.
<mgrwt>
<rscale>  0 0.27318964E+04</rscale>
<asrwt>0</asrwt>
<pdfrwt beam="1">  1        2 0.29573450E+00 0.27318964E+04</pdfrwt>
<pdfrwt beam="2">  1       -2 0.14932749E+00 0.27318964E+04</pdfrwt>
<totfact> 0.19582659E+00</totfact>
</mgrwt>
</event>
<event>
 6    1  0.1817112E-005  0.3059480E+04  0.7818608E-02  0.8226947E-01
         -2   -1    0    0    0  501 -0.00000000000E+00  0.00000000000E+00  0.11157355129E+04  0.11157355129E+04  0.00000000000E+00 0.  1.
          2   -1    0    0  501    0  0.00000000000E+00 -0.00000000000E+00 -0.20973650674E+04  0.20973650674E+04  0.00000000000E+00 0. -1.
         23    2    1    2    0    0 -0.77903943478E+03  0.61502553953E+03  0.73001247061E+03  0.12344956987E+04  0.76828168889E+02 0.  0.
         13    1    3    3    0    0 -0.19172572747E+03  0.18152285627E+03  0.22457404687E+03  0.34661622069E+03  0.00000000000E+00 0.  1.
        -13    1    3    3    0    0 -0.58731370731E+03  0.43350268326E+03  0.50543842374E+03  0.88787947796E+03  0.00000000000E+00 0. -1.
         22    1    1    2    0    0  0.77903943478E+03 -0.61502553953E+03 -0.17116420252E+04  0.19786048816E+04  0.00000000000E+00 0. -1.
<mgrwt>
<rscale>  0 0.30594801E+04</rscale>
<asrwt>0</asrwt>
<pdfrwt beam="1">  1        2 0.32267155E+00 0.30594801E+04</pdfrwt>
<pdfrwt beam="2">  1       -2 0.17165162E+00 0.30594801E+04</pdfrwt>
<totfact> 0.10419609E+00</totfact>
</mgrwt>
</event>
<event>
 6    1  0.3494028E-005  0.2888265E+04  0.7818608E-02  0.8276378E-01
         -2   -1    0    0    0  501 -0.00000000000E+00  0.00000000000E+00  0.14623766226E+04  0.14623766226E+04  0.00000000000E+00 0.  1.
          2   -1    0    0  501    0  0.00000000000E+00 -0.00000000000E+00 -0.14261157371E+04  0.14261157371E+04  0.00000000000E+00 0. -1.
         23    2    1    2    0    0  0.11329920072E+04  0.26485318920E+03 -0.83494326238E+03  0.14349398951E+04  0.90023058923E+02 0.  0.
         11    1    3    3    0    0  0.51323504669E+03  0.15726279148E+03 -0.41692647021E+03  0.67968336768E+03  0.00000000000E+00 0.  1.
        -11    1    3    3    0    0  0.61975696048E+03  0.10759039773E+03 -0.41801679217E+03  0.75525652747E+03  0.00000000000E+00 0. -1.
         22    1    1    2    0    0 -0.11329920072E+04 -0.26485318920E+03  0.87120414784E+03  0.14535524646E+04  0.00000000000E+00 0.  1.
<mgrwt>
<rscale>  0 0.28882647E+04</rscale>
<asrwt>0</asrwt>
<pdfrwt beam="1">  1        2 0.21940242E+00 0.28882647E+04</pdfrwt>
<pdfrwt beam="2">  1       -2 0.22498102E+00 0.28882647E+04</pdfrwt>
<totfact> 0.11104219E+00</totfact>
</mgrwt>
</event>
<event>
 6    1  0.1817112E-005  0.6809024E+03  0.7818608E-02  0.9750461E-01
          2   -1    0    0  501    0  0.00000000000E+00  0.00000000000E+00  0.46673951400E+03  0.46673951400E+03  0.00000000000E+00 0. -1.
         -2   -1    0    0    0  501 -0.00000000000E+00 -0.00000000000E+00 -0.24833342149E+03  0.24833342149E+03  0.00000000000E+00 0.  1.
         23    2    1    2    0    0 -0.31976894444E+03 -0.51777469326E+02  0.21467516310E+02  0.33597151509E+03  0.86503875852E+02 0.  0.
         13    1    3    3    0    0 -0.26514110015E+03 -0.75163750777E+02  0.22825166797E+02  0.27653278406E+03  0.00000000000E+00 0. -1.
        -13    1    3    3    0    0 -0.54627844284E+02  0.23386281451E+02 -0.13576504864E+01  0.59438731026E+02  0.00000000000E+00 0.  1.
         22    1    1    2    0    0  0.31976894444E+03  0.51777469326E+02  0.19693857620E+03  0.37910142040E+03  0.00000000000E+00 0. -1.
<mgrwt>
<rscale>  0 0.68090240E+03</rscale>
<asrwt>0</asrwt>
<pdfrwt beam="1">  1        2 0.71806079E-01 0.68090240E+03</pdfrwt>
<pdfrwt beam="2">  1       -2 0.38205142E-01 0.68090240E+03</pdfrwt>
<totfact> 0.43477589E+02</totfact>
</mgrwt>
</event>
<event>
 6    1  0.1817112E-005  0.2385068E+04  0.7818608E-02  0.8445115E-01
          2   -1    0    0  501    0  0.00000000000E+00  0.00000000000E+00  0.20670754793E+04  0.20670754793E+04  0.00000000000E+00 0.  1.
         -2   -1    0    0    0  501 -0.00000000000E+00 -0.00000000000E+00 -0.68799484071E+03  0.68799484071E+03  0.00000000000E+00 0. -1.
         23    2    1    2    0    0  0.11327338717E+04 -0.92264369642E+02  0.28007907602E+03  0.11741202346E+04  0.92278375622E+02 0.  0.
         13    1    3    3    0    0  0.52614837933E+03 -0.86723477617E+02  0.11617016241E+03  0.54575505978E+03  0.00000000000E+00 0. -1.
        -13    1    3    3    0    0  0.60658549233E+03 -0.55408920241E+01  0.16390891361E+03  0.62836517484E+03  0.00000000000E+00 0.  1.
         22    1    1    2    0    0 -0.11327338717E+04  0.92264369642E+02  0.10990015626E+04  0.15809500854E+04  0.00000000000E+00 0.  1.
<mgrwt>
<rscale>  0 0.23850679E+04</rscale>
<asrwt>0</asrwt>
<pdfrwt beam="1">  1        2 0.31801161E+00 0.23850679E+04</pdfrwt>
<pdfrwt beam="2">  1       -2 0.10584536E+00 0.23850679E+04</pdfrwt>
<totfact> 0.39792440E+00</totfact>
</mgrwt>
</event>
<event>
 6    1  0.1817112E-005  0.1570332E+04  0.7818608E-02  0.8838985E-01
         -2   -1    0    0    0  501 -0.00000000000E+00  0.00000000000E+00  0.35244006318E+03  0.35244006318E+03  0.00000000000E+00 0.  1.
          2   -1    0    0  501    0  0.00000000000E+00 -0.00000000000E+00 -0.17491922608E+04  0.17491922608E+04  0.00000000000E+00 0. -1.
         23    2    1    2    0    0 -0.33707193696E+03  0.47075166146E+03  0.31557055845E+01  0.58671755577E+03  0.94883688389E+02 0.  0.
         11    1    3    3    0    0 -0.91854894247E+02  0.20333896279E+03  0.15720024804E+02  0.22367649533E+03  0.00000000000E+00 0. -1.
        -11    1    3    3    0    0 -0.24521704271E+03  0.26741269867E+03 -0.12564319219E+02  0.36304106044E+03  0.00000000000E+00 0.  1.
         22    1    1    2    0    0  0.33707193696E+03 -0.47075166146E+03 -0.13999079032E+04  0.15149147682E+04  0.00000000000E+00 0. -1.
<mgrwt>
<rscale>  0 0.15703317E+04</rscale>
<asrwt>0</asrwt>
<pdfrwt beam="1">  1        2 0.26910651E+00 0.15703317E+04</pdfrwt>
<pdfrwt beam="2">  1       -2 0.54221547E-01 0.15703317E+04</pdfrwt>
<totfact> 0.28338985E+01</totfact>
</mgrwt>
</event>
<event>
 6    1  0.1817112E-005  0.6444646E+03  0.7818608E-02  0.9817222E-01
         -2   -1    0    0    0  501 -0.00000000000E+00  0.00000000000E+00  0.45936093186E+02  0.45936093186E+02  0.00000000000E+00 0.  1.
          2   -1    0    0  501    0  0.00000000000E+00 -0.00000000000E+00 -0.22603935568E+04  0.22603935568E+04  0.00000000000E+00 0. -1.
         23    2    1    2    0    0 -0.13534957487E+03  0.25040521204E+03 -0.16188711023E+04  0.16462195141E+04  0.90954743147E+02 0.  0.
         13    1    3    3    0    0 -0.10619952667E+03  0.18795370016E+03 -0.97188111372E+03  0.99556909960E+03  0.00000000000E+00 0.  1.
        -13    1    3    3    0    0 -0.29150048201E+02  0.62451511883E+02 -0.64698998854E+03  0.65065041452E+03  0.00000000000E+00 0. -1.
         22    1    1    2    0    0  0.13534957487E+03 -0.25040521204E+03 -0.59558636131E+03  0.66011013583E+03  0.00000000000E+00 0.  1.
<mgrwt>
<rscale>  0 0.64446458E+03</rscale>
<asrwt>0</asrwt>
<pdfrwt beam="1">  1        2 0.34775283E+00 0.64446458E+03</pdfrwt>
<pdfrwt beam="2">  1       -2 0.70670917E-02 0.64446458E+03</pdfrwt>
<totfact> 0.59476091E+02</totfact>
</mgrwt>
</event>
<event>
 6    1  0.1817112E-005  0.3115037E+04  0.7818608E-02  0.8211623E-01
         -2   -1    0    0    0  501 -0.00000000000E+00  0.00000000000E+00  0.64008888016E+03  0.64008888016E+03  0.00000000000E+00 0.  1.
          2   -1    0    0  501    0  0.00000000000E+00 -0.00000000000E+00 -0.37898867623E+04  0.37898867623E+04  0.00000000000E+00 0. -1.
         23    2    1    2    0    0  0.78769506850E+03 -0.61510802537E+03 -0.32722788173E+04  0.34230878715E+04  0.10440552566E+03 0.  0.
         13    1    3    3    0    0  0.42399352563E+03 -0.38818606495E+03 -0.17874959401E+04  0.18776582933E+04  0.00000000000E+00 0. -1.
        -13    1    3    3    0    0  0.36370154288E+03 -0.22692196042E+03 -0.14847828772E+04  0.15454295781E+04  0.00000000000E+00 0.  1.
         22    1    1    2    0    0 -0.78769506850E+03  0.61510802537E+03  0.12248093520E+03  0.10068877710E+04  0.00000000000E+00 0.  1.
<mgrwt>
<rscale>  0 0.31150373E+04</rscale>
<asrwt>0</asrwt>
<pdfrwt beam="1">  1        2 0.58305950E+00 0.31150373E+04</pdfrwt>
<pdfrwt beam="2">  1       -2 0.98475213E-01 0.31150373E+04</pdfrwt>
<totfact> 0.36265625E-01</totfact>
</mgrwt>
</event>
<event>
 6    1  0.1817112E-005  0.2432791E+04  0.7818608E-02  0.8427328E-01
         -2   -1    0    0    0  501 -0.00000000000E+00  0.00000000000E+00  0.83879117921E+03  0.83879117921E+03  0.00000000000E+00 0.  1.
          2   -1    0    0  501    0  0.00000000000E+00 -0.00000000000E+00 -0.17639888220E+04  0.17639888220E+04  0.00000000000E+00 0. -1.
         23    2    1    2    0    0  0.58319118167E+03  0.52609978369E+03  0.52807939338E+03  0.95083960257E+03  0.91297137583E+02 0.  0.
         11    1    3    3    0    0  0.40889833474E+03  0.41478556722E+03  0.41465506150E+03  0.71497114275E+03  0.00000000000E+00 0. -1.
        -11    1    3    3    0    0  0.17429284693E+03  0.11131421647E+03  0.11342433187E+03  0.23586845983E+03  0.00000000000E+00 0.  1.
         22    1    1    2    0    0 -0.58319118167E+03 -0.52609978369E+03 -0.14532770361E+04  0.16519403986E+04  0.00000000000E+00 0. -1.
<mgrwt>
<rscale>  0 0.24327912E+04</rscale>
<asrwt>0</asrwt>
<pdfrwt beam="1">  1        2 0.27138290E+00 0.24327912E+04</pdfrwt>
<pdfrwt beam="2">  1       -2 0.12904480E+00 0.24327912E+04</pdfrwt>
<totfact> 0.35859621E+00</totfact>
</mgrwt>
</event>
<event>
 6    1  0.1817112E-005  0.2938252E+04  0.7818608E-02  0.8261587E-01
          2   -1    0    0  501    0  0.00000000000E+00  0.00000000000E+00  0.16892422686E+04  0.16892422686E+04  0.00000000000E+00 0. -1.
         -2   -1    0    0    0  501 -0.00000000000E+00 -0.00000000000E+00 -0.12776918315E+04  0.12776918315E+04  0.00000000000E+00 0.  1.
         23    2    1    2    0    0 -0.10388228059E+04  0.70127357729E+03  0.97702653265E+03  0.15919065851E+04  0.92996117893E+02 0.  0.
         11    1    3    3    0    0 -0.48639505030E+03  0.27482307349E+03  0.45079740237E+03  0.71786221844E+03  0.00000000000E+00 0. -1.
        -11    1    3    3    0    0 -0.55242775559E+03  0.42645050380E+03  0.52622913028E+03  0.87404436666E+03  0.00000000000E+00 0.  1.
         22    1    1    2    0    0  0.10388228059E+04 -0.70127357729E+03 -0.56547609563E+03  0.13750275150E+04  0.00000000000E+00 0.  1.
<mgrwt>
<rscale>  0 0.29382519E+04</rscale>
<asrwt>0</asrwt>
<pdfrwt beam="1">  1        2 0.25988342E+00 0.29382519E+04</pdfrwt>
<pdfrwt beam="2">  1       -2 0.19656798E+00 0.29382519E+04</pdfrwt>
<totfact> 0.11988238E+00</totfact>
</mgrwt>
</event>
<event>
 6    1  0.1817112E-005  0.1712637E+04  0.7818608E-02  0.8754190E-01
          2   -1    0    0  501    0  0.00000000000E+00  0.00000000000E+00  0.11117723252E+04  0.11117723252E+04  0.00000000000E+00 0. -1.
         -2   -1    0    0    0  501 -0.00000000000E+00 -0.00000000000E+00 -0.65956046008E+03  0.65956046008E+03  0.00000000000E+00 0.  1.
         23    2    1    2    0    0  0.79116344729E+03  0.23673537882E+03  0.22062762494E+01  0.83086041997E+03  0.91328691584E+02 0.  0.
         11    1    3    3    0    0  0.25696436986E+03  0.11002815849E+03  0.30012618969E+02  0.28113633763E+03  0.00000000000E+00 0.  1.
        -11    1    3    3    0    0  0.53419907743E+03  0.12670722033E+03 -0.27806342719E+02  0.54972408234E+03  0.00000000000E+00 0. -1.
         22    1    1    2    0    0 -0.79116344729E+03 -0.23673537882E+03  0.45000558888E+03  0.94047236532E+03  0.00000000000E+00 0. -1.
<mgrwt>
<rscale>  0 0.17126366E+04</rscale>
<asrwt>0</asrwt>
<pdfrwt beam="1">  1        2 0.17104190E+00 0.17126366E+04</pdfrwt>
<pdfrwt beam="2">  1       -2 0.10147084E+00 0.17126366E+04</pdfrwt>
<totfact> 0.16251287E+01</totfact>
</mgrwt>
</event>
<event>
 6    1  0.1817112E-005  0.6690362E+03  0.7818608E-02  0.9771701E-01
          2   -1    0    0  501    0  0.00000000000E+00  0.00000000000E+00  0.19361140646E+03  0.19361140646E+03  0.00000000000E+00 0. -1.
         -2   -1    0    0    0  501 -0.00000000000E+00 -0.00000000000E+00 -0.57797392879E+03  0.57797392879E+03  0.00000000000E+00 0.  1.
         23    2    1    2    0    0 -0.15417349074E+03  0.27161712615E+02  0.13700846188E+03  0.22721879783E+03  0.91377456626E+02 0.  0.
         11    1    3    3    0    0 -0.60071251750E+02  0.53780463140E+02  0.82068730678E+02  0.11504855522E+03  0.00000000000E+00 0. -1.
        -11    1    3    3    0    0 -0.94102238993E+02 -0.26618750525E+02  0.54939731205E+02  0.11217024261E+03  0.00000000000E+00 0.  1.
         22    1    1    2    0    0  0.15417349074E+03 -0.27161712615E+02 -0.52137098422E+03  0.54436653742E+03  0.00000000000E+00 0.  1.
<mgrwt>
<rscale>  0 0.66903616E+03</rscale>
<asrwt>0</asrwt>
<pdfrwt beam="1">  1        2 0.29786371E-01 0.66903616E+03</pdfrwt>
<pdfrwt beam="2">  1       -2 0.88919065E-01 0.66903616E+03</pdfrwt>
<totfact> 0.19705358E+02</totfact>
</mgrwt>
</event>
<event>
 6    1  0.1817112E-005  0.2562348E+04  0.7818608E-02  0.8381104E-01
         -2   -1    0    0    0  501 -0.00000000000E+00  0.00000000000E+00  0.63611735698E+03  0.63611735698E+03  0.00000000000E+00 0.  1.
          2   -1    0    0  501    0  0.00000000000E+00 -0.00000000000E+00 -0.25803515104E+04  0.25803515104E+04  0.00000000000E+00 0. -1.
         23    2    1    2    0    0  0.30117627079E+03  0.49951602996E+03  0.45632254674E+03  0.74606487593E+03  0.90327859318E+02 0.  0.
         11    1    3    3    0    0  0.73905704050E+02  0.10818395151E+03  0.15221533967E+03  0.20083657557E+03  0.00000000000E+00 0.  1.
        -11    1    3    3    0    0  0.22727056674E+03  0.39133207844E+03  0.30410720707E+03  0.54522830036E+03  0.00000000000E+00 0. -1.
         22    1    1    2    0    0 -0.30117627079E+03 -0.49951602996E+03 -0.24005567001E+04  0.24704039914E+04  0.00000000000E+00 0. -1.
<mgrwt>
<rscale>  0 0.25623477E+04</rscale>
<asrwt>0</asrwt>
<pdfrwt beam="1">  1        2 0.39697716E+00 0.25623477E+04</pdfrwt>
<pdfrwt beam="2">  1       -2 0.97864207E-01 0.25623477E+04</pdfrwt>
<totfact> 0.24098600E+00</totfact>
</mgrwt>
</event>
<event>
 6    1  0.1817112E-005  0.2257474E+04  0.7818608E-02  0.8494880E-01
          2   -1    0    0  501    0  0.00000000000E+00  0.00000000000E+00  0.10551795225E+04  0.10551795225E+04  0.00000000000E+00 0. -1.
         -2   -1    0    0    0  501 -0.00000000000E+00 -0.00000000000E+00 -0.12074224687E+04  0.12074224687E+04  0.00000000000E+00 0.  1.
         23    2    1    2    0    0  0.28163967239E+03  0.98694706696E+03 -0.54270051453E+03  0.11644933760E+04  0.90197318861E+02 0.  0.
         11    1    3    3    0    0  0.18993727184E+03  0.51730612578E+03 -0.26876914548E+03  0.61312205030E+03  0.00000000000E+00 0. -1.
        -11    1    3    3    0    0  0.91702400545E+02  0.46964094118E+03 -0.27393136905E+03  0.55137132574E+03  0.00000000000E+00 0.  1.
         22    1    1    2    0    0 -0.28163967239E+03 -0.98694706696E+03  0.39045756828E+03  0.10981086152E+04  0.00000000000E+00 0.  1.
<mgrwt>
<rscale>  0 0.22574742E+04</rscale>
<asrwt>0</asrwt>
<pdfrwt beam="1">  1        2 0.16233531E+00 0.22574742E+04</pdfrwt>
<pdfrwt beam="2">  1       -2 0.18575730E+00 0.22574742E+04</pdfrwt>
<totfact> 0.34992213E+00</totfact>
</mgrwt>
</event>
<event>
 6    1  0.1817112E-005  0.1699577E+04  0.7818608E-02  0.8761606E-01
         -2   -1    0    0    0  501 -0.00000000000E+00  0.00000000000E+00  0.57482427741E+03  0.57482427741E+03  0.00000000000E+00 0.  1.
          2   -1    0    0  501    0  0.00000000000E+00 -0.00000000000E+00 -0.12562803861E+04  0.12562803861E+04  0.00000000000E+00 0. -1.
         23    2    1    2    0    0  0.45578890110E+02 -0.77812902594E+03 -0.69954871133E+03  0.10514319382E+04  0.92620219204E+02 0.  0.
         13    1    3    3    0    0  0.37742877723E+02 -0.16888827036E+03 -0.19157942700E+03  0.25816748349E+03  0.00000000000E+00 0.  1.
        -13    1    3    3    0    0  0.78360123876E+01 -0.60924075558E+03 -0.50796928434E+03  0.79326445476E+03  0.00000000000E+00 0. -1.
         22    1    1    2    0    0 -0.45578890110E+02  0.77812902594E+03  0.18092602649E+02  0.77967272526E+03  0.00000000000E+00 0. -1.
<mgrwt>
<rscale>  0 0.16995770E+04</rscale>
<asrwt>0</asrwt>
<pdfrwt beam="1">  1        2 0.19327390E+00 0.16995770E+04</pdfrwt>
<pdfrwt beam="2">  1       -2 0.88434506E-01 0.16995770E+04</pdfrwt>
<totfact> 0.18366679E+01</totfact>
</mgrwt>
</event>
<event>
 6    1  0.1817112E-005  0.1705434E+04  0.7818608E-02  0.8758271E-01
          2   -1    0    0  501    0  0.00000000000E+00  0.00000000000E+00  0.11674155768E+04  0.11674155768E+04  0.00000000000E+00 0. -1.
         -2   -1    0    0    0  501 -0.00000000000E+00 -0.00000000000E+00 -0.62285136902E+03  0.62285136902E+03  0.00000000000E+00 0.  1.
         23    2    1    2    0    0  0.19103229061E+03 -0.80334407895E+03  0.48564025457E+03  0.96242210681E+03  0.92492213599E+02 0.  0.
         11    1    3    3    0    0  0.11324560863E+02 -0.69162664966E+02  0.73287774885E+02  0.10140422995E+03  0.00000000000E+00 0.  1.
        -11    1    3    3    0    0  0.17970772975E+03 -0.73418141398E+03  0.41235247968E+03  0.86101787686E+03  0.00000000000E+00 0. -1.
         22    1    1    2    0    0 -0.19103229061E+03  0.80334407895E+03  0.58923953220E+02  0.82784483903E+03  0.00000000000E+00 0.  1.
<mgrwt>
<rscale>  0 0.17054341E+04</rscale>
<asrwt>0</asrwt>
<pdfrwt beam="1">  1        2 0.17960240E+00 0.17054341E+04</pdfrwt>
<pdfrwt beam="2">  1       -2 0.95823288E-01 0.17054341E+04</pdfrwt>
<totfact> 0.17217227E+01</totfact>
</mgrwt>
</event>
<event>
 6    1  0.1817112E-005  0.1822012E+04  0.7818608E-02  0.8694681E-01
          2   -1    0    0  501    0  0.00000000000E+00  0.00000000000E+00  0.81680161135E+03  0.81680161135E+03  0.00000000000E+00 0. -1.
         -2   -1    0    0    0  501 -0.00000000000E+00 -0.00000000000E+00 -0.10160751441E+04  0.10160751441E+04  0.00000000000E+00 0.  1.
         23    2    1    2    0    0  0.25452038101E+02  0.40114735763E+03 -0.92000633430E+03  0.10076357119E+04  0.85738345789E+02 0.  0.
         11    1    3    3    0    0 -0.40710424736E+01  0.10396853209E+03 -0.15784034354E+03  0.18904920815E+03  0.00000000000E+00 0. -1.
        -11    1    3    3    0    0  0.29523080574E+02  0.29717882555E+03 -0.76216599076E+03  0.81858650374E+03  0.00000000000E+00 0.  1.
         22    1    1    2    0    0 -0.25452038101E+02 -0.40114735763E+03  0.72073280154E+03  0.82524104357E+03  0.00000000000E+00 0. -1.
<mgrwt>
<rscale>  0 0.18220119E+04</rscale>
<asrwt>0</asrwt>
<pdfrwt beam="1">  1        2 0.12566179E+00 0.18220119E+04</pdfrwt>
<pdfrwt beam="2">  1       -2 0.15631925E+00 0.18220119E+04</pdfrwt>
<totfact> 0.84677874E+00</totfact>
</mgrwt>
</event>
<event>
 6    1  0.1817112E-005  0.3678762E+04  0.7818608E-02  0.8072685E-01
          2   -1    0    0  501    0  0.00000000000E+00  0.00000000000E+00  0.26618047970E+04  0.26618047970E+04  0.00000000000E+00 0. -1.
         -2   -1    0    0    0  501 -0.00000000000E+00 -0.00000000000E+00 -0.12710635979E+04  0.12710635979E+04  0.00000000000E+00 0.  1.
         23    2    1    2    0    0 -0.19973184126E+03  0.59645676045E+03 -0.11507692704E+04  0.13146764725E+04  0.91928440110E+02 0.  0.
         13    1    3    3    0    0 -0.17502207844E+03  0.53409984812E+03 -0.10779236070E+04  0.12156540126E+04  0.00000000000E+00 0.  1.
        -13    1    3    3    0    0 -0.24709762828E+02  0.62356912335E+02 -0.72845663393E+02  0.99022459928E+02  0.00000000000E+00 0. -1.
         22    1    1    2    0    0  0.19973184126E+03 -0.59645676045E+03  0.25415104696E+04  0.26181919224E+04  0.00000000000E+00 0. -1.
<mgrwt>
<rscale>  0 0.36787624E+04</rscale>
<asrwt>0</asrwt>
<pdfrwt beam="1">  1        2 0.40950843E+00 0.36787624E+04</pdfrwt>
<pdfrwt beam="2">  1       -2 0.19554825E+00 0.36787624E+04</pdfrwt>
<totfact> 0.32240984E-01</totfact>
</mgrwt>
</event>
<event>
 6    1  0.1817112E-005  0.2024406E+04  0.7818608E-02  0.8595294E-01
          2   -1    0    0  501    0  0.00000000000E+00  0.00000000000E+00  0.39095295432E+04  0.39095295432E+04  0.00000000000E+00 0. -1.
         -2   -1    0    0    0  501 -0.00000000000E+00 -0.00000000000E+00 -0.26206610843E+03  0.26206610843E+03  0.00000000000E+00 0.  1.
         23    2    1    2    0    0 -0.31771465690E+03  0.90315700274E+03  0.24910737718E+04  0.26703054640E+04  0.91910607656E+02 0.  0.
         11    1    3    3    0    0 -0.20714886627E+03  0.46062803658E+03  0.12611185969E+04  0.13584951072E+04  0.00000000000E+00 0. -1.
        -11    1    3    3    0    0 -0.11056579063E+03  0.44252896616E+03  0.12299551749E+04  0.13118103568E+04  0.00000000000E+00 0.  1.
         22    1    1    2    0    0  0.31771465690E+03 -0.90315700274E+03  0.11563896629E+04  0.15012901876E+04  0.00000000000E+00 0. -1.
<mgrwt>
<rscale>  0 0.20244063E+04</rscale>
<asrwt>0</asrwt>
<pdfrwt beam="1">  1        2 0.60146604E+00 0.20244063E+04</pdfrwt>
<pdfrwt beam="2">  1       -2 0.40317866E-01 0.20244063E+04</pdfrwt>
<totfact> 0.22015992E+00</totfact>
</mgrwt>
</event>
<event>
 6    1  0.1817112E-005  0.1914006E+04  0.7818608E-02  0.8647916E-01
          2   -1    0    0  501    0  0.00000000000E+00  0.00000000000E+00  0.56961571765E+03  0.56961571765E+03  0.00000000000E+00 0. -1.
         -2   -1    0    0    0  501 -0.00000000000E+00 -0.00000000000E+00 -0.16078466817E+04  0.16078466817E+04  0.00000000000E+00 0.  1.
         23    2    1    2    0    0 -0.66827996586E+03  0.11971712322E+03  0.24393300733E+03  0.72664375049E+03  0.87048984506E+02 0.  0.
         11    1    3    3    0    0 -0.46822095928E+03  0.12181631174E+03  0.18630390777E+03  0.51843922167E+03  0.00000000000E+00 0.  1.
        -11    1    3    3    0    0 -0.20005900658E+03 -0.20991885208E+01  0.57629099553E+02  0.20820452882E+03  0.00000000000E+00 0. -1.
         22    1    1    2    0    0  0.66827996586E+03 -0.11971712322E+03 -0.12821639714E+04  0.14508186488E+04  0.00000000000E+00 0. -1.
<mgrwt>
<rscale>  0 0.19140060E+04</rscale>
<asrwt>0</asrwt>
<pdfrwt beam="1">  1        2 0.87633189E-01 0.19140060E+04</pdfrwt>
<pdfrwt beam="2">  1       -2 0.24736102E+00 0.19140060E+04</pdfrwt>
<totfact> 0.32945826E+00</totfact>
</mgrwt>
</event>
<event>
 6    1  0.1817112E-005  0.2100062E+04  0.7818608E-02  0.8561216E-01
         -2   -1    0    0    0  501 -0.00000000000E+00  0.00000000000E+00  0.13625708546E+04  0.13625708546E+04  0.00000000000E+00 0.  1.
          2   -1    0    0  501    0  0.00000000000E+00 -0.00000000000E+00 -0.80917990847E+03  0.80917990847E+03  0.00000000000E+00 0. -1.
         23    2    1    2    0    0  0.32352123304E+03 -0.33521192904E+03 -0.69364606080E+03  0.84053540775E+03  0.91224384989E+02 0.  0.
         13    1    3    3    0    0  0.74890772134E+02 -0.37876357267E+02 -0.16392160619E+03  0.18415629006E+03  0.00000000000E+00 0.  1.
        -13    1    3    3    0    0  0.24863046090E+03 -0.29733557178E+03 -0.52972445461E+03  0.65637911769E+03  0.00000000000E+00 0. -1.
         22    1    1    2    0    0 -0.32352123304E+03  0.33521192904E+03  0.12470370069E+04  0.13312153553E+04  0.00000000000E+00 0.  1.
<mgrwt>
<rscale>  0 0.21000619E+04</rscale>
<asrwt>0</asrwt>
<pdfrwt beam="1">  1        2 0.12448922E+00 0.21000619E+04</pdfrwt>
<pdfrwt beam="2">  1       -2 0.20962629E+00 0.21000619E+04</pdfrwt>
<totfact> 0.35981872E+00</totfact>
</mgrwt>
</event>
<event>
 6    1  0.1817112E-005  0.7053676E+03  0.7818608E-02  0.9708097E-01
         -2   -1    0    0    0  501 -0.00000000000E+00  0.00000000000E+00  0.74359598273E+02  0.74359598273E+02  0.00000000000E+00 0.  1.
          2   -1    0    0  501    0  0.00000000000E+00 -0.00000000000E+00 -0.16727611623E+04  0.16727611623E+04  0.00000000000E+00 0. -1.
         23    2    1    2    0    0 -0.31970468707E+03  0.70624657248E+02 -0.10913654152E+04  0.11435608337E+04  0.97231587691E+02 0.  0.
         13    1    3    3    0    0 -0.29677920203E+03  0.57142801469E+02 -0.87837792445E+03  0.92891924981E+03  0.00000000000E+00 0. -1.
        -13    1    3    3    0    0 -0.22925485044E+02  0.13481855779E+02 -0.21298749080E+03  0.21464158389E+03  0.00000000000E+00 0.  1.
         22    1    1    2    0    0  0.31970468707E+03 -0.70624657248E+02 -0.50703614878E+03  0.60355992687E+03  0.00000000000E+00 0.  1.
<mgrwt>
<rscale>  0 0.70536756E+03</rscale>
<asrwt>0</asrwt>
<pdfrwt beam="1">  1        2 0.25734787E+00 0.70536756E+03</pdfrwt>
<pdfrwt beam="2">  1       -2 0.11439938E-01 0.70536756E+03</pdfrwt>
<totfact> 0.56960878E+02</totfact>
</mgrwt>
</event>
<event>
 6    1  0.1817112E-005  0.1131452E+04  0.7818608E-02  0.9175067E-01
          2   -1    0    0  501    0  0.00000000000E+00  0.00000000000E+00  0.85284515028E+03  0.85284515028E+03  0.00000000000E+00 0.  1.
         -2   -1    0    0    0  501 -0.00000000000E+00 -0.00000000000E+00 -0.37526869937E+03  0.37526869937E+03  0.00000000000E+00 0. -1.
         23    2    1    2    0    0  0.80256962878E+02 -0.49953313867E+03  0.50608494217E+03  0.72137203097E+03  0.91000558537E+02 0.  0.
         13    1    3    3    0    0  0.90197070535E+02 -0.27931597347E+03  0.29599387240E+03  0.41685164876E+03  0.00000000000E+00 0.  1.
        -13    1    3    3    0    0 -0.99401076576E+01 -0.22021716520E+03  0.21009106977E+03  0.30452038222E+03  0.00000000000E+00 0. -1.
         22    1    1    2    0    0 -0.80256962878E+02  0.49953313867E+03 -0.28508491254E+02  0.50674181868E+03  0.00000000000E+00 0. -1.
<mgrwt>
<rscale>  0 0.11314523E+04</rscale>
<asrwt>0</asrwt>
<pdfrwt beam="1">  1        2 0.13120695E+00 0.11314523E+04</pdfrwt>
<pdfrwt beam="2">  1       -2 0.57733646E-01 0.11314523E+04</pdfrwt>
<totfact> 0.87968388E+01</totfact>
</mgrwt>
</event>
<event>
 6    1  0.1817112E-005  0.2699792E+04  0.7818608E-02  0.8335072E-01
         -2   -1    0    0    0  501 -0.00000000000E+00  0.00000000000E+00  0.24458900606E+04  0.24458900606E+04  0.00000000000E+00 0.  1.
          2   -1    0    0  501    0  0.00000000000E+00 -0.00000000000E+00 -0.74501295420E+03  0.74501295420E+03  0.00000000000E+00 0. -1.
         23    2    1    2    0    0  0.50684537422E+03 -0.11609912111E+04  0.30558735670E+03  0.13063271179E+04  0.91181581699E+02 0.  0.
         13    1    3    3    0    0  0.85475441123E+02 -0.16073416197E+03  0.14727428719E+02  0.18264287289E+03  0.00000000000E+00 0. -1.
        -13    1    3    3    0    0  0.42136993310E+03 -0.10002570491E+04  0.29085992798E+03  0.11236842450E+04  0.00000000000E+00 0.  1.
         22    1    1    2    0    0 -0.50684537422E+03  0.11609912111E+04  0.13952897497E+04  0.18845758969E+04  0.00000000000E+00 0. -1.
<mgrwt>
<rscale>  0 0.26997924E+04</rscale>
<asrwt>0</asrwt>
<pdfrwt beam="1">  1        2 0.11461738E+00 0.26997924E+04</pdfrwt>
<pdfrwt beam="2">  1       -2 0.37629078E+00 0.26997924E+04</pdfrwt>
<totfact> 0.35105806E-01</totfact>
</mgrwt>
</event>
<event>
 6    1  0.1817112E-005  0.1415773E+04  0.7818608E-02  0.8942480E-01
          2   -1    0    0  501    0  0.00000000000E+00  0.00000000000E+00  0.18065122931E+04  0.18065122931E+04  0.00000000000E+00 0. -1.
         -2   -1    0    0    0  501 -0.00000000000E+00 -0.00000000000E+00 -0.27738713675E+03  0.27738713675E+03  0.00000000000E+00 0.  1.
         23    2    1    2    0    0 -0.10672851609E+02 -0.55851891016E+03  0.14007256619E+04  0.15107121019E+04  0.90340423651E+02 0.  0.
         11    1    3    3    0    0 -0.31754676584E+02 -0.38664131267E+03  0.10544876251E+04  0.11235853398E+04  0.00000000000E+00 0.  1.
        -11    1    3    3    0    0  0.21081824975E+02 -0.17187759749E+03  0.34623803674E+03  0.38712676212E+03  0.00000000000E+00 0. -1.
         22    1    1    2    0    0  0.10672851609E+02  0.55851891016E+03  0.12839949446E+03  0.57318732797E+03  0.00000000000E+00 0.  1.
<mgrwt>
<rscale>  0 0.14157730E+04</rscale>
<asrwt>0</asrwt>
<pdfrwt beam="1">  1        2 0.27792496E+00 0.14157730E+04</pdfrwt>
<pdfrwt beam="2">  1       -2 0.42674945E-01 0.14157730E+04</pdfrwt>
<totfact> 0.43308147E+01</totfact>
</mgrwt>
</event>
<event>
 6    1  0.1817112E-005  0.5213910E+04  0.7818608E-02  0.7796331E-01
          2   -1    0    0  501    0  0.00000000000E+00  0.00000000000E+00  0.31419784075E+04  0.31419784075E+04  0.00000000000E+00 0. -1.
         -2   -1    0    0    0  501 -0.00000000000E+00 -0.00000000000E+00 -0.21630364644E+04  0.21630364644E+04  0.00000000000E+00 0.  1.
         23    2    1    2    0    0  0.19128945825E+03  0.36900784357E+03  0.31073698297E+04  0.31363831111E+04  0.91615039470E+02 0.  0.
         13    1    3    3    0    0  0.18976437524E+03  0.30190353176E+03  0.27143580260E+04  0.27376807254E+04  0.00000000000E+00 0. -1.
        -13    1    3    3    0    0  0.15250830052E+01  0.67104311812E+02  0.39301180370E+03  0.39870238573E+03  0.00000000000E+00 0.  1.
         22    1    1    2    0    0 -0.19128945825E+03 -0.36900784357E+03 -0.21284278866E+04  0.21686317608E+04  0.00000000000E+00 0.  1.
<mgrwt>
<rscale>  0 0.52139098E+04</rscale>
<asrwt>0</asrwt>
<pdfrwt beam="1">  1        2 0.48338129E+00 0.52139098E+04</pdfrwt>
<pdfrwt beam="2">  1       -2 0.33277484E+00 0.52139098E+04</pdfrwt>
<totfact> 0.20179557E-02</totfact>
</mgrwt>
</event>
<event>
 6    1  0.1817112E-005  0.3127591E+04  0.7818608E-02  0.8208206E-01
          1   -1    0    0  501    0  0.00000000000E+00  0.00000000000E+00  0.16057168665E+04  0.16057168665E+04  0.00000000000E+00 0. -1.
         -1   -1    0    0    0  501 -0.00000000000E+00 -0.00000000000E+00 -0.15229684134E+04  0.15229684134E+04  0.00000000000E+00 0.  1.
         23    2    1    2    0    0  0.84106834882E+03  0.13117375742E+04 -0.73585998550E+02  0.15626418924E+04  0.91560655947E+02 0.  0.
         11    1    3    3    0    0  0.50161728650E+03  0.85849112376E+03 -0.62635422075E+02  0.99626809032E+03  0.00000000000E+00 0. -1.
        -11    1    3    3    0    0  0.33945106232E+03  0.45324645041E+03 -0.10950576475E+02  0.56637380205E+03  0.00000000000E+00 0.  1.
         22    1    1    2    0    0 -0.84106834882E+03 -0.13117375742E+04  0.15633445157E+03  0.15660433875E+04  0.00000000000E+00 0. -1.
<mgrwt>
<rscale>  0 0.31275908E+04</rscale>
<asrwt>0</asrwt>
<pdfrwt beam="1">  1        1 0.24703336E+00 0.31275908E+04</pdfrwt>
<pdfrwt beam="2">  1       -1 0.23430283E+00 0.31275908E+04</pdfrwt>
<totfact> 0.41152576E-01</totfact>
</mgrwt>
</event>
<event>
 6    1  0.2505720E-005  0.2802581E+04  0.7818608E-02  0.8302468E-01
         -2   -1    0    0    0  501 -0.00000000000E+00  0.00000000000E+00  0.65102887745E+03  0.65102887745E+03  0.00000000000E+00 0.  1.
          2   -1    0    0  501    0  0.00000000000E+00 -0.00000000000E+00 -0.30161710688E+04  0.30161710688E+04  0.00000000000E+00 0. -1.
         23    2    1    2    0    0  0.10744330223E+03  0.51261750023E+03  0.51475200088E+03  0.74006631022E+03  0.91693818659E+02 0.  0.
         13    1    3    3    0    0  0.49695195046E+02  0.27650980130E+03  0.21279580436E+03  0.35243345042E+03  0.00000000000E+00 0. -1.
        -13    1    3    3    0    0  0.57748107181E+02  0.23610769893E+03  0.30195619653E+03  0.38763285980E+03  0.00000000000E+00 0.  1.
         22    1    1    2    0    0 -0.10744330223E+03 -0.51261750023E+03 -0.28798941922E+04  0.29271336360E+04  0.00000000000E+00 0. -1.
<mgrwt>
<rscale>  0 0.28025806E+04</rscale>
<asrwt>0</asrwt>
<pdfrwt beam="1">  1        2 0.46402632E+00 0.28025806E+04</pdfrwt>
<pdfrwt beam="2">  1       -2 0.10015829E+00 0.28025806E+04</pdfrwt>
<totfact> 0.12171919E+00</totfact>
</mgrwt>
</event>
<event>
 6    1  0.1817112E-005  0.2920291E+04  0.7818608E-02  0.8266866E-01
          2   -1    0    0  501    0  0.00000000000E+00  0.00000000000E+00  0.18553640267E+04  0.18553640267E+04  0.00000000000E+00 0.  1.
         -2   -1    0    0    0  501 -0.00000000000E+00 -0.00000000000E+00 -0.11491142595E+04  0.11491142595E+04  0.00000000000E+00 0. -1.
         23    2    1    2    0    0  0.43212869707E+03  0.74957614703E+03  0.15618548591E+04  0.17876546817E+04  0.87858118268E+02 0.  0.
         11    1    3    3    0    0  0.79805812970E+02  0.14699091911E+03  0.37770527535E+03  0.41308179954E+03  0.00000000000E+00 0.  1.
        -11    1    3    3    0    0  0.35232288410E+03  0.60258522792E+03  0.11841495838E+04  0.13745728821E+04  0.00000000000E+00 0. -1.
         22    1    1    2    0    0 -0.43212869707E+03 -0.74957614703E+03 -0.85560509195E+03  0.12168236045E+04  0.00000000000E+00 0. -1.
<mgrwt>
<rscale>  0 0.29202913E+04</rscale>
<asrwt>0</asrwt>
<pdfrwt beam="1">  1        2 0.28544062E+00 0.29202913E+04</pdfrwt>
<pdfrwt beam="2">  1       -2 0.17678681E+00 0.29202913E+04</pdfrwt>
<totfact> 0.13224817E+00</totfact>
</mgrwt>
</event>
<event>
 6    1  0.1817112E-005  0.1774204E+04  0.7818608E-02  0.8720139E-01
          2   -1    0    0  501    0  0.00000000000E+00  0.00000000000E+00  0.25854696199E+04  0.25854696199E+04  0.00000000000E+00 0. -1.
         -2   -1    0    0    0  501 -0.00000000000E+00 -0.00000000000E+00 -0.30437423061E+03  0.30437423061E+03  0.00000000000E+00 0.  1.
         23    2    1    2    0    0  0.29638199587E+03 -0.57734911284E+03  0.21230589233E+04  0.22218993842E+04  0.91013163412E+02 0.  0.
         13    1    3    3    0    0  0.15786679710E+03 -0.34617355122E+03  0.11000360693E+04  0.11639748309E+04  0.00000000000E+00 0. -1.
        -13    1    3    3    0    0  0.13851519877E+03 -0.23117556162E+03  0.10230228540E+04  0.10579245533E+04  0.00000000000E+00 0.  1.
         22    1    1    2    0    0 -0.29638199587E+03  0.57734911284E+03  0.15803646601E+03  0.66794446638E+03  0.00000000000E+00 0. -1.
<mgrwt>
<rscale>  0 0.17742044E+04</rscale>
<asrwt>0</asrwt>
<pdfrwt beam="1">  1        2 0.39776454E+00 0.17742044E+04</pdfrwt>
<pdfrwt beam="2">  1       -2 0.46826806E-01 0.17742044E+04</pdfrwt>
<totfact> 0.12713914E+01</totfact>
</mgrwt>
</event>
<event>
 6    1  0.2622104E-005  0.3634833E+04  0.7818608E-02  0.8082559E-01
         -2   -1    0    0    0  501 -0.00000000000E+00  0.00000000000E+00  0.13766419652E+04  0.13766419652E+04  0.00000000000E+00 0.  1.
          2   -1    0    0  501    0  0.00000000000E+00 -0.00000000000E+00 -0.23993189515E+04  0.23993189515E+04  0.00000000000E+00 0. -1.
         23    2    1    2    0    0 -0.93056735566E+03  0.71151744986E+03 -0.19535697599E+04  0.22797075823E+04  0.91756030639E+02 0.  0.
         13    1    3    3    0    0 -0.43440945234E+03  0.35270705973E+03 -0.84997281326E+03  0.10176284320E+04  0.00000000000E+00 0.  1.
        -13    1    3    3    0    0 -0.49615790332E+03  0.35881039012E+03 -0.11035969466E+04  0.12620791503E+04  0.00000000000E+00 0. -1.
         22    1    1    2    0    0  0.93056735566E+03 -0.71151744986E+03  0.93089277351E+03  0.14962533344E+04  0.00000000000E+00 0.  1.
<mgrwt>
<rscale>  0 0.36348332E+04</rscale>
<asrwt>0</asrwt>
<pdfrwt beam="1">  1        2 0.36912599E+00 0.36348332E+04</pdfrwt>
<pdfrwt beam="2">  1       -2 0.21179107E+00 0.36348332E+04</pdfrwt>
<totfact> 0.36059903E-01</totfact>
</mgrwt>
</event>
<event>
 6    1  0.1817112E-005  0.6213529E+03  0.7818608E-02  0.9862070E-01
          1   -1    0    0  501    0  0.00000000000E+00  0.00000000000E+00  0.17078477441E+04  0.17078477441E+04  0.00000000000E+00 0. -1.
         -1   -1    0    0    0  501 -0.00000000000E+00 -0.00000000000E+00 -0.56515500483E+02  0.56515500483E+02  0.00000000000E+00 0.  1.
         23    2    1    2    0    0  0.94529235955E+02 -0.23400259646E+03  0.36101084092E+03  0.44959242278E+03  0.90064020343E+02 0.  0.
         11    1    3    3    0    0 -0.25677275221E+01 -0.11131546440E+03  0.15773774704E+03  0.19307750434E+03  0.00000000000E+00 0. -1.
        -11    1    3    3    0    0  0.97096963477E+02 -0.12268713206E+03  0.20327309387E+03  0.25651491844E+03  0.00000000000E+00 0.  1.
         22    1    1    2    0    0 -0.94529235955E+02  0.23400259646E+03  0.12903214027E+04  0.13147708218E+04  0.00000000000E+00 0. -1.
<mgrwt>
<rscale>  0 0.62135294E+03</rscale>
<asrwt>0</asrwt>
<pdfrwt beam="1">  1        1 0.26274577E+00 0.62135294E+03</pdfrwt>
<pdfrwt beam="2">  1       -1 0.86946937E-02 0.62135294E+03</pdfrwt>
<totfact> 0.38201528E+02</totfact>
</mgrwt>
</event>
<event>
 6    1  0.1817112E-005  0.2064077E+04  0.7818608E-02  0.8577235E-01
         -2   -1    0    0    0  501 -0.00000000000E+00  0.00000000000E+00  0.70697619903E+03  0.70697619903E+03  0.00000000000E+00 0.  1.
          2   -1    0    0  501    0  0.00000000000E+00 -0.00000000000E+00 -0.15065622890E+04  0.15065622890E+04  0.00000000000E+00 0. -1.
         23    2    1    2    0    0  0.78145007954E+03 -0.38485135421E+03 -0.99010685840E+03  0.13218698530E+04  0.90848915449E+02 0.  0.
         11    1    3    3    0    0  0.23943423504E+03 -0.15053530885E+03 -0.27508349653E+03  0.39453841661E+03  0.00000000000E+00 0.  1.
        -11    1    3    3    0    0  0.54201584450E+03 -0.23431604537E+03 -0.71502336187E+03  0.92733143634E+03  0.00000000000E+00 0. -1.
         22    1    1    2    0    0 -0.78145007954E+03  0.38485135421E+03  0.19052076839E+03  0.89166863511E+03  0.00000000000E+00 0.  1.
<mgrwt>
<rscale>  0 0.20640772E+04</rscale>
<asrwt>0</asrwt>
<pdfrwt beam="1">  1        2 0.23177881E+00 0.20640772E+04</pdfrwt>
<pdfrwt beam="2">  1       -2 0.10876557E+00 0.20640772E+04</pdfrwt>
<totfact> 0.78555715E+00</totfact>
</mgrwt>
</event>
<event>
 6    1  0.1817112E-005  0.1918912E+04  0.7818608E-02  0.8645499E-01
          2   -1    0    0  501    0  0.00000000000E+00  0.00000000000E+00  0.12279903783E+04  0.12279903783E+04  0.00000000000E+00 0. -1.
         -2   -1    0    0    0  501 -0.00000000000E+00 -0.00000000000E+00 -0.74964444746E+03  0.74964444746E+03  0.00000000000E+00 0.  1.
         23    2    1    2    0    0  0.62405531096E+03  0.28401567382E+02 -0.50786842844E+03  0.81021440336E+03  0.90914017854E+02 0.  0.
         13    1    3    3    0    0  0.91224296543E+02 -0.26714795987E+02 -0.64715350917E+02  0.11499404006E+03  0.00000000000E+00 0.  1.
        -13    1    3    3    0    0  0.53283101442E+03  0.55116363369E+02 -0.44315307752E+03  0.69522036331E+03  0.00000000000E+00 0. -1.
         22    1    1    2    0    0 -0.62405531096E+03 -0.28401567382E+02  0.98621435924E+03  0.11674204224E+04  0.00000000000E+00 0. -1.
<mgrwt>
<rscale>  0 0.19189124E+04</rscale>
<asrwt>0</asrwt>
<pdfrwt beam="1">  1        2 0.18892160E+00 0.19189124E+04</pdfrwt>
<pdfrwt beam="2">  1       -2 0.11532991E+00 0.19189124E+04</pdfrwt>
<totfact> 0.99819628E+00</totfact>
</mgrwt>
</event>
<event>
 6    1  0.1817112E-005  0.7938794E+03  0.7818608E-02  0.9568919E-01
         -2   -1    0    0    0  501 -0.00000000000E+00  0.00000000000E+00  0.13852394915E+03  0.13852394915E+03  0.00000000000E+00 0.  1.
          2   -1    0    0  501    0  0.00000000000E+00 -0.00000000000E+00 -0.11374286415E+04  0.11374286415E+04  0.00000000000E+00 0. -1.
         23    2    1    2    0    0 -0.21064919244E+03  0.29710723014E+03 -0.73710483178E+03  0.82741613117E+03  0.92995336484E+02 0.  0.
         11    1    3    3    0    0 -0.13163393904E+03  0.13951839270E+03 -0.29975572426E+03  0.35587409295E+03  0.00000000000E+00 0. -1.
        -11    1    3    3    0    0 -0.79015253400E+02  0.15758883744E+03 -0.43734910753E+03  0.47154203822E+03  0.00000000000E+00 0.  1.
         22    1    1    2    0    0  0.21064919244E+03 -0.29710723014E+03 -0.26179986054E+03  0.44853645945E+03  0.00000000000E+00 0.  1.
<mgrwt>
<rscale>  0 0.79387935E+03</rscale>
<asrwt>0</asrwt>
<pdfrwt beam="1">  1        2 0.17498903E+00 0.79387935E+03</pdfrwt>
<pdfrwt beam="2">  1       -2 0.21311376E-01 0.79387935E+03</pdfrwt>
<totfact> 0.39646907E+02</totfact>
</mgrwt>
</event>
<event>
 6    1  0.1817112E-005  0.2368672E+04  0.7818608E-02  0.8451326E-01
          2   -1    0    0  501    0  0.00000000000E+00  0.00000000000E+00  0.37244554377E+04  0.37244554377E+04  0.00000000000E+00 0. -1.
         -2   -1    0    0    0  501 -0.00000000000E+00 -0.00000000000E+00 -0.37660602225E+03  0.37660602225E+03  0.00000000000E+00 0.  1.
         23    2    1    2    0    0 -0.26892786490E+03 -0.10311420380E+04  0.78898659363E+03  0.13291749111E+04  0.92897795225E+02 0.  0.
         11    1    3    3    0    0 -0.13182831366E+03 -0.67742156912E+03  0.49723711287E+03  0.85060180637E+03  0.00000000000E+00 0.  1.
        -11    1    3    3    0    0 -0.13709955125E+03 -0.35372046884E+03  0.29174948076E+03  0.47857310471E+03  0.00000000000E+00 0. -1.
         22    1    1    2    0    0  0.26892786490E+03  0.10311420380E+04  0.25588628218E+04  0.27718865489E+04  0.00000000000E+00 0. -1.
<mgrwt>
<rscale>  0 0.23686725E+04</rscale>
<asrwt>0</asrwt>
<pdfrwt beam="1">  1        2 0.57299312E+00 0.23686725E+04</pdfrwt>
<pdfrwt beam="2">  1       -2 0.57939391E-01 0.23686725E+04</pdfrwt>
<totfact> 0.14117872E+00</totfact>
</mgrwt>
</event>
<event>
 6    1  0.1817112E-005  0.8363690E+03  0.7818608E-02  0.9508817E-01
          2   -1    0    0  501    0  0.00000000000E+00  0.00000000000E+00  0.37050421341E+03  0.37050421341E+03  0.00000000000E+00 0. -1.
         -2   -1    0    0    0  501 -0.00000000000E+00 -0.00000000000E+00 -0.47200072268E+03  0.47200072268E+03  0.00000000000E+00 0.  1.
         23    2    1    2    0    0 -0.17930957017E+02  0.17866135989E+03 -0.42616068988E+03  0.47149519106E+03  0.91942269175E+02 0.  0.
         13    1    3    3    0    0  0.30520308448E+02  0.12645968150E+03 -0.28962721129E+03  0.31750190833E+03  0.00000000000E+00 0.  1.
        -13    1    3    3    0    0 -0.48451265465E+02  0.52201678388E+02 -0.13653347859E+03  0.15399328273E+03  0.00000000000E+00 0. -1.
         22    1    1    2    0    0  0.17930957017E+02 -0.17866135989E+03  0.32466418060E+03  0.37100974502E+03  0.00000000000E+00 0. -1.
<mgrwt>
<rscale>  0 0.83636895E+03</rscale>
<asrwt>0</asrwt>
<pdfrwt beam="1">  1        2 0.57000648E-01 0.83636895E+03</pdfrwt>
<pdfrwt beam="2">  1       -2 0.72615496E-01 0.83636895E+03</pdfrwt>
<totfact> 0.14964863E+02</totfact>
</mgrwt>
</event>
<event>
 6    1  0.1817112E-005  0.1426994E+04  0.7818608E-02  0.8934507E-01
         -2   -1    0    0    0  501 -0.00000000000E+00  0.00000000000E+00  0.14877590898E+04  0.14877590898E+04  0.00000000000E+00 0.  1.
          2   -1    0    0  501    0  0.00000000000E+00 -0.00000000000E+00 -0.34217766818E+03  0.34217766818E+03  0.00000000000E+00 0. -1.
         23    2    1    2    0    0 -0.92789405923E+02 -0.22750935640E+03 -0.28031165850E+03  0.38302920839E+03  0.88126996365E+02 0.  0.
         11    1    3    3    0    0 -0.75665507562E+02 -0.11248329217E+03 -0.20032341727E+03  0.24188268139E+03  0.00000000000E+00 0. -1.
        -11    1    3    3    0    0 -0.17123898360E+02 -0.11502606424E+03 -0.79988241231E+02  0.14114652700E+03  0.00000000000E+00 0.  1.
         22    1    1    2    0    0  0.92789405923E+02  0.22750935640E+03  0.14258930801E+04  0.14469075495E+04  0.00000000000E+00 0.  1.
<mgrwt>
<rscale>  0 0.14269940E+04</rscale>
<asrwt>0</asrwt>
<pdfrwt beam="1">  1        2 0.52642719E-01 0.14269940E+04</pdfrwt>
<pdfrwt beam="2">  1       -2 0.22888601E+00 0.14269940E+04</pdfrwt>
<totfact> 0.79986079E+00</totfact>
</mgrwt>
</event>
<event>
 6    1  0.1817112E-005  0.2829106E+04  0.7818608E-02  0.8294289E-01
          2   -1    0    0  501    0  0.00000000000E+00  0.00000000000E+00  0.21490181795E+04  0.21490181795E+04  0.00000000000E+00 0. -1.
         -2   -1    0    0    0  501 -0.00000000000E+00 -0.00000000000E+00 -0.93110405253E+03  0.93110405253E+03  0.00000000000E+00 0.  1.
         23    2    1    2    0    0  0.13431212791E+04 -0.43863308961E+03  0.60989301067E+03  0.15419208683E+04  0.95795208661E+02 0.  0.
         11    1    3    3    0    0  0.11103753128E+03 -0.94538355399E+01  0.44818787055E+02  0.12011424575E+03  0.00000000000E+00 0. -1.
        -11    1    3    3    0    0  0.12320837478E+04 -0.42917925407E+03  0.56507422362E+03  0.14218066225E+04  0.00000000000E+00 0.  1.
         22    1    1    2    0    0 -0.13431212791E+04  0.43863308961E+03  0.60802111629E+03  0.15382013637E+04  0.00000000000E+00 0.  1.
<mgrwt>
<rscale>  0 0.28291055E+04</rscale>
<asrwt>0</asrwt>
<pdfrwt beam="1">  1        2 0.33061818E+00 0.28291055E+04</pdfrwt>
<pdfrwt beam="2">  1       -2 0.14324678E+00 0.28291055E+04</pdfrwt>
<totfact> 0.16198747E+00</totfact>
</mgrwt>
</event>
<event>
 6    1  0.1817112E-005  0.1014693E+04  0.7818608E-02  0.9292575E-01
          1   -1    0    0  501    0  0.00000000000E+00  0.00000000000E+00  0.26867075689E+03  0.26867075689E+03  0.00000000000E+00 0.  1.
         -1   -1    0    0    0  501 -0.00000000000E+00 -0.00000000000E+00 -0.95805218125E+03  0.95805218125E+03  0.00000000000E+00 0. -1.
         23    2    1    2    0    0  0.35055365119E+03  0.36007478835E+03 -0.38814004400E+03  0.64081502319E+03  0.86310396939E+02 0.  0.
         13    1    3    3    0    0  0.13058597357E+03  0.77719426607E+02 -0.11690573774E+03  0.19172886398E+03  0.00000000000E+00 0. -1.
        -13    1    3    3    0    0  0.21996767762E+03  0.28235536174E+03 -0.27123430626E+03  0.44908615921E+03  0.00000000000E+00 0.  1.
         22    1    1    2    0    0 -0.35055365119E+03 -0.36007478835E+03 -0.30124138035E+03  0.58590791495E+03  0.00000000000E+00 0.  1.
<mgrwt>
<rscale>  0 0.10146933E+04</rscale>
<asrwt>0</asrwt>
<pdfrwt beam="1">  1        1 0.41333962E-01 0.10146933E+04</pdfrwt>
<pdfrwt beam="2">  1       -1 0.14739265E+00 0.10146933E+04</pdfrwt>
<totfact> 0.37106210E+01</totfact>
</mgrwt>
</event>
<event>
 6    1  0.1817112E-005  0.3390640E+04  0.7818608E-02  0.8140207E-01
         -2   -1    0    0    0  501 -0.00000000000E+00  0.00000000000E+00  0.93663619107E+03  0.93663619107E+03  0.00000000000E+00 0.  1.
          2   -1    0    0  501    0  0.00000000000E+00 -0.00000000000E+00 -0.30685445864E+04  0.30685445864E+04  0.00000000000E+00 0. -1.
         23    2    1    2    0    0  0.49984820070E+03 -0.11509394799E+04 -0.24113736408E+04  0.27196416946E+04  0.84959996039E+02 0.  0.
         13    1    3    3    0    0  0.33454461768E+03 -0.66967949921E+03 -0.14602835229E+04  0.16409810176E+04  0.00000000000E+00 0. -1.
        -13    1    3    3    0    0  0.16530358302E+03 -0.48125998071E+03 -0.95109011793E+03  0.10786606770E+04  0.00000000000E+00 0.  1.
         22    1    1    2    0    0 -0.49984820070E+03  0.11509394799E+04  0.27946524552E+03  0.12855390829E+04  0.00000000000E+00 0.  1.
<mgrwt>
<rscale>  0 0.33906400E+04</rscale>
<asrwt>0</asrwt>
<pdfrwt beam="1">  1        2 0.47208378E+00 0.33906400E+04</pdfrwt>
<pdfrwt beam="2">  1       -2 0.14409787E+00 0.33906400E+04</pdfrwt>
<totfact> 0.43485659E-01</totfact>
</mgrwt>
</event>
<event>
 6    1  0.2225731E-005  0.2250787E+04  0.7818608E-02  0.8497582E-01
         -2   -1    0    0    0  501 -0.00000000000E+00  0.00000000000E+00  0.79886461895E+03  0.79886461895E+03  0.00000000000E+00 0.  1.
          2   -1    0    0  501    0  0.00000000000E+00 -0.00000000000E+00 -0.15853885355E+04  0.15853885355E+04  0.00000000000E+00 0. -1.
         23    2    1    2    0    0 -0.15121445650E+03 -0.32346519202E+03  0.73444345419E+03  0.82193523380E+03  0.93138600211E+02 0.  0.
         11    1    3    3    0    0 -0.16343787245E+03 -0.28902507613E+03  0.64901977884E+03  0.72902270617E+03  0.00000000000E+00 0. -1.
        -11    1    3    3    0    0  0.12223415947E+02 -0.34440115890E+02  0.85423675357E+02  0.92912527635E+02  0.00000000000E+00 0.  1.
         22    1    1    2    0    0  0.15121445650E+03  0.32346519202E+03 -0.15209673708E+04  0.15623179207E+04  0.00000000000E+00 0. -1.
<mgrwt>
<rscale>  0 0.22507872E+04</rscale>
<asrwt>0</asrwt>
<pdfrwt beam="1">  1        2 0.24390593E+00 0.22507872E+04</pdfrwt>
<pdfrwt beam="2">  1       -2 0.12290225E+00 0.22507872E+04</pdfrwt>
<totfact> 0.51756609E+00</totfact>
</mgrwt>
</event>
<event>
 6    1  0.1817112E-005  0.2396573E+04  0.7818608E-02  0.8440788E-01
          2   -1    0    0  501    0  0.00000000000E+00  0.00000000000E+00  0.18572868941E+04  0.18572868941E+04  0.00000000000E+00 0. -1.
         -2   -1    0    0    0  501 -0.00000000000E+00 -0.00000000000E+00 -0.77311200102E+03  0.77311200102E+03  0.00000000000E+00 0.  1.
         23    2    1    2    0    0  0.18701726460E+02 -0.94617452815E+03  0.13465576614E+04  0.16483394726E+04  0.90606230244E+02 0.  0.
         13    1    3    3    0    0 -0.33133913805E+01 -0.35716342337E+03  0.58352451716E+03  0.68416193382E+03  0.00000000000E+00 0. -1.
        -13    1    3    3    0    0  0.22015117840E+02 -0.58901110478E+03  0.76303314426E+03  0.96417753874E+03  0.00000000000E+00 0.  1.
         22    1    1    2    0    0 -0.18701726460E+02  0.94617452815E+03 -0.26238276835E+03  0.98205942255E+03  0.00000000000E+00 0.  1.
<mgrwt>
<rscale>  0 0.23965732E+04</rscale>
<asrwt>0</asrwt>
<pdfrwt beam="1">  1        2 0.28573644E+00 0.23965732E+04</pdfrwt>
<pdfrwt beam="2">  1       -2 0.11894031E+00 0.23965732E+04</pdfrwt>
<totfact> 0.39159584E+00</totfact>
</mgrwt>
</event>
<event>
 6    1  0.1817112E-005  0.1244178E+04  0.7818608E-02  0.9075043E-01
          2   -1    0    0  501    0  0.00000000000E+00  0.00000000000E+00  0.25520786567E+03  0.25520786567E+03  0.00000000000E+00 0. -1.
         -2   -1    0    0    0  501 -0.00000000000E+00 -0.00000000000E+00 -0.15163899667E+04  0.15163899667E+04  0.00000000000E+00 0.  1.
         23    2    1    2    0    0 -0.56173952855E+03  0.88726695574E+02 -0.28735256515E+03  0.64387105279E+03  0.92599737978E+02 0.  0.
         13    1    3    3    0    0 -0.47721122349E+03  0.42443745265E+02 -0.22689452935E+03  0.53010673527E+03  0.00000000000E+00 0. -1.
        -13    1    3    3    0    0 -0.84528305064E+02  0.46282950309E+02 -0.60458035796E+02  0.11376431751E+03  0.00000000000E+00 0.  1.
         22    1    1    2    0    0  0.56173952855E+03 -0.88726695574E+02 -0.97382953583E+03  0.11277267795E+04  0.00000000000E+00 0.  1.
<mgrwt>
<rscale>  0 0.12441779E+04</rscale>
<asrwt>0</asrwt>
<pdfrwt beam="1">  1        2 0.39262749E-01 0.12441779E+04</pdfrwt>
<pdfrwt beam="2">  1       -2 0.23329076E+00 0.12441779E+04</pdfrwt>
<totfact> 0.10562494E+01</totfact>
</mgrwt>
</event>
<event>
 6    1  0.1817112E-005  0.3917541E+04  0.7818608E-02  0.8021391E-01
         -2   -1    0    0    0  501 -0.00000000000E+00  0.00000000000E+00  0.20087884356E+04  0.20087884356E+04  0.00000000000E+00 0.  1.
          2   -1    0    0  501    0  0.00000000000E+00 -0.00000000000E+00 -0.19099977297E+04  0.19099977297E+04  0.00000000000E+00 0. -1.
         23    2    1    2    0    0 -0.16103071598E+04 -0.78535778176E+03 -0.74014535079E+03  0.19404814109E+04  0.88187137302E+02 0.  0.
         13    1    3    3    0    0 -0.54230083189E+03 -0.30588942958E+03 -0.23601421933E+03  0.66585377308E+03  0.00000000000E+00 0. -1.
        -13    1    3    3    0    0 -0.10680063279E+04 -0.47946835218E+03 -0.50413113145E+03  0.12746276378E+04  0.00000000000E+00 0.  1.
         22    1    1    2    0    0  0.16103071598E+04  0.78535778176E+03  0.83893605667E+03  0.19783047545E+04  0.00000000000E+00 0. -1.
<mgrwt>
<rscale>  0 0.39175407E+04</rscale>
<asrwt>0</asrwt>
<pdfrwt beam="1">  1        2 0.29384580E+00 0.39175407E+04</pdfrwt>
<pdfrwt beam="2">  1       -2 0.30904437E+00 0.39175407E+04</pdfrwt>
<totfact> 0.16652653E-01</totfact>
</mgrwt>
</event>
<event>
 6    1  0.1817112E-005  0.4112437E+04  0.7818608E-02  0.7982241E-01
         -1   -1    0    0    0  501 -0.00000000000E+00  0.00000000000E+00  0.13095731526E+04  0.13095731526E+04  0.00000000000E+00 0.  1.
          1   -1    0    0  501    0  0.00000000000E+00 -0.00000000000E+00 -0.32285593374E+04  0.32285593374E+04  0.00000000000E+00 0. -1.
         23    2    1    2    0    0  0.72189045272E+03  0.19231345344E+04 -0.88346567932E+03  0.22377249217E+04  0.85609319854E+02 0.  0.
         13    1    3    3    0    0  0.24011826126E+03  0.74907162861E+03 -0.32076467480E+03  0.84950283153E+03  0.00000000000E+00 0. -1.
        -13    1    3    3    0    0  0.48177219145E+03  0.11740629057E+04 -0.56270100452E+03  0.13882220902E+04  0.00000000000E+00 0.  1.
         22    1    1    2    0    0 -0.72189045272E+03 -0.19231345344E+04 -0.10355205055E+04  0.23004075683E+04  0.00000000000E+00 0.  1.
<mgrwt>
<rscale>  0 0.41124371E+04</rscale>
<asrwt>0</asrwt>
<pdfrwt beam="1">  1        1 0.49670143E+00 0.41124371E+04</pdfrwt>
<pdfrwt beam="2">  1       -1 0.20147279E+00 0.41124371E+04</pdfrwt>
<totfact> 0.46086767E-02</totfact>
</mgrwt>
</event>
<event>
 6    1  0.1817112E-005  0.2110503E+04  0.7818608E-02  0.8556631E-01
         -2   -1    0    0    0  501 -0.00000000000E+00  0.00000000000E+00  0.44178883292E+03  0.44178883292E+03  0.00000000000E+00 0.  1.
          2   -1    0    0  501    0  0.00000000000E+00 -0.00000000000E+00 -0.25205619068E+04  0.25205619068E+04  0.00000000000E+00 0. -1.
         23    2    1    2    0    0 -0.10134919926E+04  0.81241420898E+02 -0.65606977112E+03  0.12136795656E+04  0.93938042625E+02 0.  0.
         11    1    3    3    0    0 -0.57717822406E+03  0.15774944356E+02 -0.41358833200E+03  0.71023859340E+03  0.00000000000E+00 0.  1.
        -11    1    3    3    0    0 -0.43631376854E+03  0.65466476542E+02 -0.24248143912E+03  0.50344097219E+03  0.00000000000E+00 0. -1.
         22    1    1    2    0    0  0.10134919926E+04 -0.81241420898E+02 -0.14227033027E+04  0.17486711741E+04  0.00000000000E+00 0. -1.
<mgrwt>
<rscale>  0 0.21105034E+04</rscale>
<asrwt>0</asrwt>
<pdfrwt beam="1">  1        2 0.38777876E+00 0.21105034E+04</pdfrwt>
<pdfrwt beam="2">  1       -2 0.67967512E-01 0.21105034E+04</pdfrwt>
<totfact> 0.61832189E+00</totfact>
</mgrwt>
</event>
<event>
 6    1  0.1817112E-005  0.3396265E+04  0.7818608E-02  0.8138824E-01
         -2   -1    0    0    0  501 -0.00000000000E+00  0.00000000000E+00  0.25500706296E+04  0.25500706296E+04  0.00000000000E+00 0. -1.
          2   -1    0    0  501    0  0.00000000000E+00 -0.00000000000E+00 -0.11308131319E+04  0.11308131319E+04  0.00000000000E+00 0.  1.
         23    2    1    2    0    0  0.67392572438E+03  0.11731210541E+04 -0.39998584692E+03  0.14137191807E+04  0.90688227654E+02 0.  0.
         11    1    3    3    0    0  0.15307869775E+03  0.31377021139E+03 -0.13670084185E+03  0.37492926456E+03  0.00000000000E+00 0.  1.
        -11    1    3    3    0    0  0.52084702662E+03  0.85935084267E+03 -0.26328500507E+03  0.10387899161E+04  0.00000000000E+00 0. -1.
         22    1    1    2    0    0 -0.67392572438E+03 -0.11731210541E+04  0.18192433447E+04  0.22671645808E+04  0.00000000000E+00 0. -1.
<mgrwt>
<rscale>  0 0.33962646E+04</rscale>
<asrwt>0</asrwt>
<pdfrwt beam="1">  1        2 0.17397125E+00 0.33962646E+04</pdfrwt>
<pdfrwt beam="2">  1       -2 0.39231856E+00 0.33962646E+04</pdfrwt>
<totfact> 0.14386464E-01</totfact>
</mgrwt>
</event>
<event>
 6    1  0.1817112E-005  0.1651282E+04  0.7818608E-02  0.8789648E-01
         -1   -1    0    0    0  501 -0.00000000000E+00  0.00000000000E+00  0.14099362893E+04  0.14099362893E+04  0.00000000000E+00 0.  1.
          1   -1    0    0  501    0  0.00000000000E+00 -0.00000000000E+00 -0.48348494682E+03  0.48348494682E+03  0.00000000000E+00 0. -1.
         23    2    1    2    0    0  0.81317598185E+02  0.24132314975E+03 -0.43297066829E+03  0.51035304628E+03  0.90261940324E+02 0.  0.
         13    1    3    3    0    0  0.21415731311E+02  0.18936415858E+03 -0.29439186250E+03  0.35069072815E+03  0.00000000000E+00 0.  1.
        -13    1    3    3    0    0  0.59901866874E+02  0.51958991171E+02 -0.13857880579E+03  0.15966231814E+03  0.00000000000E+00 0. -1.
         22    1    1    2    0    0 -0.81317598185E+02 -0.24132314975E+03  0.13594220108E+04  0.13830681898E+04  0.00000000000E+00 0.  1.
<mgrwt>
<rscale>  0 0.16512819E+04</rscale>
<asrwt>0</asrwt>
<pdfrwt beam="1">  1        1 0.74382300E-01 0.16512819E+04</pdfrwt>
<pdfrwt beam="2">  1       -1 0.21691327E+00 0.16512819E+04</pdfrwt>
<totfact> 0.51196070E+00</totfact>
</mgrwt>
</event>
<event>
 6    1  0.1817112E-005  0.2159823E+04  0.7818608E-02  0.8535339E-01
          2   -1    0    0  501    0  0.00000000000E+00  0.00000000000E+00  0.81535563932E+03  0.81535563932E+03  0.00000000000E+00 0. -1.
         -2   -1    0    0    0  501 -0.00000000000E+00 -0.00000000000E+00 -0.14303067770E+04  0.14303067770E+04  0.00000000000E+00 0.  1.
         23    2    1    2    0    0  0.42449428669E+02 -0.47118916722E+03  0.69905428413E+03  0.84908394240E+03  0.91899204408E+02 0.  0.
         11    1    3    3    0    0 -0.64735970661E+01 -0.35081479970E+03  0.48356876975E+03  0.59745433819E+03  0.00000000000E+00 0. -1.
        -11    1    3    3    0    0  0.48923025735E+02 -0.12037436752E+03  0.21548551438E+03  0.25162960420E+03  0.00000000000E+00 0.  1.
         22    1    1    2    0    0 -0.42449428669E+02  0.47118916722E+03 -0.13140054218E+04  0.13965784739E+04  0.00000000000E+00 0.  1.
<mgrwt>
<rscale>  0 0.21598229E+04</rscale>
<asrwt>0</asrwt>
<pdfrwt beam="1">  1        2 0.12543933E+00 0.21598229E+04</pdfrwt>
<pdfrwt beam="2">  1       -2 0.22004720E+00 0.21598229E+04</pdfrwt>
<totfact> 0.30403695E+00</totfact>
</mgrwt>
</event>
<event>
 6    1  0.1817112E-005  0.1265112E+04  0.7818608E-02  0.9057699E-01
         -2   -1    0    0    0  501 -0.00000000000E+00  0.00000000000E+00  0.35997542810E+03  0.35997542810E+03  0.00000000000E+00 0. -1.
          2   -1    0    0  501    0  0.00000000000E+00 -0.00000000000E+00 -0.11115394796E+04  0.11115394796E+04  0.00000000000E+00 0.  1.
         23    2    1    2    0    0 -0.29619038860E+03 -0.53116434209E+03 -0.19013720924E+03  0.64382873299E+03  0.92189882732E+02 0.  0.
         13    1    3    3    0    0 -0.17457767259E+03 -0.24366132780E+03 -0.60375068056E+02  0.30576683155E+03  0.00000000000E+00 0.  1.
        -13    1    3    3    0    0 -0.12161271601E+03 -0.28750301429E+03 -0.12976214119E+03  0.33806190144E+03  0.00000000000E+00 0. -1.
         22    1    1    2    0    0  0.29619038860E+03  0.53116434209E+03 -0.56142684224E+03  0.82768617470E+03  0.00000000000E+00 0. -1.
<mgrwt>
<rscale>  0 0.12651117E+04</rscale>
<asrwt>0</asrwt>
<pdfrwt beam="1">  1        2 0.17100607E+00 0.12651117E+04</pdfrwt>
<pdfrwt beam="2">  1       -2 0.55380835E-01 0.12651117E+04</pdfrwt>
<totfact> 0.64527392E+01</totfact>
</mgrwt>
</event>
<event>
 6    1  0.1817112E-005  0.2165934E+04  0.7818608E-02  0.8532742E-01
          4   -1    0    0  501    0  0.00000000000E+00  0.00000000000E+00  0.18484574812E+04  0.18484574812E+04  0.00000000000E+00 0. -1.
         -4   -1    0    0    0  501 -0.00000000000E+00 -0.00000000000E+00 -0.63448460922E+03  0.63448460922E+03  0.00000000000E+00 0.  1.
         23    2    1    2    0    0  0.93900547511E+03 -0.47124969551E+03  0.31702169770E+03  0.11015192852E+04  0.95049571023E+02 0.  0.
         11    1    3    3    0    0  0.21008688988E+03 -0.14478158107E+03  0.98285015566E+02  0.27341936984E+03  0.00000000000E+00 0. -1.
        -11    1    3    3    0    0  0.72891858523E+03 -0.32646811444E+03  0.21873668213E+03  0.82809991532E+03  0.00000000000E+00 0.  1.
         22    1    1    2    0    0 -0.93900547511E+03  0.47124969551E+03  0.89695117426E+03  0.13814228052E+04  0.00000000000E+00 0. -1.
<mgrwt>
<rscale>  0 0.21659343E+04</rscale>
<asrwt>0</asrwt>
<pdfrwt beam="1">  1        4 0.28437807E+00 0.21659343E+04</pdfrwt>
<pdfrwt beam="2">  1       -4 0.97613018E-01 0.21659343E+04</pdfrwt>
<totfact> 0.61965850E-02</totfact>
</mgrwt>
</event>
<event>
 6    1  0.1817112E-005  0.4269814E+04  0.7818608E-02  0.7952224E-01
         -2   -1    0    0    0  501 -0.00000000000E+00  0.00000000000E+00  0.15509150567E+04  0.15509150567E+04  0.00000000000E+00 0.  1.
          2   -1    0    0  501    0  0.00000000000E+00 -0.00000000000E+00 -0.29387985799E+04  0.29387985799E+04  0.00000000000E+00 0. -1.
         23    2    1    2    0    0 -0.15096362572E+04 -0.85837358203E+03  0.60966596050E+03  0.18428266396E+04  0.92252940497E+02 0.  0.
         13    1    3    3    0    0 -0.80696110703E+03 -0.49157595193E+03  0.36972249898E+03  0.10146565286E+04  0.00000000000E+00 0.  1.
        -13    1    3    3    0    0 -0.70267515015E+03 -0.36679763010E+03  0.23994346152E+03  0.82817011103E+03  0.00000000000E+00 0. -1.
         22    1    1    2    0    0  0.15096362572E+04  0.85837358203E+03 -0.19975494836E+04  0.26468869970E+04  0.00000000000E+00 0. -1.
<mgrwt>
<rscale>  0 0.42698136E+04</rscale>
<asrwt>0</asrwt>
<pdfrwt beam="1">  1        2 0.45212286E+00 0.42698136E+04</pdfrwt>
<pdfrwt beam="2">  1       -2 0.23860232E+00 0.42698136E+04</pdfrwt>
<totfact> 0.11084657E-01</totfact>
</mgrwt>
</event>
<event>
 6    1  0.1817112E-005  0.6068579E+04  0.7818608E-02  0.7681957E-01
         -2   -1    0    0    0  501 -0.00000000000E+00  0.00000000000E+00  0.39613468895E+04  0.39613468895E+04  0.00000000000E+00 0.  1.
          2   -1    0    0  501    0  0.00000000000E+00 -0.00000000000E+00 -0.23241874259E+04  0.23241874259E+04  0.00000000000E+00 0. -1.
         23    2    1    2    0    0  0.25470995627E+04 -0.11222208795E+04  0.20681938204E+04  0.34689962806E+04  0.97023871266E+02 0.  0.
         13    1    3    3    0    0  0.98849552409E+03 -0.44822581170E+03  0.74958410225E+03  0.13190550048E+04  0.00000000000E+00 0.  1.
        -13    1    3    3    0    0  0.15586040386E+04 -0.67399506781E+03  0.13186097182E+04  0.21499412758E+04  0.00000000000E+00 0. -1.
         22    1    1    2    0    0 -0.25470995627E+04  0.11222208795E+04 -0.43103435686E+03  0.28165380348E+04  0.00000000000E+00 0. -1.
<mgrwt>
<rscale>  0 0.60685790E+04</rscale>
<asrwt>0</asrwt>
<pdfrwt beam="1">  1        2 0.35756730E+00 0.60685790E+04</pdfrwt>
<pdfrwt beam="2">  1       -2 0.60943798E+00 0.60685790E+04</pdfrwt>
<totfact> 0.14032839E-03</totfact>
</mgrwt>
</event>
<event>
 6    1  0.1817112E-005  0.3009654E+04  0.7818608E-02  0.8240979E-01
         -2   -1    0    0    0  501 -0.00000000000E+00  0.00000000000E+00  0.22189220907E+04  0.22189220907E+04  0.00000000000E+00 0.  1.
          2   -1    0    0  501    0  0.00000000000E+00 -0.00000000000E+00 -0.10205426681E+04  0.10205426681E+04  0.00000000000E+00 0. -1.
         23    2    1    2    0    0 -0.79432564015E+03  0.12436836711E+04  0.90925899214E+03  0.17357051639E+04  0.90654314616E+02 0.  0.
         11    1    3    3    0    0 -0.79933762330E+02  0.80649292834E+02  0.67686458967E+02  0.13219368942E+03  0.00000000000E+00 0.  1.
        -11    1    3    3    0    0 -0.71439187782E+03  0.11630343782E+04  0.84157253318E+03  0.16035114744E+04  0.00000000000E+00 0. -1.
         22    1    1    2    0    0  0.79432564015E+03 -0.12436836711E+04  0.28912043043E+03  0.15037595950E+04  0.00000000000E+00 0. -1.
<mgrwt>
<rscale>  0 0.30096542E+04</rscale>
<asrwt>0</asrwt>
<pdfrwt beam="1">  1        2 0.15700656E+00 0.30096542E+04</pdfrwt>
<pdfrwt beam="2">  1       -2 0.34137263E+00 0.30096542E+04</pdfrwt>
<totfact> 0.36837740E-01</totfact>
</mgrwt>
</event>
<event>
 6    1  0.1817112E-005  0.1739997E+04  0.7818608E-02  0.8738876E-01
          2   -1    0    0  501    0  0.00000000000E+00  0.00000000000E+00  0.17034386619E+04  0.17034386619E+04  0.00000000000E+00 0. -1.
         -2   -1    0    0    0  501 -0.00000000000E+00 -0.00000000000E+00 -0.44433496188E+03  0.44433496188E+03  0.00000000000E+00 0.  1.
         23    2    1    2    0    0 -0.11098630123E+03  0.75275528846E+03  0.11454797831E+04  0.13784434750E+04  0.94994720605E+02 0.  0.
         11    1    3    3    0    0 -0.51698888596E+02  0.59314557382E+03  0.92107909854E+03  0.10967593868E+04  0.00000000000E+00 0.  1.
        -11    1    3    3    0    0 -0.59287412633E+02  0.15960971464E+03  0.22440068451E+03  0.28168408814E+03  0.00000000000E+00 0. -1.
         22    1    1    2    0    0  0.11098630123E+03 -0.75275528846E+03  0.11362391698E+03  0.76933014882E+03  0.00000000000E+00 0. -1.
<mgrwt>
<rscale>  0 0.17399970E+04</rscale>
<asrwt>0</asrwt>
<pdfrwt beam="1">  1        2 0.26206748E+00 0.17399970E+04</pdfrwt>
<pdfrwt beam="2">  1       -2 0.68359226E-01 0.17399970E+04</pdfrwt>
<totfact> 0.18128744E+01</totfact>
</mgrwt>
</event>
<event>
 6    1  0.2219981E-005  0.2785874E+04  0.7818608E-02  0.8307667E-01
         -2   -1    0    0    0  501 -0.00000000000E+00  0.00000000000E+00  0.15171178240E+04  0.15171178240E+04  0.00000000000E+00 0.  1.
          2   -1    0    0  501    0  0.00000000000E+00 -0.00000000000E+00 -0.12789206898E+04  0.12789206898E+04  0.00000000000E+00 0. -1.
         23    2    1    2    0    0  0.23837119142E+03  0.50190752542E+03 -0.11611138488E+04  0.12904478602E+04  0.91314407566E+02 0.  0.
         11    1    3    3    0    0  0.14616740764E+03  0.23434269262E+03 -0.49784479661E+03  0.56932490737E+03  0.00000000000E+00 0. -1.
        -11    1    3    3    0    0  0.92203783779E+02  0.26756483280E+03 -0.66326905217E+03  0.72112295281E+03  0.00000000000E+00 0.  1.
         22    1    1    2    0    0 -0.23837119142E+03 -0.50190752542E+03  0.13993109830E+04  0.15055906536E+04  0.00000000000E+00 0.  1.
<mgrwt>
<rscale>  0 0.27858739E+04</rscale>
<asrwt>0</asrwt>
<pdfrwt beam="1">  1        2 0.19675703E+00 0.27858739E+04</pdfrwt>
<pdfrwt beam="2">  1       -2 0.23340274E+00 0.27858739E+04</pdfrwt>
<totfact> 0.12062523E+00</totfact>
</mgrwt>
</event>
<event>
 6    1  0.1817112E-005  0.2593594E+04  0.7818608E-02  0.8370380E-01
          1   -1    0    0  501    0  0.00000000000E+00  0.00000000000E+00  0.21096261469E+04  0.21096261469E+04  0.00000000000E+00 0. -1.
         -1   -1    0    0    0  501 -0.00000000000E+00 -0.00000000000E+00 -0.79714734053E+03  0.79714734053E+03  0.00000000000E+00 0.  1.
         23    2    1    2    0    0  0.11150562329E+04 -0.44947195931E+03  0.11703678656E+03  0.12113511013E+04  0.91095754134E+02 0.  0.
         11    1    3    3    0    0  0.66896928385E+03 -0.31594903457E+03  0.82981447354E+02  0.74446599371E+03  0.00000000000E+00 0. -1.
        -11    1    3    3    0    0  0.44608694904E+03 -0.13352292475E+03  0.34055339209E+02  0.46688510756E+03  0.00000000000E+00 0.  1.
         22    1    1    2    0    0 -0.11150562329E+04  0.44947195931E+03  0.11954420198E+04  0.16954223861E+04  0.00000000000E+00 0.  1.
<mgrwt>
<rscale>  0 0.25935943E+04</rscale>
<asrwt>0</asrwt>
<pdfrwt beam="1">  1        1 0.32455787E+00 0.25935943E+04</pdfrwt>
<pdfrwt beam="2">  1       -1 0.12263805E+00 0.25935943E+04</pdfrwt>
<totfact> 0.12977693E+00</totfact>
</mgrwt>
</event>
<event>
 6    1  0.1817112E-005  0.2530806E+04  0.7818608E-02  0.8392092E-01
          1   -1    0    0  501    0  0.00000000000E+00  0.00000000000E+00  0.13250853333E+04  0.13250853333E+04  0.00000000000E+00 0. -1.
         -1   -1    0    0    0  501 -0.00000000000E+00 -0.00000000000E+00 -0.12084086376E+04  0.12084086376E+04  0.00000000000E+00 0.  1.
         23    2    1    2    0    0  0.47606331586E+03  0.66064362620E+03 -0.90896403266E+03  0.12239042698E+04  0.92950348893E+02 0.  0.
         13    1    3    3    0    0  0.24083685933E+03  0.34527278655E+03 -0.53834254875E+03  0.68339475396E+03  0.00000000000E+00 0.  1.
        -13    1    3    3    0    0  0.23522645654E+03  0.31537083965E+03 -0.37062148391E+03  0.54050951582E+03  0.00000000000E+00 0. -1.
         22    1    1    2    0    0 -0.47606331586E+03 -0.66064362620E+03  0.10256407283E+04  0.13095897011E+04  0.00000000000E+00 0. -1.
<mgrwt>
<rscale>  0 0.25308058E+04</rscale>
<asrwt>0</asrwt>
<pdfrwt beam="1">  1        1 0.20385928E+00 0.25308058E+04</pdfrwt>
<pdfrwt beam="2">  1       -1 0.18590902E+00 0.25308058E+04</pdfrwt>
<totfact> 0.14524840E+00</totfact>
</mgrwt>
</event>
<event>
 6    1  0.1817112E-005  0.1399285E+04  0.7818608E-02  0.8954336E-01
         -2   -1    0    0    0  501 -0.00000000000E+00  0.00000000000E+00  0.87077303340E+03  0.87077303340E+03  0.00000000000E+00 0. -1.
          2   -1    0    0  501    0  0.00000000000E+00 -0.00000000000E+00 -0.56214385860E+03  0.56214385860E+03  0.00000000000E+00 0.  1.
         23    2    1    2    0    0 -0.95833760617E+02 -0.63883904691E+02  0.85866395666E+03  0.87095290364E+03  0.89386279393E+02 0.  0.
         11    1    3    3    0    0 -0.18883839433E+02  0.22897546737E+02  0.16072609930E+03  0.16344349493E+03  0.00000000000E+00 0.  1.
        -11    1    3    3    0    0 -0.76949921184E+02 -0.86781451428E+02  0.69793785736E+03  0.70750940871E+03  0.00000000000E+00 0. -1.
         22    1    1    2    0    0  0.95833760617E+02  0.63883904691E+02 -0.55003478186E+03  0.56196398835E+03  0.00000000000E+00 0.  1.
<mgrwt>
<rscale>  0 0.13992851E+04</rscale>
<asrwt>0</asrwt>
<pdfrwt beam="1">  1        2 0.86483671E-01 0.13992851E+04</pdfrwt>
<pdfrwt beam="2">  1       -2 0.13396508E+00 0.13992851E+04</pdfrwt>
<totfact> 0.20995395E+01</totfact>
</mgrwt>
</event>
<event>
 6    1  0.1817112E-005  0.4081662E+04  0.7818608E-02  0.7988272E-01
         -2   -1    0    0    0  501 -0.00000000000E+00  0.00000000000E+00  0.24214004055E+04  0.24214004055E+04  0.00000000000E+00 0.  1.
          2   -1    0    0  501    0  0.00000000000E+00 -0.00000000000E+00 -0.17200753095E+04  0.17200753095E+04  0.00000000000E+00 0. -1.
         23    2    1    2    0    0  0.60141972049E+03 -0.17887866063E+04  0.11364513949E+04  0.22047779846E+04  0.89782989001E+02 0.  0.
         11    1    3    3    0    0  0.47891916106E+03 -0.13888267653E+04  0.84246010967E+03  0.16935000393E+04  0.00000000000E+00 0.  1.
        -11    1    3    3    0    0  0.12250055943E+03 -0.39995984103E+03  0.29399128522E+03  0.51127794523E+03  0.00000000000E+00 0. -1.
         22    1    1    2    0    0 -0.60141972049E+03  0.17887866063E+04 -0.43512629885E+03  0.19366977304E+04  0.00000000000E+00 0. -1.
<mgrwt>
<rscale>  0 0.40816619E+04</rscale>
<asrwt>0</asrwt>
<pdfrwt beam="1">  1        2 0.26462697E+00 0.40816619E+04</pdfrwt>
<pdfrwt beam="2">  1       -2 0.37252314E+00 0.40816619E+04</pdfrwt>
<totfact> 0.83757223E-02</totfact>
</mgrwt>
</event>
<event>
 6    1  0.1817112E-005  0.1229763E+04  0.7818608E-02  0.9087197E-01
          2   -1    0    0  501    0  0.00000000000E+00  0.00000000000E+00  0.89760439988E+03  0.89760439988E+03  0.00000000000E+00 0. -1.
         -2   -1    0    0    0  501 -0.00000000000E+00 -0.00000000000E+00 -0.42120906606E+03  0.42120906606E+03  0.00000000000E+00 0.  1.
         23    2    1    2    0    0 -0.40648630479E+03 -0.26830965566E+03  0.63612669730E+03  0.80623635391E+03  0.90214721920E+02 0.  0.
         11    1    3    3    0    0 -0.46953234030E+02 -0.47550197510E+02  0.13888770464E+03  0.15412794027E+03  0.00000000000E+00 0. -1.
        -11    1    3    3    0    0 -0.35953307076E+03 -0.22075945815E+03  0.49723899265E+03  0.65210841364E+03  0.00000000000E+00 0.  1.
         22    1    1    2    0    0  0.40648630479E+03  0.26830965566E+03 -0.15973136348E+03  0.51257711203E+03  0.00000000000E+00 0.  1.
<mgrwt>
<rscale>  0 0.12297628E+04</rscale>
<asrwt>0</asrwt>
<pdfrwt beam="1">  1        2 0.13809298E+00 0.12297628E+04</pdfrwt>
<pdfrwt beam="2">  1       -2 0.64801395E-01 0.12297628E+04</pdfrwt>
<totfact> 0.63715065E+01</totfact>
</mgrwt>
</event>
<event>
 6    1  0.1817112E-005  0.1794585E+04  0.7818608E-02  0.8709184E-01
         -2   -1    0    0    0  501 -0.00000000000E+00  0.00000000000E+00  0.23090488636E+03  0.23090488636E+03  0.00000000000E+00 0.  1.
          2   -1    0    0  501    0  0.00000000000E+00 -0.00000000000E+00 -0.34868632281E+04  0.34868632281E+04  0.00000000000E+00 0. -1.
         23    2    1    2    0    0  0.11829356407E+03 -0.87008006835E+03 -0.12721135273E+04  0.15482813225E+04  0.88710397679E+02 0.  0.
         11    1    3    3    0    0  0.37306602463E+02 -0.17872795709E+03 -0.32669732905E+03  0.37425473950E+03  0.00000000000E+00 0.  1.
        -11    1    3    3    0    0  0.80986961611E+02 -0.69135211125E+03 -0.94541619824E+03  0.11740265830E+04  0.00000000000E+00 0. -1.
         22    1    1    2    0    0 -0.11829356407E+03  0.87008006835E+03 -0.19838448145E+04  0.21694867920E+04  0.00000000000E+00 0. -1.
<mgrwt>
<rscale>  0 0.17945849E+04</rscale>
<asrwt>0</asrwt>
<pdfrwt beam="1">  1        2 0.53644045E+00 0.17945849E+04</pdfrwt>
<pdfrwt beam="2">  1       -2 0.35523831E-01 0.17945849E+04</pdfrwt>
<totfact> 0.58873371E+00</totfact>
</mgrwt>
</event>
<event>
 6    1  0.1817112E-005  0.2872289E+04  0.7818608E-02  0.8281170E-01
          2   -1    0    0  501    0  0.00000000000E+00  0.00000000000E+00  0.26476326383E+04  0.26476326383E+04  0.00000000000E+00 0. -1.
         -2   -1    0    0    0  501 -0.00000000000E+00 -0.00000000000E+00 -0.77900188215E+03  0.77900188215E+03  0.00000000000E+00 0.  1.
         23    2    1    2    0    0  0.31810645987E+03  0.36065130746E+03 -0.67731792389E+03  0.83566640664E+03  0.91201358490E+02 0.  0.
         11    1    3    3    0    0  0.15892968846E+03  0.24678223944E+03 -0.41871498041E+03  0.51135345349E+03  0.00000000000E+00 0. -1.
        -11    1    3    3    0    0  0.15917677141E+03  0.11386906802E+03 -0.25860294348E+03  0.32431295315E+03  0.00000000000E+00 0.  1.
         22    1    1    2    0    0 -0.31810645987E+03 -0.36065130746E+03  0.25459486800E+04  0.25909681138E+04  0.00000000000E+00 0. -1.
<mgrwt>
<rscale>  0 0.28722888E+04</rscale>
<asrwt>0</asrwt>
<pdfrwt beam="1">  1        2 0.40732809E+00 0.28722888E+04</pdfrwt>
<pdfrwt beam="2">  1       -2 0.11984645E+00 0.28722888E+04</pdfrwt>
<totfact> 0.13140737E+00</totfact>
</mgrwt>
</event>
<event>
 6    1  0.1817112E-005  0.2085243E+04  0.7818608E-02  0.8567772E-01
         -2   -1    0    0    0  501 -0.00000000000E+00  0.00000000000E+00  0.58084821370E+03  0.58084821370E+03  0.00000000000E+00 0. -1.
          2   -1    0    0  501    0  0.00000000000E+00 -0.00000000000E+00 -0.18715038665E+04  0.18715038665E+04  0.00000000000E+00 0.  1.
         23    2    1    2    0    0 -0.40118754582E+03  0.86815071942E+03 -0.11290351780E+04  0.14824251260E+04  0.90701171477E+02 0.  0.
         13    1    3    3    0    0 -0.37077279013E+02  0.15953561562E+03 -0.18180096086E+03  0.24469966620E+03  0.00000000000E+00 0. -1.
        -13    1    3    3    0    0 -0.36411026680E+03  0.70861510380E+03 -0.94723421716E+03  0.12377254598E+04  0.00000000000E+00 0.  1.
         22    1    1    2    0    0  0.40118754582E+03 -0.86815071942E+03 -0.16162047476E+03  0.96992695416E+03  0.00000000000E+00 0. -1.
<mgrwt>
<rscale>  0 0.20852431E+04</rscale>
<asrwt>0</asrwt>
<pdfrwt beam="1">  1        2 0.28792367E+00 0.20852431E+04</pdfrwt>
<pdfrwt beam="2">  1       -2 0.89361264E-01 0.20852431E+04</pdfrwt>
<totfact> 0.78056675E+00</totfact>
</mgrwt>
</event>
<event>
 6    1  0.1817112E-005  0.8328338E+03  0.7818608E-02  0.9513671E-01
          2   -1    0    0  501    0  0.00000000000E+00  0.00000000000E+00  0.55572914403E+03  0.55572914403E+03  0.00000000000E+00 0. -1.
         -2   -1    0    0    0  501 -0.00000000000E+00 -0.00000000000E+00 -0.31202800355E+03  0.31202800355E+03  0.00000000000E+00 0.  1.
         23    2    1    2    0    0 -0.17464724464E+03  0.34848367998E+03 -0.15226870078E+02  0.39979748060E+03  0.87542176399E+02 0.  0.
         11    1    3    3    0    0 -0.81957354157E+01  0.91785669412E+02 -0.17755948902E+02  0.93845899803E+02  0.00000000000E+00 0.  1.
        -11    1    3    3    0    0 -0.16645150922E+03  0.25669801057E+03  0.25290788234E+01  0.30595158080E+03  0.00000000000E+00 0. -1.
         22    1    1    2    0    0  0.17464724464E+03 -0.34848367998E+03  0.25892801055E+03  0.46795966698E+03  0.00000000000E+00 0. -1.
<mgrwt>
<rscale>  0 0.83283385E+03</rscale>
<asrwt>0</asrwt>
<pdfrwt beam="1">  1        2 0.85496792E-01 0.83283385E+03</pdfrwt>
<pdfrwt beam="2">  1       -2 0.48004308E-01 0.83283385E+03</pdfrwt>
<totfact> 0.22486613E+02</totfact>
</mgrwt>
</event>
<event>
 6    1  0.1817112E-005  0.4843201E+04  0.7818608E-02  0.7853161E-01
         -2   -1    0    0    0  501 -0.00000000000E+00  0.00000000000E+00  0.17506358043E+04  0.17506358043E+04  0.00000000000E+00 0.  1.
          2   -1    0    0  501    0  0.00000000000E+00 -0.00000000000E+00 -0.33497245773E+04  0.33497245773E+04  0.00000000000E+00 0. -1.
         23    2    1    2    0    0 -0.20446146049E+04  0.55239356874E+03 -0.20344145287E+04  0.29381633389E+04  0.91508437984E+02 0.  0.
         13    1    3    3    0    0 -0.95742234967E+03  0.22129799381E+03 -0.98215450996E+03  0.13893371942E+04  0.00000000000E+00 0. -1.
        -13    1    3    3    0    0 -0.10871922553E+04  0.33109557493E+03 -0.10522600188E+04  0.15488261448E+04  0.00000000000E+00 0.  1.
         22    1    1    2    0    0  0.20446146049E+04 -0.55239356874E+03  0.43532575574E+03  0.21621970426E+04  0.00000000000E+00 0.  1.
<mgrwt>
<rscale>  0 0.48432005E+04</rscale>
<asrwt>0</asrwt>
<pdfrwt beam="1">  1        2 0.51534224E+00 0.48432005E+04</pdfrwt>
<pdfrwt beam="2">  1       -2 0.26932859E+00 0.48432005E+04</pdfrwt>
<totfact> 0.37146106E-02</totfact>
</mgrwt>
</event>
<event>
 6    1  0.1817112E-005  0.2420119E+04  0.7818608E-02  0.8432010E-01
         -1   -1    0    0    0  501 -0.00000000000E+00  0.00000000000E+00  0.11708567141E+04  0.11708567141E+04  0.00000000000E+00 0.  1.
          1   -1    0    0  501    0  0.00000000000E+00 -0.00000000000E+00 -0.12505747863E+04  0.12505747863E+04  0.00000000000E+00 0. -1.
         23    2    1    2    0    0 -0.81490505522E+03 -0.35882566736E+03 -0.85698122894E+03  0.12394991321E+04  0.95473362982E+02 0.  0.
         13    1    3    3    0    0 -0.66424095812E+03 -0.28420197812E+03 -0.74310482207E+03  0.10364321451E+04  0.00000000000E+00 0. -1.
        -13    1    3    3    0    0 -0.15066409710E+03 -0.74623689239E+02 -0.11387640687E+03  0.20306698696E+03  0.00000000000E+00 0.  1.
         22    1    1    2    0    0  0.81490505522E+03  0.35882566736E+03  0.77726315677E+03  0.11819323684E+04  0.00000000000E+00 0.  1.
<mgrwt>
<rscale>  0 0.24201189E+04</rscale>
<asrwt>0</asrwt>
<pdfrwt beam="1">  1        1 0.19239612E+00 0.24201189E+04</pdfrwt>
<pdfrwt beam="2">  1       -1 0.18013180E+00 0.24201189E+04</pdfrwt>
<totfact> 0.18238077E+00</totfact>
</mgrwt>
</event>
<event>
 6    1  0.1817112E-005  0.1737878E+04  0.7818608E-02  0.8740051E-01
          2   -1    0    0  501    0  0.00000000000E+00  0.00000000000E+00  0.86217306660E+03  0.86217306660E+03  0.00000000000E+00 0. -1.
         -2   -1    0    0    0  501 -0.00000000000E+00 -0.00000000000E+00 -0.87575803375E+03  0.87575803375E+03  0.00000000000E+00 0.  1.
         23    2    1    2    0    0  0.79474365107E+03  0.25611250696E+03 -0.24063700044E+03  0.87261976160E+03  0.79674307128E+02 0.  0.
         13    1    3    3    0    0  0.59016983698E+03  0.22363379516E+03 -0.19445716248E+03  0.66039843947E+03  0.00000000000E+00 0.  1.
        -13    1    3    3    0    0  0.20457381409E+03  0.32478711807E+02 -0.46179837959E+02  0.21222132213E+03  0.00000000000E+00 0. -1.
         22    1    1    2    0    0 -0.79474365107E+03 -0.25611250696E+03  0.22705203330E+03  0.86531133875E+03  0.00000000000E+00 0. -1.
<mgrwt>
<rscale>  0 0.17378780E+04</rscale>
<asrwt>0</asrwt>
<pdfrwt beam="1">  1        2 0.13264201E+00 0.17378780E+04</pdfrwt>
<pdfrwt beam="2">  1       -2 0.13473201E+00 0.17378780E+04</pdfrwt>
<totfact> 0.11707126E+01</totfact>
</mgrwt>
</event>
<event>
 6    1  0.1817112E-005  0.2733850E+04  0.7818608E-02  0.8324105E-01
          2   -1    0    0  501    0  0.00000000000E+00  0.00000000000E+00  0.15424225768E+04  0.15424225768E+04  0.00000000000E+00 0. -1.
         -2   -1    0    0    0  501 -0.00000000000E+00 -0.00000000000E+00 -0.12113960477E+04  0.12113960477E+04  0.00000000000E+00 0.  1.
         23    2    1    2    0    0 -0.10995347057E+04  0.28985879026E+03 -0.59565493763E+03  0.12869398877E+04  0.91732123405E+02 0.  0.
         13    1    3    3    0    0 -0.36321396775E+03  0.12001682364E+03 -0.15953377914E+03  0.41446284636E+03  0.00000000000E+00 0.  1.
        -13    1    3    3    0    0 -0.73632073800E+03  0.16984196661E+03 -0.43612115848E+03  0.87247704136E+03  0.00000000000E+00 0. -1.
         22    1    1    2    0    0  0.10995347057E+04 -0.28985879026E+03  0.92668146671E+03  0.14668787367E+04  0.00000000000E+00 0. -1.
<mgrwt>
<rscale>  0 0.27338505E+04</rscale>
<asrwt>0</asrwt>
<pdfrwt beam="1">  1        2 0.23729578E+00 0.27338505E+04</pdfrwt>
<pdfrwt beam="2">  1       -2 0.18636862E+00 0.27338505E+04</pdfrwt>
<totfact> 0.17239268E+00</totfact>
</mgrwt>
</event>
<event>
 6    1  0.1817112E-005  0.1484721E+04  0.7818608E-02  0.8894677E-01
          2   -1    0    0  501    0  0.00000000000E+00  0.00000000000E+00  0.97366144475E+03  0.97366144475E+03  0.00000000000E+00 0. -1.
         -2   -1    0    0    0  501 -0.00000000000E+00 -0.00000000000E+00 -0.56600722074E+03  0.56600722074E+03  0.00000000000E+00 0.  1.
         23    2    1    2    0    0  0.68303152405E+03  0.14614923774E+03 -0.46426277602E+02  0.70655356871E+03  0.95764730788E+02 0.  0.
         11    1    3    3    0    0  0.27013156334E+03  0.54657253113E+02  0.28417930868E+02  0.27706687934E+03  0.00000000000E+00 0.  1.
        -11    1    3    3    0    0  0.41289996071E+03  0.91491984625E+02 -0.74844208470E+02  0.42948668937E+03  0.00000000000E+00 0. -1.
         22    1    1    2    0    0 -0.68303152405E+03 -0.14614923774E+03  0.45408050161E+03  0.83311509678E+03  0.00000000000E+00 0.  1.
<mgrwt>
<rscale>  0 0.14847214E+04</rscale>
<asrwt>0</asrwt>
<pdfrwt beam="1">  1        2 0.14979407E+00 0.14847214E+04</pdfrwt>
<pdfrwt beam="2">  1       -2 0.87078034E-01 0.14847214E+04</pdfrwt>
<totfact> 0.28900529E+01</totfact>
</mgrwt>
</event>
<event>
 6    1  0.1817112E-005  0.4187400E+04  0.7818608E-02  0.7967773E-01
         -2   -1    0    0    0  501 -0.00000000000E+00  0.00000000000E+00  0.17836284711E+04  0.17836284711E+04  0.00000000000E+00 0.  1.
          2   -1    0    0  501    0  0.00000000000E+00 -0.00000000000E+00 -0.24576749018E+04  0.24576749018E+04  0.00000000000E+00 0. -1.
         23    2    1    2    0    0  0.93833932937E+03 -0.14923480523E+04 -0.14794372023E+04  0.23032018014E+04  0.91764349943E+02 0.  0.
         11    1    3    3    0    0  0.79107748058E+03 -0.13097836459E+04 -0.13015229130E+04  0.20088052848E+04  0.00000000000E+00 0.  1.
        -11    1    3    3    0    0  0.14726184879E+03 -0.18256440647E+03 -0.17791428934E+03  0.29439651657E+03  0.00000000000E+00 0. -1.
         22    1    1    2    0    0 -0.93833932937E+03  0.14923480523E+04  0.80539077158E+03  0.19381015715E+04  0.00000000000E+00 0.  1.
<mgrwt>
<rscale>  0 0.41873996E+04</rscale>
<asrwt>0</asrwt>
<pdfrwt beam="1">  1        2 0.37810383E+00 0.41873996E+04</pdfrwt>
<pdfrwt beam="2">  1       -2 0.27440438E+00 0.41873996E+04</pdfrwt>
<totfact> 0.13038449E-01</totfact>
</mgrwt>
</event>
<event>
 6    1  0.2316150E-005  0.4142529E+04  0.7818608E-02  0.7976395E-01
         -2   -1    0    0    0  501 -0.00000000000E+00  0.00000000000E+00  0.21299880653E+04  0.21299880653E+04  0.00000000000E+00 0.  1.
          2   -1    0    0  501    0  0.00000000000E+00 -0.00000000000E+00 -0.20141597993E+04  0.20141597993E+04  0.00000000000E+00 0. -1.
         23    2    1    2    0    0  0.88720322907E+03 -0.26466980125E+03  0.19107493363E+04  0.21245139073E+04  0.73597844462E+02 0.  0.
         13    1    3    3    0    0  0.27144048805E+03 -0.10165772323E+03  0.53549909117E+03  0.60891174064E+03  0.00000000000E+00 0. -1.
        -13    1    3    3    0    0  0.61576274102E+03 -0.16301207802E+03  0.13752502451E+04  0.15156021666E+04  0.00000000000E+00 0.  1.
         22    1    1    2    0    0 -0.88720322907E+03  0.26466980125E+03 -0.17949210702E+04  0.20196339573E+04  0.00000000000E+00 0. -1.
<mgrwt>
<rscale>  0 0.41425289E+04</rscale>
<asrwt>0</asrwt>
<pdfrwt beam="1">  1        2 0.30987074E+00 0.41425289E+04</pdfrwt>
<pdfrwt beam="2">  1       -2 0.32769047E+00 0.41425289E+04</pdfrwt>
<totfact> 0.10977840E-01</totfact>
</mgrwt>
</event>
<event>
 6    1  0.1817112E-005  0.3146732E+04  0.7818608E-02  0.8203029E-01
         -2   -1    0    0    0  501 -0.00000000000E+00  0.00000000000E+00  0.13597200585E+04  0.13597200585E+04  0.00000000000E+00 0.  1.
          2   -1    0    0  501    0  0.00000000000E+00 -0.00000000000E+00 -0.18205807895E+04  0.18205807895E+04  0.00000000000E+00 0. -1.
         23    2    1    2    0    0 -0.13252021899E+04  0.79110493820E+03 -0.53314251562E+03  0.16352336897E+04  0.87979602798E+02 0.  0.
         11    1    3    3    0    0 -0.99972474547E+03  0.60793355926E+03 -0.44229964896E+03  0.12508644046E+04  0.00000000000E+00 0. -1.
        -11    1    3    3    0    0 -0.32547744444E+03  0.18317137894E+03 -0.90842866658E+02  0.38436928510E+03  0.00000000000E+00 0.  1.
         22    1    1    2    0    0  0.13252021899E+04 -0.79110493820E+03  0.72281784623E+02  0.15450671583E+04  0.00000000000E+00 0.  1.
<mgrwt>
<rscale>  0 0.31467318E+04</rscale>
<asrwt>0</asrwt>
<pdfrwt beam="1">  1        2 0.28008935E+00 0.31467318E+04</pdfrwt>
<pdfrwt beam="2">  1       -2 0.20918770E+00 0.31467318E+04</pdfrwt>
<totfact> 0.82392293E-01</totfact>
</mgrwt>
</event>
<event>
 6    1  0.1817112E-005  0.2172603E+04  0.7818608E-02  0.8529919E-01
         -2   -1    0    0    0  501 -0.00000000000E+00  0.00000000000E+00  0.54811844239E+03  0.54811844239E+03  0.00000000000E+00 0.  1.
          2   -1    0    0  501    0  0.00000000000E+00 -0.00000000000E+00 -0.21529128525E+04  0.21529128525E+04  0.00000000000E+00 0. -1.
         23    2    1    2    0    0  0.87950622459E+03 -0.30932318183E+02 -0.15914970268E+04  0.18208808374E+04  0.90863799409E+02 0.  0.
         13    1    3    3    0    0  0.64908347855E+03 -0.60292983303E+02 -0.11442641356E+04  0.13169225558E+04  0.00000000000E+00 0. -1.
        -13    1    3    3    0    0  0.23042274605E+03  0.29360665120E+02 -0.44723289123E+03  0.50395828156E+03  0.00000000000E+00 0.  1.
         22    1    1    2    0    0 -0.87950622459E+03  0.30932318183E+02 -0.13297383232E+02  0.88015045748E+03  0.00000000000E+00 0.  1.
<mgrwt>
<rscale>  0 0.21726033E+04</rscale>
<asrwt>0</asrwt>
<pdfrwt beam="1">  1        2 0.33121736E+00 0.21726033E+04</pdfrwt>
<pdfrwt beam="2">  1       -2 0.84325915E-01 0.21726033E+04</pdfrwt>
<totfact> 0.61681903E+00</totfact>
</mgrwt>
</event>
<event>
 6    1  0.2131679E-005  0.4425754E+04  0.7818608E-02  0.7923766E-01
         -2   -1    0    0    0  501 -0.00000000000E+00  0.00000000000E+00  0.20818540102E+04  0.20818540102E+04  0.00000000000E+00 0.  1.
          2   -1    0    0  501    0  0.00000000000E+00 -0.00000000000E+00 -0.23521461394E+04  0.23521461394E+04  0.00000000000E+00 0. -1.
         23    2    1    2    0    0  0.17701355062E+04  0.12663451707E+04  0.25974002358E+03  0.21939233909E+04  0.93942341653E+02 0.  0.
         13    1    3    3    0    0  0.10190879388E+04  0.67714604420E+03  0.12599772937E+03  0.12300172438E+04  0.00000000000E+00 0.  1.
        -13    1    3    3    0    0  0.75104756738E+03  0.58919912654E+03  0.13374229421E+03  0.96390614712E+03  0.00000000000E+00 0. -1.
         22    1    1    2    0    0 -0.17701355062E+04 -0.12663451707E+04 -0.53003215284E+03  0.22400767587E+04  0.00000000000E+00 0. -1.
<mgrwt>
<rscale>  0 0.44257541E+04</rscale>
<asrwt>0</asrwt>
<pdfrwt beam="1">  1        2 0.36186864E+00 0.44257541E+04</pdfrwt>
<pdfrwt beam="2">  1       -2 0.32028523E+00 0.44257541E+04</pdfrwt>
<totfact> 0.76968237E-02</totfact>
</mgrwt>
</event>
<event>
 6    1  0.1817112E-005  0.3005865E+04  0.7818608E-02  0.8242058E-01
         -2   -1    0    0    0  501 -0.00000000000E+00  0.00000000000E+00  0.18311808584E+04  0.18311808584E+04  0.00000000000E+00 0.  1.
          2   -1    0    0  501    0  0.00000000000E+00 -0.00000000000E+00 -0.12335246058E+04  0.12335246058E+04  0.00000000000E+00 0. -1.
         23    2    1    2    0    0 -0.36175723734E+03  0.94546727472E+03  0.14297135024E+04  0.17543253921E+04  0.93809466944E+02 0.  0.
         11    1    3    3    0    0 -0.18315175763E+03  0.46941447712E+03  0.79238938081E+03  0.93902899235E+03  0.00000000000E+00 0. -1.
        -11    1    3    3    0    0 -0.17860547971E+03  0.47605279760E+03  0.63732412158E+03  0.81529639975E+03  0.00000000000E+00 0.  1.
         22    1    1    2    0    0  0.36175723734E+03 -0.94546727472E+03 -0.83205724978E+03  0.13103800721E+04  0.00000000000E+00 0. -1.
<mgrwt>
<rscale>  0 0.30058654E+04</rscale>
<asrwt>0</asrwt>
<pdfrwt beam="1">  1        2 0.18977302E+00 0.30058654E+04</pdfrwt>
<pdfrwt beam="2">  1       -2 0.28172013E+00 0.30058654E+04</pdfrwt>
<totfact> 0.63620686E-01</totfact>
</mgrwt>
</event>
<event>
 6    1  0.1817112E-005  0.3912530E+04  0.7818608E-02  0.8022428E-01
         -2   -1    0    0    0  501 -0.00000000000E+00  0.00000000000E+00  0.12183412130E+04  0.12183412130E+04  0.00000000000E+00 0. -1.
          2   -1    0    0  501    0  0.00000000000E+00 -0.00000000000E+00 -0.31411336520E+04  0.31411336520E+04  0.00000000000E+00 0.  1.
         23    2    1    2    0    0 -0.10618467694E+04  0.13434370984E+03 -0.27850721591E+04  0.29850320289E+04  0.90677937136E+02 0.  0.
         11    1    3    3    0    0 -0.66841691151E+03  0.10029632544E+03 -0.16420830792E+04  0.17757469863E+04  0.00000000000E+00 0.  1.
        -11    1    3    3    0    0 -0.39342985784E+03  0.34047384401E+02 -0.11429890799E+04  0.12092850426E+04  0.00000000000E+00 0. -1.
         22    1    1    2    0    0  0.10618467694E+04 -0.13434370984E+03  0.86227972009E+03  0.13744428361E+04  0.00000000000E+00 0. -1.
<mgrwt>
<rscale>  0 0.39125299E+04</rscale>
<asrwt>0</asrwt>
<pdfrwt beam="1">  1        2 0.48325132E+00 0.39125299E+04</pdfrwt>
<pdfrwt beam="2">  1       -2 0.18743711E+00 0.39125299E+04</pdfrwt>
<totfact> 0.18128493E-01</totfact>
</mgrwt>
</event>
<event>
 6    1  0.1817112E-005  0.2068632E+04  0.7818608E-02  0.8575189E-01
         -2   -1    0    0    0  501 -0.00000000000E+00  0.00000000000E+00  0.27525724232E+03  0.27525724232E+03  0.00000000000E+00 0.  1.
          2   -1    0    0  501    0  0.00000000000E+00 -0.00000000000E+00 -0.38865804439E+04  0.38865804439E+04  0.00000000000E+00 0. -1.
         23    2    1    2    0    0 -0.54228942912E+03 -0.69174460024E+03 -0.71953028817E+03  0.11394123900E+04  0.89153474984E+02 0.  0.
         13    1    3    3    0    0 -0.30873971904E+03 -0.35369266573E+03 -0.43119713854E+03  0.63745563625E+03  0.00000000000E+00 0.  1.
        -13    1    3    3    0    0 -0.23354971007E+03 -0.33805193451E+03 -0.28833314963E+03  0.50195675379E+03  0.00000000000E+00 0. -1.
         22    1    1    2    0    0  0.54228942912E+03  0.69174460024E+03 -0.28917929134E+04  0.30224252962E+04  0.00000000000E+00 0. -1.
<mgrwt>
<rscale>  0 0.20686318E+04</rscale>
<asrwt>0</asrwt>
<pdfrwt beam="1">  1        2 0.59793544E+00 0.20686318E+04</pdfrwt>
<pdfrwt beam="2">  1       -2 0.42347269E-01 0.20686318E+04</pdfrwt>
<totfact> 0.20735142E+00</totfact>
</mgrwt>
</event>
<event>
 6    1  0.1817112E-005  0.3203990E+04  0.7818608E-02  0.8187764E-01
          2   -1    0    0  501    0  0.00000000000E+00  0.00000000000E+00  0.22688032539E+04  0.22688032539E+04  0.00000000000E+00 0. -1.
         -2   -1    0    0    0  501 -0.00000000000E+00 -0.00000000000E+00 -0.11311638725E+04  0.11311638725E+04  0.00000000000E+00 0.  1.
         23    2    1    2    0    0  0.56246519681E+03  0.24374046948E+03  0.21383920824E+04  0.22263903361E+04  0.91196035105E+02 0.  0.
         11    1    3    3    0    0  0.39827435027E+03  0.19945058957E+03  0.14241372185E+04  0.14921694987E+04  0.00000000000E+00 0. -1.
        -11    1    3    3    0    0  0.16419084654E+03  0.44289879911E+02  0.71425486392E+03  0.73422083747E+03  0.00000000000E+00 0.  1.
         22    1    1    2    0    0 -0.56246519681E+03 -0.24374046948E+03 -0.10007527010E+04  0.11735767902E+04  0.00000000000E+00 0.  1.
<mgrwt>
<rscale>  0 0.32039902E+04</rscale>
<asrwt>0</asrwt>
<pdfrwt beam="1">  1        2 0.34904666E+00 0.32039902E+04</pdfrwt>
<pdfrwt beam="2">  1       -2 0.17402521E+00 0.32039902E+04</pdfrwt>
<totfact> 0.79340176E-01</totfact>
</mgrwt>
</event>
<event>
 6    1  0.1817112E-005  0.4012735E+04  0.7818608E-02  0.8001982E-01
          2   -1    0    0  501    0  0.00000000000E+00  0.00000000000E+00  0.12567637086E+04  0.12567637086E+04  0.00000000000E+00 0.  1.
         -2   -1    0    0    0  501 -0.00000000000E+00 -0.00000000000E+00 -0.32030768548E+04  0.32030768548E+04  0.00000000000E+00 0. -1.
         23    2    1    2    0    0  0.10967941560E+04 -0.69063587623E+03  0.72705016806E+03  0.14888463284E+04  0.90144931350E+02 0.  0.
         11    1    3    3    0    0  0.38825933860E+03 -0.26009262247E+03  0.21528669920E+03  0.51453070766E+03  0.00000000000E+00 0.  1.
        -11    1    3    3    0    0  0.70853481742E+03 -0.43054325376E+03  0.51176346886E+03  0.97431562079E+03  0.00000000000E+00 0. -1.
         22    1    1    2    0    0 -0.10967941560E+04  0.69063587623E+03 -0.26733633143E+04  0.29709942350E+04  0.00000000000E+00 0. -1.
<mgrwt>
<rscale>  0 0.40127351E+04</rscale>
<asrwt>0</asrwt>
<pdfrwt beam="1">  1        2 0.19334826E+00 0.40127351E+04</pdfrwt>
<pdfrwt beam="2">  1       -2 0.49278105E+00 0.40127351E+04</pdfrwt>
<totfact> 0.25306815E-02</totfact>
</mgrwt>
</event>
<event>
 6    1  0.2073772E-005  0.3008306E+04  0.7818608E-02  0.8241363E-01
         -2   -1    0    0    0  501 -0.00000000000E+00  0.00000000000E+00  0.19116015341E+04  0.19116015341E+04  0.00000000000E+00 0.  1.
          2   -1    0    0  501    0  0.00000000000E+00 -0.00000000000E+00 -0.11835498509E+04  0.11835498509E+04  0.00000000000E+00 0. -1.
         23    2    1    2    0    0 -0.39403795819E+03 -0.97995874693E+02  0.18529982801E+04  0.18991689647E+04  0.91493315418E+02 0.  0.
         11    1    3    3    0    0 -0.23706406040E+03 -0.13066009526E+02  0.10945139958E+04  0.11199691854E+04  0.00000000000E+00 0.  1.
        -11    1    3    3    0    0 -0.15697389779E+03 -0.84929865167E+02  0.75848428425E+03  0.77919977929E+03  0.00000000000E+00 0. -1.
         22    1    1    2    0    0  0.39403795819E+03  0.97995874693E+02 -0.11249465968E+04  0.11959824203E+04  0.00000000000E+00 0. -1.
<mgrwt>
<rscale>  0 0.30083056E+04</rscale>
<asrwt>0</asrwt>
<pdfrwt beam="1">  1        2 0.18208459E+00 0.30083056E+04</pdfrwt>
<pdfrwt beam="2">  1       -2 0.29409254E+00 0.30083056E+04</pdfrwt>
<totfact> 0.57249885E-01</totfact>
</mgrwt>
</event>
<event>
 6    1  0.1817112E-005  0.6384783E+03  0.7818608E-02  0.9828642E-01
          4   -1    0    0  501    0  0.00000000000E+00  0.00000000000E+00  0.53605383553E+03  0.53605383553E+03  0.00000000000E+00 0.  1.
         -4   -1    0    0    0  501 -0.00000000000E+00 -0.00000000000E+00 -0.19011827687E+03  0.19011827687E+03  0.00000000000E+00 0. -1.
         23    2    1    2    0    0  0.27316320474E+03  0.14812354010E+02  0.39471686661E+01  0.28822964911E+03  0.90681906830E+02 0.  0.
         13    1    3    3    0    0  0.26434407156E+03  0.10370905594E+02  0.24246331775E+02  0.26565622232E+03  0.00000000000E+00 0. -1.
        -13    1    3    3    0    0  0.88191331873E+01  0.44414484156E+01 -0.20299163109E+02  0.22573426792E+02  0.00000000000E+00 0.  1.
         22    1    1    2    0    0 -0.27316320474E+03 -0.14812354010E+02  0.34198839000E+03  0.43794246329E+03  0.00000000000E+00 0.  1.
<mgrwt>
<rscale>  0 0.63847829E+03</rscale>
<asrwt>0</asrwt>
<pdfrwt beam="1">  1        4 0.82469820E-01 0.63847829E+03</pdfrwt>
<pdfrwt beam="2">  1       -4 0.29248966E-01 0.63847829E+03</pdfrwt>
<totfact> 0.28929438E+01</totfact>
</mgrwt>
</event>
<event>
 6    1  0.1817112E-005  0.3937585E+04  0.7818608E-02  0.8017257E-01
          2   -1    0    0  501    0  0.00000000000E+00  0.00000000000E+00  0.33717634931E+04  0.33717634931E+04  0.00000000000E+00 0. -1.
         -2   -1    0    0    0  501 -0.00000000000E+00 -0.00000000000E+00 -0.11495893445E+04  0.11495893445E+04  0.00000000000E+00 0.  1.
         23    2    1    2    0    0 -0.41990552111E+02  0.13902396431E+04 -0.48659834701E+03  0.14763605708E+04  0.91285880528E+02 0.  0.
         11    1    3    3    0    0 -0.24369297082E+02  0.11554092750E+04 -0.36905007969E+03  0.12131621560E+04  0.00000000000E+00 0. -1.
        -11    1    3    3    0    0 -0.17621255030E+02  0.23483036812E+03 -0.11754826733E+03  0.26319841484E+03  0.00000000000E+00 0.  1.
         22    1    1    2    0    0  0.41990552111E+02 -0.13902396431E+04  0.27087724957E+04  0.30449922668E+04  0.00000000000E+00 0. -1.
<mgrwt>
<rscale>  0 0.39375847E+04</rscale>
<asrwt>0</asrwt>
<pdfrwt beam="1">  1        2 0.51873284E+00 0.39375847E+04</pdfrwt>
<pdfrwt beam="2">  1       -2 0.17685990E+00 0.39375847E+04</pdfrwt>
<totfact> 0.15044054E-01</totfact>
</mgrwt>
</event>
<event>
 6    1  0.1817112E-005  0.1345257E+04  0.7818608E-02  0.8994426E-01
         -2   -1    0    0    0  501 -0.00000000000E+00  0.00000000000E+00  0.22689541505E+03  0.22689541505E+03  0.00000000000E+00 0.  1.
          2   -1    0    0  501    0  0.00000000000E+00 -0.00000000000E+00 -0.19939995626E+04  0.19939995626E+04  0.00000000000E+00 0. -1.
         23    2    1    2    0    0 -0.48217282342E+03  0.28577851423E+03 -0.28374056216E+03  0.63516879786E+03  0.93652038514E+02 0.  0.
         11    1    3    3    0    0 -0.34113766065E+03  0.18659520681E+03 -0.24123387614E+03  0.45758765031E+03  0.00000000000E+00 0. -1.
        -11    1    3    3    0    0 -0.14103516277E+03  0.99183307420E+02 -0.42506686020E+02  0.17758114755E+03  0.00000000000E+00 0.  1.
         22    1    1    2    0    0  0.48217282342E+03 -0.28577851423E+03 -0.14833635853E+04  0.15857261798E+04  0.00000000000E+00 0. -1.
<mgrwt>
<rscale>  0 0.13452574E+04</rscale>
<asrwt>0</asrwt>
<pdfrwt beam="1">  1        2 0.30676916E+00 0.13452574E+04</pdfrwt>
<pdfrwt beam="2">  1       -2 0.34906987E-01 0.13452574E+04</pdfrwt>
<totfact> 0.50692045E+01</totfact>
</mgrwt>
</event>
<event>
 6    1  0.1817112E-005  0.1337590E+04  0.7818608E-02  0.9000276E-01
         -2   -1    0    0    0  501 -0.00000000000E+00  0.00000000000E+00  0.21332936090E+03  0.21332936090E+03  0.00000000000E+00 0.  1.
          2   -1    0    0  501    0  0.00000000000E+00 -0.00000000000E+00 -0.20966963415E+04  0.20966963415E+04  0.00000000000E+00 0. -1.
         23    2    1    2    0    0 -0.32420781707E+03  0.84042461726E+02 -0.19395575275E+04  0.19704211948E+04  0.92208667591E+02 0.  0.
         11    1    3    3    0    0 -0.16502762058E+03  0.69450994820E+02 -0.80589930922E+03  0.82554906143E+03  0.00000000000E+00 0. -1.
        -11    1    3    3    0    0 -0.15918019649E+03  0.14591466906E+02 -0.11336582183E+04  0.11448721334E+04  0.00000000000E+00 0.  1.
         22    1    1    2    0    0  0.32420781707E+03 -0.84042461726E+02  0.56190546909E+02  0.33960450761E+03  0.00000000000E+00 0.  1.
<mgrwt>
<rscale>  0 0.13375902E+04</rscale>
<asrwt>0</asrwt>
<pdfrwt beam="1">  1        2 0.32256865E+00 0.13375902E+04</pdfrwt>
<pdfrwt beam="2">  1       -2 0.32819903E-01 0.13375902E+04</pdfrwt>
<totfact> 0.50019098E+01</totfact>
</mgrwt>
</event>
<event>
 6    1  0.1817112E-005  0.1402799E+04  0.7818608E-02  0.8951795E-01
         -4   -1    0    0    0  501 -0.00000000000E+00  0.00000000000E+00  0.18147242623E+04  0.18147242623E+04  0.00000000000E+00 0.  1.
          4   -1    0    0  501    0  0.00000000000E+00 -0.00000000000E+00 -0.27109440330E+03  0.27109440330E+03  0.00000000000E+00 0. -1.
         23    2    1    2    0    0 -0.13024569421E+03 -0.27896144740E+03 -0.15758870437E+03  0.35696701484E+03  0.88361869236E+02 0.  0.
         13    1    3    3    0    0 -0.93012019075E+02 -0.10239008470E+03 -0.85669501878E+02  0.16270903076E+03  0.00000000000E+00 0. -1.
        -13    1    3    3    0    0 -0.37233675140E+02 -0.17657136270E+03 -0.71919202496E+02  0.19425798408E+03  0.00000000000E+00 0.  1.
         22    1    1    2    0    0  0.13024569421E+03  0.27896144740E+03  0.17012185633E+04  0.17288516507E+04  0.00000000000E+00 0.  1.
<mgrwt>
<rscale>  0 0.14027995E+04</rscale>
<asrwt>0</asrwt>
<pdfrwt beam="1">  1        4 0.41706832E-01 0.14027995E+04</pdfrwt>
<pdfrwt beam="2">  1       -4 0.27918834E+00 0.14027995E+04</pdfrwt>
<totfact> 0.45645061E-01</totfact>
</mgrwt>
</event>
<event>
 6    1  0.1817112E-005  0.1421251E+04  0.7818608E-02  0.8938578E-01
          2   -1    0    0  501    0  0.00000000000E+00  0.00000000000E+00  0.10798751836E+04  0.10798751836E+04  0.00000000000E+00 0. -1.
         -2   -1    0    0    0  501 -0.00000000000E+00 -0.00000000000E+00 -0.46763578028E+03  0.46763578028E+03  0.00000000000E+00 0.  1.
         23    2    1    2    0    0 -0.13136404005E+02  0.67988221856E+03  0.94264917584E+02  0.69269521527E+03  0.92349284503E+02 0.  0.
         11    1    3    3    0    0  0.28374053592E+02  0.35656357576E+03  0.19283749557E+02  0.35821018058E+03  0.00000000000E+00 0. -1.
        -11    1    3    3    0    0 -0.41510457597E+02  0.32331864280E+03  0.74981168027E+02  0.33448503469E+03  0.00000000000E+00 0.  1.
         22    1    1    2    0    0  0.13136404005E+02 -0.67988221856E+03  0.51797448576E+03  0.85481574864E+03  0.00000000000E+00 0. -1.
<mgrwt>
<rscale>  0 0.14212505E+04</rscale>
<asrwt>0</asrwt>
<pdfrwt beam="1">  1        2 0.16613464E+00 0.14212505E+04</pdfrwt>
<pdfrwt beam="2">  1       -2 0.71943967E-01 0.14212505E+04</pdfrwt>
<totfact> 0.38150254E+01</totfact>
</mgrwt>
</event>
<event>
 6    1  0.1817112E-005  0.2740402E+04  0.7818608E-02  0.8322014E-01
         -2   -1    0    0    0  501 -0.00000000000E+00  0.00000000000E+00  0.16245538884E+04  0.16245538884E+04  0.00000000000E+00 0.  1.
          2   -1    0    0  501    0  0.00000000000E+00 -0.00000000000E+00 -0.11556719271E+04  0.11556719271E+04  0.00000000000E+00 0. -1.
         23    2    1    2    0    0 -0.40897401709E+03  0.20138016048E+03 -0.10745798561E+04  0.11708507512E+04  0.91410604632E+02 0.  0.
         11    1    3    3    0    0 -0.28307202098E+03  0.17281880606E+03 -0.83978412190E+03  0.90290280772E+03  0.00000000000E+00 0. -1.
        -11    1    3    3    0    0 -0.12590199611E+03  0.28561354415E+02 -0.23479573424E+03  0.26794794346E+03  0.00000000000E+00 0.  1.
         22    1    1    2    0    0  0.40897401709E+03 -0.20138016048E+03  0.15434618174E+04  0.16093750643E+04  0.00000000000E+00 0.  1.
<mgrwt>
<rscale>  0 0.27404024E+04</rscale>
<asrwt>0</asrwt>
<pdfrwt beam="1">  1        2 0.17779568E+00 0.27404024E+04</pdfrwt>
<pdfrwt beam="2">  1       -2 0.24993137E+00 0.27404024E+04</pdfrwt>
<totfact> 0.11328632E+00</totfact>
</mgrwt>
</event>
<event>
 6    1  0.1817112E-005  0.1092845E+04  0.7818608E-02  0.9212194E-01
         -1   -1    0    0    0  501 -0.00000000000E+00  0.00000000000E+00  0.42095200913E+03  0.42095200913E+03  0.00000000000E+00 0.  1.
          1   -1    0    0  501    0  0.00000000000E+00 -0.00000000000E+00 -0.70929125656E+03  0.70929125656E+03  0.00000000000E+00 0. -1.
         23    2    1    2    0    0 -0.31526145771E+02  0.20629907328E+03  0.37281351775E+03  0.43693512033E+03  0.91483194405E+02 0.  0.
         13    1    3    3    0    0 -0.15422490096E+02  0.19816949061E+03  0.28613621843E+03  0.34840053919E+03  0.00000000000E+00 0.  1.
        -13    1    3    3    0    0 -0.16103655676E+02  0.81295826689E+01  0.86677299324E+02  0.88534581146E+02  0.00000000000E+00 0. -1.
         22    1    1    2    0    0  0.31526145771E+02 -0.20629907328E+03 -0.66115276518E+03  0.69330814535E+03  0.00000000000E+00 0. -1.
<mgrwt>
<rscale>  0 0.10928451E+04</rscale>
<asrwt>0</asrwt>
<pdfrwt beam="1">  1        1 0.10912173E+00 0.10928451E+04</pdfrwt>
<pdfrwt beam="2">  1       -1 0.64761848E-01 0.10928451E+04</pdfrwt>
<totfact> 0.64369916E+01</totfact>
</mgrwt>
</event>
<event>
 6    1  0.1817112E-005  0.1651665E+04  0.7818608E-02  0.8789422E-01
          2   -1    0    0  501    0  0.00000000000E+00  0.00000000000E+00  0.24349295010E+04  0.24349295010E+04  0.00000000000E+00 0. -1.
         -2   -1    0    0    0  501 -0.00000000000E+00 -0.00000000000E+00 -0.28009006035E+03  0.28009006035E+03  0.00000000000E+00 0.  1.
         23    2    1    2    0    0  0.62611693145E+03 -0.33545089786E+03  0.39704125076E+03  0.81912816332E+03  0.93698860279E+02 0.  0.
         13    1    3    3    0    0  0.32261505522E+02  0.38942172144E+01  0.17718084151E+02  0.37012162491E+02  0.00000000000E+00 0.  1.
        -13    1    3    3    0    0  0.59385542593E+03 -0.33934511507E+03  0.37932316660E+03  0.78211600083E+03  0.00000000000E+00 0. -1.
         22    1    1    2    0    0 -0.62611693145E+03  0.33545089786E+03  0.17577981899E+04  0.18958913980E+04  0.00000000000E+00 0. -1.
<mgrwt>
<rscale>  0 0.16516653E+04</rscale>
<asrwt>0</asrwt>
<pdfrwt beam="1">  1        2 0.37460453E+00 0.16516653E+04</pdfrwt>
<pdfrwt beam="2">  1       -2 0.43090780E-01 0.16516653E+04</pdfrwt>
<totfact> 0.18542179E+01</totfact>
</mgrwt>
</event>
<event>
 6    1  0.1817112E-005  0.1639387E+04  0.7818608E-02  0.8796710E-01
          2   -1    0    0  501    0  0.00000000000E+00  0.00000000000E+00  0.12539771439E+04  0.12539771439E+04  0.00000000000E+00 0. -1.
         -2   -1    0    0    0  501 -0.00000000000E+00 -0.00000000000E+00 -0.53581335827E+03  0.53581335827E+03  0.00000000000E+00 0.  1.
         23    2    1    2    0    0  0.83612803684E+02 -0.79138640056E+03  0.56253200714E+03  0.97892381375E+03  0.92552893673E+02 0.  0.
         11    1    3    3    0    0  0.17038729219E+02 -0.45643160468E+03  0.36274666391E+03  0.58327118069E+03  0.00000000000E+00 0.  1.
        -11    1    3    3    0    0  0.66574074465E+02 -0.33495479589E+03  0.19978534323E+03  0.39565263306E+03  0.00000000000E+00 0. -1.
         22    1    1    2    0    0 -0.83612803684E+02  0.79138640056E+03  0.15563177850E+03  0.81086668844E+03  0.00000000000E+00 0. -1.
<mgrwt>
<rscale>  0 0.16393873E+04</rscale>
<asrwt>0</asrwt>
<pdfrwt beam="1">  1        2 0.19291956E+00 0.16393873E+04</pdfrwt>
<pdfrwt beam="2">  1       -2 0.82432825E-01 0.16393873E+04</pdfrwt>
<totfact> 0.21730219E+01</totfact>
</mgrwt>
</event>
<event>
 6    1  0.1817112E-005  0.1743448E+04  0.7818608E-02  0.8736965E-01
          1   -1    0    0  501    0  0.00000000000E+00  0.00000000000E+00  0.11187697080E+04  0.11187697080E+04  0.00000000000E+00 0. -1.
         -1   -1    0    0    0  501 -0.00000000000E+00 -0.00000000000E+00 -0.67923065110E+03  0.67923065110E+03  0.00000000000E+00 0.  1.
         23    2    1    2    0    0 -0.75203769220E+03 -0.25145649366E+03  0.58813517320E+03  0.99123405807E+03  0.88605401902E+02 0.  0.
         13    1    3    3    0    0 -0.19242222540E+03 -0.24568762440E+02  0.13808834813E+03  0.23811410879E+03  0.00000000000E+00 0. -1.
        -13    1    3    3    0    0 -0.55961546680E+03 -0.22688773122E+03  0.45004682506E+03  0.75311994928E+03  0.00000000000E+00 0.  1.
         22    1    1    2    0    0  0.75203769220E+03  0.25145649366E+03 -0.14859611630E+03  0.80676630103E+03  0.00000000000E+00 0.  1.
<mgrwt>
<rscale>  0 0.17434479E+04</rscale>
<asrwt>0</asrwt>
<pdfrwt beam="1">  1        1 0.17211842E+00 0.17434479E+04</pdfrwt>
<pdfrwt beam="2">  1       -1 0.10449702E+00 0.17434479E+04</pdfrwt>
<totfact> 0.10020260E+01</totfact>
</mgrwt>
</event>
<event>
 6    1  0.1817112E-005  0.1111106E+04  0.7818608E-02  0.9194434E-01
          2   -1    0    0  501    0  0.00000000000E+00  0.00000000000E+00  0.60084474521E+03  0.60084474521E+03  0.00000000000E+00 0. -1.
         -2   -1    0    0    0  501 -0.00000000000E+00 -0.00000000000E+00 -0.51367546372E+03  0.51367546372E+03  0.00000000000E+00 0.  1.
         23    2    1    2    0    0  0.44536168376E+03 -0.20342575612E+03 -0.21173086118E+03  0.54087366017E+03  0.89360455915E+02 0.  0.
         13    1    3    3    0    0  0.13128475026E+02 -0.25856997806E+02 -0.22593185650E+02  0.36761300710E+02  0.00000000000E+00 0. -1.
        -13    1    3    3    0    0  0.43223320873E+03 -0.17756875832E+03 -0.18913767553E+03  0.50411235946E+03  0.00000000000E+00 0.  1.
         22    1    1    2    0    0 -0.44536168376E+03  0.20342575612E+03  0.29890014266E+03  0.57364654875E+03  0.00000000000E+00 0. -1.
<mgrwt>
<rscale>  0 0.11111061E+04</rscale>
<asrwt>0</asrwt>
<pdfrwt beam="1">  1        2 0.92437653E-01 0.11111061E+04</pdfrwt>
<pdfrwt beam="2">  1       -2 0.79026994E-01 0.11111061E+04</pdfrwt>
<totfact> 0.69844428E+01</totfact>
</mgrwt>
</event>
<event>
 6    1  0.1817112E-005  0.1795304E+04  0.7818608E-02  0.8708801E-01
          2   -1    0    0  501    0  0.00000000000E+00  0.00000000000E+00  0.95759335610E+03  0.95759335610E+03  0.00000000000E+00 0. -1.
         -2   -1    0    0    0  501 -0.00000000000E+00 -0.00000000000E+00 -0.84146249904E+03  0.84146249904E+03  0.00000000000E+00 0.  1.
         23    2    1    2    0    0 -0.34295115927E+03 -0.28187026730E+03  0.83748179043E+03  0.95205319026E+03  0.89236665996E+02 0.  0.
         13    1    3    3    0    0 -0.33662254701E+02 -0.10310580796E+01  0.84099203295E+02  0.90591867555E+02  0.00000000000E+00 0. -1.
        -13    1    3    3    0    0 -0.30928890457E+03 -0.28083920922E+03  0.75338258713E+03  0.86146132270E+03  0.00000000000E+00 0.  1.
         22    1    1    2    0    0  0.34295115927E+03  0.28187026730E+03 -0.72135093337E+03  0.84700266488E+03  0.00000000000E+00 0.  1.
<mgrwt>
<rscale>  0 0.17953038E+04</rscale>
<asrwt>0</asrwt>
<pdfrwt beam="1">  1        2 0.14732206E+00 0.17953038E+04</pdfrwt>
<pdfrwt beam="2">  1       -2 0.12945577E+00 0.17953038E+04</pdfrwt>
<totfact> 0.11125819E+01</totfact>
</mgrwt>
</event>
<event>
 6    1  0.1817112E-005  0.1409910E+04  0.7818608E-02  0.8946676E-01
         -2   -1    0    0    0  501 -0.00000000000E+00  0.00000000000E+00  0.38202291630E+03  0.38202291630E+03  0.00000000000E+00 0.  1.
          2   -1    0    0  501    0  0.00000000000E+00 -0.00000000000E+00 -0.13008692676E+04  0.13008692676E+04  0.00000000000E+00 0. -1.
         23    2    1    2    0    0 -0.60909701497E+03 -0.46044365608E+02 -0.87530765575E+03  0.10705076027E+04  0.81876601920E+02 0.  0.
         13    1    3    3    0    0 -0.49585353936E+03 -0.24071929780E+02 -0.65552559684E+03  0.82229191800E+03  0.00000000000E+00 0.  1.
        -13    1    3    3    0    0 -0.11324347562E+03 -0.21972435829E+02 -0.21978205891E+03  0.24821568468E+03  0.00000000000E+00 0. -1.
         22    1    1    2    0    0  0.60909701497E+03  0.46044365608E+02 -0.43538695514E+02  0.61238458118E+03  0.00000000000E+00 0. -1.
<mgrwt>
<rscale>  0 0.14099105E+04</rscale>
<asrwt>0</asrwt>
<pdfrwt beam="1">  1        2 0.20013373E+00 0.14099105E+04</pdfrwt>
<pdfrwt beam="2">  1       -2 0.58772757E-01 0.14099105E+04</pdfrwt>
<totfact> 0.43446936E+01</totfact>
</mgrwt>
</event>
<event>
 6    1  0.1817112E-005  0.1764278E+04  0.7818608E-02  0.8725530E-01
         -2   -1    0    0    0  501 -0.00000000000E+00  0.00000000000E+00  0.55436506055E+03  0.55436506055E+03  0.00000000000E+00 0.  1.
          2   -1    0    0  501    0  0.00000000000E+00 -0.00000000000E+00 -0.14037127412E+04  0.14037127412E+04  0.00000000000E+00 0. -1.
         23    2    1    2    0    0  0.31151533289E+03  0.61389276307E+03  0.18224294792E+03  0.71788211069E+03  0.90752992266E+02 0.  0.
         11    1    3    3    0    0  0.62177752389E+02  0.81929625415E+02  0.28823824478E+00  0.10285241608E+03  0.00000000000E+00 0.  1.
        -11    1    3    3    0    0  0.24933758050E+03  0.53196313765E+03  0.18195470968E+03  0.61502969460E+03  0.00000000000E+00 0. -1.
         22    1    1    2    0    0 -0.31151533289E+03 -0.61389276307E+03 -0.10315906286E+04  0.12401956911E+04  0.00000000000E+00 0. -1.
<mgrwt>
<rscale>  0 0.17642781E+04</rscale>
<asrwt>0</asrwt>
<pdfrwt beam="1">  1        2 0.21595581E+00 0.17642781E+04</pdfrwt>
<pdfrwt beam="2">  1       -2 0.85286932E-01 0.17642781E+04</pdfrwt>
<totfact> 0.16301900E+01</totfact>
</mgrwt>
</event>
<event>
 6    1  0.1817112E-005  0.1941083E+04  0.7818608E-02  0.8634673E-01
          1   -1    0    0  501    0  0.00000000000E+00  0.00000000000E+00  0.14085413612E+04  0.14085413612E+04  0.00000000000E+00 0. -1.
         -1   -1    0    0    0  501 -0.00000000000E+00 -0.00000000000E+00 -0.66874223218E+03  0.66874223218E+03  0.00000000000E+00 0.  1.
         23    2    1    2    0    0  0.33353446826E+03  0.23289881450E+03 -0.56990588573E+03  0.70585575168E+03  0.89176926828E+02 0.  0.
         13    1    3    3    0    0  0.19338692085E+03  0.18479126663E+03 -0.34541482654E+03  0.43687265395E+03  0.00000000000E+00 0. -1.
        -13    1    3    3    0    0  0.14014754741E+03  0.48107547874E+02 -0.22449105919E+03  0.26898309773E+03  0.00000000000E+00 0.  1.
         22    1    1    2    0    0 -0.33353446826E+03 -0.23289881450E+03  0.13097050148E+04  0.13714278417E+04  0.00000000000E+00 0. -1.
<mgrwt>
<rscale>  0 0.19410833E+04</rscale>
<asrwt>0</asrwt>
<pdfrwt beam="1">  1        1 0.21669867E+00 0.19410833E+04</pdfrwt>
<pdfrwt beam="2">  1       -1 0.10288342E+00 0.19410833E+04</pdfrwt>
<totfact> 0.63063118E+00</totfact>
</mgrwt>
</event>
<event>
 6    1  0.1817112E-005  0.4603195E+03  0.7818608E-02  0.1024689E+00
         -2   -1    0    0    0  501 -0.00000000000E+00  0.00000000000E+00  0.52500720338E+02  0.52500720338E+02  0.00000000000E+00 0.  1.
          2   -1    0    0  501    0  0.00000000000E+00 -0.00000000000E+00 -0.10090055892E+04  0.10090055892E+04  0.00000000000E+00 0. -1.
         23    2    1    2    0    0  0.77999747010E+02 -0.16970502161E+03 -0.76856234498E+03  0.79654188328E+03  0.94377639378E+02 0.  0.
         11    1    3    3    0    0  0.86583608211E+02 -0.17728768824E+03 -0.73748806467E+03  0.76342405722E+03  0.00000000000E+00 0. -1.
        -11    1    3    3    0    0 -0.85838612007E+01  0.75826666365E+01 -0.31074280310E+02  0.33117826064E+02  0.00000000000E+00 0.  1.
         22    1    1    2    0    0 -0.77999747010E+02  0.16970502161E+03 -0.18794252386E+03  0.26496442623E+03  0.00000000000E+00 0.  1.
<mgrwt>
<rscale>  0 0.46031954E+03</rscale>
<asrwt>0</asrwt>
<pdfrwt beam="1">  1        2 0.15523163E+00 0.46031954E+03</pdfrwt>
<pdfrwt beam="2">  1       -2 0.80770337E-02 0.46031954E+03</pdfrwt>
<totfact> 0.24188536E+03</totfact>
</mgrwt>
</event>
<event>
 6    1  0.1817112E-005  0.2540634E+04  0.7818608E-02  0.8388651E-01
         -2   -1    0    0    0  501 -0.00000000000E+00  0.00000000000E+00  0.85430784197E+03  0.85430784197E+03  0.00000000000E+00 0.  1.
          2   -1    0    0  501    0  0.00000000000E+00 -0.00000000000E+00 -0.18889044313E+04  0.18889044313E+04  0.00000000000E+00 0. -1.
         23    2    1    2    0    0 -0.11623995462E+03 -0.12440556536E+04 -0.28061026252E+03  0.12838694153E+04  0.91609823877E+02 0.  0.
         11    1    3    3    0    0 -0.35047496863E+02 -0.77389644731E+03 -0.19876360904E+03  0.79978185180E+03  0.00000000000E+00 0. -1.
        -11    1    3    3    0    0 -0.81192457752E+02 -0.47015920625E+03 -0.81846653483E+02  0.48408756347E+03  0.00000000000E+00 0.  1.
         22    1    1    2    0    0  0.11623995462E+03  0.12440556536E+04 -0.75398632681E+03  0.14593428580E+04  0.00000000000E+00 0. -1.
<mgrwt>
<rscale>  0 0.25406345E+04</rscale>
<asrwt>0</asrwt>
<pdfrwt beam="1">  1        2 0.29060068E+00 0.25406345E+04</pdfrwt>
<pdfrwt beam="2">  1       -2 0.13143198E+00 0.25406345E+04</pdfrwt>
<totfact> 0.28920413E+00</totfact>
</mgrwt>
</event>
<event>
 6    1  0.1817112E-005  0.2618042E+04  0.7818608E-02  0.8362099E-01
         -2   -1    0    0    0  501 -0.00000000000E+00  0.00000000000E+00  0.67714876383E+03  0.67714876383E+03  0.00000000000E+00 0.  1.
          2   -1    0    0  501    0  0.00000000000E+00 -0.00000000000E+00 -0.25305156590E+04  0.25305156590E+04  0.00000000000E+00 0. -1.
         23    2    1    2    0    0  0.11893181096E+04  0.13944835411E+03 -0.15709372640E+04  0.19773433648E+04  0.90108188733E+02 0.  0.
         11    1    3    3    0    0  0.54639554297E+03  0.19507270883E+02 -0.72753101421E+03  0.91007142556E+03  0.00000000000E+00 0. -1.
        -11    1    3    3    0    0  0.64292256659E+03  0.11994108323E+03 -0.84340624981E+03  0.10672719392E+04  0.00000000000E+00 0.  1.
         22    1    1    2    0    0 -0.11893181096E+04 -0.13944835411E+03 -0.28242963111E+03  0.12303210580E+04  0.00000000000E+00 0.  1.
<mgrwt>
<rscale>  0 0.26180417E+04</rscale>
<asrwt>0</asrwt>
<pdfrwt beam="1">  1        2 0.38931010E+00 0.26180417E+04</pdfrwt>
<pdfrwt beam="2">  1       -2 0.10417673E+00 0.26180417E+04</pdfrwt>
<totfact> 0.22105828E+00</totfact>
</mgrwt>
</event>
<event>
 6    1  0.1817112E-005  0.2833061E+04  0.7818608E-02  0.8293077E-01
          2   -1    0    0  501    0  0.00000000000E+00  0.00000000000E+00  0.31285894509E+04  0.31285894509E+04  0.00000000000E+00 0. -1.
         -2   -1    0    0    0  501 -0.00000000000E+00 -0.00000000000E+00 -0.64136205403E+03  0.64136205403E+03  0.00000000000E+00 0.  1.
         23    2    1    2    0    0 -0.33050424709E+03 -0.18956594132E+02  0.30757102111E+04  0.30947445497E+04  0.88646009900E+02 0.  0.
         11    1    3    3    0    0 -0.15607188937E+03  0.26815352907E+02  0.16760315484E+04  0.16834961388E+04  0.00000000000E+00 0. -1.
        -11    1    3    3    0    0 -0.17443235772E+03 -0.45771947039E+02  0.13996786627E+04  0.14112484109E+04  0.00000000000E+00 0.  1.
         22    1    1    2    0    0  0.33050424709E+03  0.18956594132E+02 -0.58848281424E+03  0.67520695528E+03  0.00000000000E+00 0.  1.
<mgrwt>
<rscale>  0 0.28330609E+04</rscale>
<asrwt>0</asrwt>
<pdfrwt beam="1">  1        2 0.48132145E+00 0.28330609E+04</pdfrwt>
<pdfrwt beam="2">  1       -2 0.98671087E-01 0.28330609E+04</pdfrwt>
<totfact> 0.10668563E+00</totfact>
</mgrwt>
</event>
<event>
 6    1  0.1817112E-005  0.3425116E+04  0.7818608E-02  0.8131769E-01
          2   -1    0    0  501    0  0.00000000000E+00  0.00000000000E+00  0.16446409966E+04  0.16446409966E+04  0.00000000000E+00 0. -1.
         -2   -1    0    0    0  501 -0.00000000000E+00 -0.00000000000E+00 -0.17832793805E+04  0.17832793805E+04  0.00000000000E+00 0.  1.
         23    2    1    2    0    0 -0.86787032656E+03  0.52755168579E+03 -0.14478497691E+04  0.17709520201E+04  0.92154321234E+02 0.  0.
         11    1    3    3    0    0 -0.63216323024E+03  0.34074138787E+03 -0.10538707598E+04  0.12752955036E+04  0.00000000000E+00 0. -1.
        -11    1    3    3    0    0 -0.23570709632E+03  0.18681029792E+03 -0.39397900928E+03  0.49565651657E+03  0.00000000000E+00 0.  1.
         22    1    1    2    0    0  0.86787032656E+03 -0.52755168579E+03  0.13092113851E+04  0.16569683569E+04  0.00000000000E+00 0. -1.
<mgrwt>
<rscale>  0 0.34251157E+04</rscale>
<asrwt>0</asrwt>
<pdfrwt beam="1">  1        2 0.25302169E+00 0.34251157E+04</pdfrwt>
<pdfrwt beam="2">  1       -2 0.27435067E+00 0.34251157E+04</pdfrwt>
<totfact> 0.39686189E-01</totfact>
</mgrwt>
</event>
<event>
 6    1  0.1817112E-005  0.2237601E+04  0.7818608E-02  0.8502939E-01
         -2   -1    0    0    0  501 -0.00000000000E+00  0.00000000000E+00  0.20808544006E+04  0.20808544006E+04  0.00000000000E+00 0.  1.
          2   -1    0    0  501    0  0.00000000000E+00 -0.00000000000E+00 -0.60153889814E+03  0.60153889814E+03  0.00000000000E+00 0. -1.
         23    2    1    2    0    0  0.81092965189E+03 -0.31300730240E+02  0.16607711488E+04  0.18508208199E+04  0.93756399313E+02 0.  0.
         13    1    3    3    0    0  0.25135011852E+03 -0.95010077531E+00  0.42194528169E+03  0.49113705369E+03  0.00000000000E+00 0.  1.
        -13    1    3    3    0    0  0.55957953337E+03 -0.30350629465E+02  0.12388258671E+04  0.13596837662E+04  0.00000000000E+00 0. -1.
         22    1    1    2    0    0 -0.81092965189E+03  0.31300730240E+02 -0.18145564636E+03  0.83157247888E+03  0.00000000000E+00 0. -1.
<mgrwt>
<rscale>  0 0.22376013E+04</rscale>
<asrwt>0</asrwt>
<pdfrwt beam="1">  1        2 0.92544447E-01 0.22376013E+04</pdfrwt>
<pdfrwt beam="2">  1       -2 0.32013144E+00 0.22376013E+04</pdfrwt>
<totfact> 0.10776488E+00</totfact>
</mgrwt>
</event>
<event>
 6    1  0.1817112E-005  0.4516643E+04  0.7818608E-02  0.7907730E-01
         -2   -1    0    0    0  501 -0.00000000000E+00  0.00000000000E+00  0.24292791096E+04  0.24292791096E+04  0.00000000000E+00 0.  1.
          2   -1    0    0  501    0  0.00000000000E+00 -0.00000000000E+00 -0.20993943664E+04  0.20993943664E+04  0.00000000000E+00 0. -1.
         23    2    1    2    0    0  0.64920766337E+03 -0.71130822085E+03  0.22121195944E+04  0.24143797381E+04  0.91249354243E+02 0.  0.
         11    1    3    3    0    0  0.25486344345E+03 -0.25170530453E+03  0.92409043458E+03  0.99108731524E+03  0.00000000000E+00 0. -1.
        -11    1    3    3    0    0  0.39434421992E+03 -0.45960291631E+03  0.12880291598E+04  0.14232924228E+04  0.00000000000E+00 0.  1.
         22    1    1    2    0    0 -0.64920766337E+03  0.71130822085E+03 -0.18822348512E+04  0.21142937379E+04  0.00000000000E+00 0. -1.
<mgrwt>
<rscale>  0 0.45166425E+04</rscale>
<asrwt>0</asrwt>
<pdfrwt beam="1">  1        2 0.32298375E+00 0.45166425E+04</pdfrwt>
<pdfrwt beam="2">  1       -2 0.37373525E+00 0.45166425E+04</pdfrwt>
<totfact> 0.48887813E-02</totfact>
</mgrwt>
</event>
<event>
 6    1  0.1817112E-005  0.2640661E+04  0.7818608E-02  0.8354519E-01
          2   -1    0    0  501    0  0.00000000000E+00  0.00000000000E+00  0.15187045453E+04  0.15187045453E+04  0.00000000000E+00 0. -1.
         -2   -1    0    0    0  501 -0.00000000000E+00 -0.00000000000E+00 -0.11478684084E+04  0.11478684084E+04  0.00000000000E+00 0.  1.
         23    2    1    2    0    0  0.12840203908E+04 -0.26316170928E+03  0.38881655930E+02  0.13144796778E+04  0.91556490081E+02 0.  0.
         13    1    3    3    0    0  0.32535793907E+03 -0.10763541205E+03  0.80725135036E+01  0.34279488899E+03  0.00000000000E+00 0.  1.
        -13    1    3    3    0    0  0.95866245175E+03 -0.15552629723E+03  0.30809142427E+02  0.97168478879E+03  0.00000000000E+00 0. -1.
         22    1    1    2    0    0 -0.12840203908E+04  0.26316170928E+03  0.33195448098E+03  0.13520932759E+04  0.00000000000E+00 0.  1.
<mgrwt>
<rscale>  0 0.26406613E+04</rscale>
<asrwt>0</asrwt>
<pdfrwt beam="1">  1        2 0.23364685E+00 0.26406613E+04</pdfrwt>
<pdfrwt beam="2">  1       -2 0.17659514E+00 0.26406613E+04</pdfrwt>
<totfact> 0.20917104E+00</totfact>
</mgrwt>
</event>
<event>
 6    1  0.1817112E-005  0.2562404E+04  0.7818608E-02  0.8381085E-01
          2   -1    0    0  501    0  0.00000000000E+00  0.00000000000E+00  0.14149270733E+04  0.14149270733E+04  0.00000000000E+00 0. -1.
         -2   -1    0    0    0  501 -0.00000000000E+00 -0.00000000000E+00 -0.11601152586E+04  0.11601152586E+04  0.00000000000E+00 0.  1.
         23    2    1    2    0    0  0.87523786630E+03 -0.68971756474E+01  0.10658300579E+04  0.13817948787E+04  0.85290567391E+02 0.  0.
         11    1    3    3    0    0  0.35376121805E+03  0.35758912024E+02  0.40575249966E+03  0.53950050062E+03  0.00000000000E+00 0.  1.
        -11    1    3    3    0    0  0.52147664824E+03 -0.42656087671E+02  0.66007755824E+03  0.84229437810E+03  0.00000000000E+00 0. -1.
         22    1    1    2    0    0 -0.87523786630E+03  0.68971756474E+01 -0.81101824321E+03  0.11932474532E+04  0.00000000000E+00 0.  1.
<mgrwt>
<rscale>  0 0.25624039E+04</rscale>
<asrwt>0</asrwt>
<pdfrwt beam="1">  1        2 0.21768109E+00 0.25624039E+04</pdfrwt>
<pdfrwt beam="2">  1       -2 0.17847927E+00 0.25624039E+04</pdfrwt>
<totfact> 0.23392435E+00</totfact>
</mgrwt>
</event>
<event>
 6    1  0.1817112E-005  0.2397223E+04  0.7818608E-02  0.8440544E-01
          2   -1    0    0  501    0  0.00000000000E+00  0.00000000000E+00  0.23642518087E+04  0.23642518087E+04  0.00000000000E+00 0. -1.
         -2   -1    0    0    0  501 -0.00000000000E+00 -0.00000000000E+00 -0.60766341651E+03  0.60766341651E+03  0.00000000000E+00 0.  1.
         23    2    1    2    0    0 -0.18393396073E+02 -0.11120352633E+04  0.32790567619E+03  0.11613641912E+04  0.65451571980E+02 0.  0.
         11    1    3    3    0    0 -0.27454349948E+02 -0.70805115951E+03  0.18028803217E+03  0.73115932625E+03  0.00000000000E+00 0. -1.
        -11    1    3    3    0    0  0.90609538741E+01 -0.40398410378E+03  0.14761764402E+03  0.43020486494E+03  0.00000000000E+00 0.  1.
         22    1    1    2    0    0  0.18393396073E+02  0.11120352633E+04  0.14286827160E+04  0.18105510340E+04  0.00000000000E+00 0. -1.
<mgrwt>
<rscale>  0 0.23972228E+04</rscale>
<asrwt>0</asrwt>
<pdfrwt beam="1">  1        2 0.36373104E+00 0.23972228E+04</pdfrwt>
<pdfrwt beam="2">  1       -2 0.93486681E-01 0.23972228E+04</pdfrwt>
<totfact> 0.36262833E+00</totfact>
</mgrwt>
</event>
<event>
 6    1  0.1817112E-005  0.8237446E+03  0.7818608E-02  0.9526270E-01
          2   -1    0    0  501    0  0.00000000000E+00  0.00000000000E+00  0.38596825473E+03  0.38596825473E+03  0.00000000000E+00 0. -1.
         -2   -1    0    0    0  501 -0.00000000000E+00 -0.00000000000E+00 -0.43951491996E+03  0.43951491996E+03  0.00000000000E+00 0.  1.
         23    2    1    2    0    0 -0.91464724596E+02  0.37773442199E+03  0.94065674507E+02  0.40974468448E+03  0.89405066638E+02 0.  0.
         11    1    3    3    0    0 -0.28473398152E+02  0.23239249400E+03  0.91338775736E+02  0.25131609106E+03  0.00000000000E+00 0. -1.
        -11    1    3    3    0    0 -0.62991326444E+02  0.14534192798E+03  0.27268987710E+01  0.15842859342E+03  0.00000000000E+00 0.  1.
         22    1    1    2    0    0  0.91464724596E+02 -0.37773442199E+03 -0.14761233974E+03  0.41573849021E+03  0.00000000000E+00 0. -1.
<mgrwt>
<rscale>  0 0.82374464E+03</rscale>
<asrwt>0</asrwt>
<pdfrwt beam="1">  1        2 0.59379731E-01 0.82374464E+03</pdfrwt>
<pdfrwt beam="2">  1       -2 0.67617680E-01 0.82374464E+03</pdfrwt>
<totfact> 0.16711652E+02</totfact>
</mgrwt>
</event>
<event>
 6    1  0.1817112E-005  0.1059007E+04  0.7818608E-02  0.9246094E-01
         -2   -1    0    0    0  501 -0.00000000000E+00  0.00000000000E+00  0.39613236110E+03  0.39613236110E+03  0.00000000000E+00 0.  1.
          2   -1    0    0  501    0  0.00000000000E+00 -0.00000000000E+00 -0.70777867011E+03  0.70777867011E+03  0.00000000000E+00 0. -1.
         23    2    1    2    0    0  0.37125109747E+03 -0.45420909730E+02  0.22763794592E+03  0.44761997990E+03  0.93027821483E+02 0.  0.
         13    1    3    3    0    0  0.31969179495E+03 -0.58996770376E+02  0.22274414558E+03  0.39407920151E+03  0.00000000000E+00 0.  1.
        -13    1    3    3    0    0  0.51559302523E+02  0.13575860645E+02  0.48938003367E+01  0.53540778390E+02  0.00000000000E+00 0. -1.
         22    1    1    2    0    0 -0.37125109747E+03  0.45420909730E+02 -0.53928425493E+03  0.65629105131E+03  0.00000000000E+00 0. -1.
<mgrwt>
<rscale>  0 0.10590071E+04</rscale>
<asrwt>0</asrwt>
<pdfrwt beam="1">  1        2 0.10888902E+00 0.10590071E+04</pdfrwt>
<pdfrwt beam="2">  1       -2 0.60943441E-01 0.10590071E+04</pdfrwt>
<totfact> 0.10079733E+02</totfact>
</mgrwt>
</event>
<event>
 6    1  0.1817112E-005  0.3394684E+04  0.7818608E-02  0.8139212E-01
          2   -1    0    0  501    0  0.00000000000E+00  0.00000000000E+00  0.14916539030E+04  0.14916539030E+04  0.00000000000E+00 0. -1.
         -2   -1    0    0    0  501 -0.00000000000E+00 -0.00000000000E+00 -0.19313930401E+04  0.19313930401E+04  0.00000000000E+00 0.  1.
         23    2    1    2    0    0  0.21666799124E+03  0.15355861419E+04  0.47262975723E+03  0.16237729736E+04  0.91049243867E+02 0.  0.
         13    1    3    3    0    0  0.43622277191E+02  0.18169084186E+03  0.32525655829E+02  0.18966386944E+03  0.00000000000E+00 0. -1.
        -13    1    3    3    0    0  0.17304571405E+03  0.13538953001E+04  0.44010410140E+03  0.14341091042E+04  0.00000000000E+00 0.  1.
         22    1    1    2    0    0 -0.21666799124E+03 -0.15355861419E+04 -0.91236889438E+03  0.17992739694E+04  0.00000000000E+00 0.  1.
<mgrwt>
<rscale>  0 0.33946841E+04</rscale>
<asrwt>0</asrwt>
<pdfrwt beam="1">  1        2 0.22948522E+00 0.33946841E+04</pdfrwt>
<pdfrwt beam="2">  1       -2 0.29713739E+00 0.33946841E+04</pdfrwt>
<totfact> 0.35191807E-01</totfact>
</mgrwt>
</event>
<event>
 6    1  0.1817112E-005  0.1226673E+04  0.7818608E-02  0.9089825E-01
          2   -1    0    0  501    0  0.00000000000E+00  0.00000000000E+00  0.13783574076E+04  0.13783574076E+04  0.00000000000E+00 0. -1.
         -2   -1    0    0    0  501 -0.00000000000E+00 -0.00000000000E+00 -0.27292043493E+03  0.27292043493E+03  0.00000000000E+00 0.  1.
         23    2    1    2    0    0  0.20340260607E+03 -0.19689194888E+03  0.12827539569E+04  0.13172413587E+04  0.97611593699E+02 0.  0.
         11    1    3    3    0    0  0.70335462802E+02 -0.59884392405E+02  0.64252132165E+03  0.64912777368E+03  0.00000000000E+00 0.  1.
        -11    1    3    3    0    0  0.13306714327E+03 -0.13700755647E+03  0.64023263528E+03  0.66811358498E+03  0.00000000000E+00 0. -1.
         22    1    1    2    0    0 -0.20340260607E+03  0.19689194888E+03 -0.17731698422E+03  0.33403648391E+03  0.00000000000E+00 0.  1.
<mgrwt>
<rscale>  0 0.12266734E+04</rscale>
<asrwt>0</asrwt>
<pdfrwt beam="1">  1        2 0.21205498E+00 0.12266734E+04</pdfrwt>
<pdfrwt beam="2">  1       -2 0.41987760E-01 0.12266734E+04</pdfrwt>
<totfact> 0.78805496E+01</totfact>
</mgrwt>
</event>
<event>
 6    1  0.1817112E-005  0.4479633E+03  0.7818608E-02  0.1028331E+00
         -2   -1    0    0    0  501 -0.00000000000E+00  0.00000000000E+00  0.13111977946E+02  0.13111977946E+02  0.00000000000E+00 0.  1.
          2   -1    0    0  501    0  0.00000000000E+00 -0.00000000000E+00 -0.38261029505E+04  0.38261029505E+04  0.00000000000E+00 0. -1.
         23    2    1    2    0    0  0.22899228685E+02 -0.20053088467E+03 -0.26103451987E+04  0.26197503460E+04  0.91939158221E+02 0.  0.
         13    1    3    3    0    0 -0.52570275541E+01 -0.93698582950E+02 -0.70698154158E+03  0.71318297856E+03  0.00000000000E+00 0.  1.
        -13    1    3    3    0    0  0.28156256239E+02 -0.10683230172E+03 -0.19033636571E+04  0.19065673675E+04  0.00000000000E+00 0. -1.
         22    1    1    2    0    0 -0.22899228685E+02  0.20053088467E+03 -0.12026457739E+04  0.12194645824E+04  0.00000000000E+00 0.  1.
<mgrwt>
<rscale>  0 0.44796329E+03</rscale>
<asrwt>0</asrwt>
<pdfrwt beam="1">  1        2 0.58863223E+00 0.44796329E+03</pdfrwt>
<pdfrwt beam="2">  1       -2 0.20172239E-02 0.44796329E+03</pdfrwt>
<totfact> 0.44223154E+02</totfact>
</mgrwt>
</event>
<event>
 6    1  0.2332238E-005  0.1423626E+04  0.7818608E-02  0.8936892E-01
          2   -1    0    0  501    0  0.00000000000E+00  0.00000000000E+00  0.17713063937E+04  0.17713063937E+04  0.00000000000E+00 0. -1.
         -2   -1    0    0    0  501 -0.00000000000E+00 -0.00000000000E+00 -0.28604735666E+03  0.28604735666E+03  0.00000000000E+00 0.  1.
         23    2    1    2    0    0 -0.33814617948E+03 -0.65974028285E+02  0.16409558576E+04  0.16792837687E+04  0.92533444212E+02 0.  0.
         11    1    3    3    0    0 -0.15845977252E+03 -0.56411912970E+02  0.61108047244E+03  0.63380686903E+03  0.00000000000E+00 0.  1.
        -11    1    3    3    0    0 -0.17968640696E+03 -0.95621153152E+01  0.10298753851E+04  0.10454768997E+04  0.00000000000E+00 0. -1.
         22    1    1    2    0    0  0.33814617948E+03  0.65974028285E+02 -0.15569682051E+03  0.37806998165E+03  0.00000000000E+00 0.  1.
<mgrwt>
<rscale>  0 0.14236257E+04</rscale>
<asrwt>0</asrwt>
<pdfrwt beam="1">  1        2 0.27250867E+00 0.14236257E+04</pdfrwt>
<pdfrwt beam="2">  1       -2 0.44007287E-01 0.14236257E+04</pdfrwt>
<totfact> 0.42587886E+01</totfact>
</mgrwt>
</event>
<event>
 6    1  0.1817112E-005  0.1460102E+04  0.7818608E-02  0.8911427E-01
         -2   -1    0    0    0  501 -0.00000000000E+00  0.00000000000E+00  0.33529688815E+03  0.33529688815E+03  0.00000000000E+00 0.  1.
          2   -1    0    0  501    0  0.00000000000E+00 -0.00000000000E+00 -0.15895605077E+04  0.15895605077E+04  0.00000000000E+00 0. -1.
         23    2    1    2    0    0 -0.34467563249E+03  0.42893574558E+03 -0.25796643085E+01  0.55756083354E+03  0.89890282951E+02 0.  0.
         13    1    3    3    0    0 -0.17552754923E+03  0.27669414727E+03 -0.26463818021E+02  0.32873987488E+03  0.00000000000E+00 0.  1.
        -13    1    3    3    0    0 -0.16914808326E+03  0.15224159831E+03  0.23884153712E+02  0.22882095866E+03  0.00000000000E+00 0. -1.
         22    1    1    2    0    0  0.34467563249E+03 -0.42893574558E+03 -0.12516839553E+04  0.13672965623E+04  0.00000000000E+00 0. -1.
<mgrwt>
<rscale>  0 0.14601023E+04</rscale>
<asrwt>0</asrwt>
<pdfrwt beam="1">  1        2 0.24454777E+00 0.14601023E+04</pdfrwt>
<pdfrwt beam="2">  1       -2 0.51584138E-01 0.14601023E+04</pdfrwt>
<totfact> 0.38876560E+01</totfact>
</mgrwt>
</event>
<event>
 6    1  0.1817112E-005  0.1690961E+04  0.7818608E-02  0.8766537E-01
         -2   -1    0    0    0  501 -0.00000000000E+00  0.00000000000E+00  0.24708483990E+03  0.24708483990E+03  0.00000000000E+00 0.  1.
          2   -1    0    0  501    0  0.00000000000E+00 -0.00000000000E+00 -0.28930840707E+04  0.28930840707E+04  0.00000000000E+00 0. -1.
         23    2    1    2    0    0 -0.39563180923E+03 -0.35088309157E+03 -0.25457747241E+04  0.26019417985E+04  0.97409982511E+02 0.  0.
         11    1    3    3    0    0 -0.27766060303E+03 -0.19865962822E+03 -0.14760733949E+04  0.15150424831E+04  0.00000000000E+00 0.  1.
        -11    1    3    3    0    0 -0.11797120620E+03 -0.15222346336E+03 -0.10697013292E+04  0.10868993154E+04  0.00000000000E+00 0. -1.
         22    1    1    2    0    0  0.39563180923E+03  0.35088309157E+03 -0.10022450671E+03  0.53822711208E+03  0.00000000000E+00 0.  1.
<mgrwt>
<rscale>  0 0.16909609E+04</rscale>
<asrwt>0</asrwt>
<pdfrwt beam="1">  1        2 0.44508987E+00 0.16909609E+04</pdfrwt>
<pdfrwt beam="2">  1       -2 0.38013051E-01 0.16909609E+04</pdfrwt>
<totfact> 0.12672216E+01</totfact>
</mgrwt>
</event>
<event>
 6    1  0.1817112E-005  0.1102096E+04  0.7818608E-02  0.9203151E-01
          1   -1    0    0  501    0  0.00000000000E+00  0.00000000000E+00  0.14696426048E+04  0.14696426048E+04  0.00000000000E+00 0. -1.
         -1   -1    0    0    0  501 -0.00000000000E+00 -0.00000000000E+00 -0.20661758276E+03  0.20661758276E+03  0.00000000000E+00 0.  1.
         23    2    1    2    0    0 -0.25144162257E+03  0.32981516903E+03  0.11789819186E+04  0.12531004322E+04  0.90892208167E+02 0.  0.
         13    1    3    3    0    0 -0.81012695943E+02  0.15583903674E+03  0.59464906652E+03  0.62004546172E+03  0.00000000000E+00 0. -1.
        -13    1    3    3    0    0 -0.17042892663E+03  0.17397613228E+03  0.58433285211E+03  0.63305497051E+03  0.00000000000E+00 0.  1.
         22    1    1    2    0    0  0.25144162257E+03 -0.32981516903E+03  0.84043103378E+02  0.42315975530E+03  0.00000000000E+00 0.  1.
<mgrwt>
<rscale>  0 0.11020962E+04</rscale>
<asrwt>0</asrwt>
<pdfrwt beam="1">  1        1 0.22609886E+00 0.11020962E+04</pdfrwt>
<pdfrwt beam="2">  1       -1 0.31787321E-01 0.11020962E+04</pdfrwt>
<totfact> 0.63018470E+01</totfact>
</mgrwt>
</event>
<event>
 6    1  0.1817112E-005  0.3375387E+04  0.7818608E-02  0.8143974E-01
         -2   -1    0    0    0  501 -0.00000000000E+00  0.00000000000E+00  0.21998888778E+04  0.21998888778E+04  0.00000000000E+00 0.  1.
          2   -1    0    0  501    0  0.00000000000E+00 -0.00000000000E+00 -0.12947512395E+04  0.12947512395E+04  0.00000000000E+00 0. -1.
         23    2    1    2    0    0  0.15073482033E+04 -0.34561029209E+03  0.11495151375E+04  0.19289883547E+04  0.89810585664E+02 0.  0.
         13    1    3    3    0    0  0.10029826241E+04 -0.23637897590E+03  0.81747257130E+03  0.13153366753E+04  0.00000000000E+00 0.  1.
        -13    1    3    3    0    0  0.50436557912E+03 -0.10923131618E+03  0.33204256621E+03  0.61365167939E+03  0.00000000000E+00 0. -1.
         22    1    1    2    0    0 -0.15073482033E+04  0.34561029209E+03 -0.24437749920E+03  0.15656517627E+04  0.00000000000E+00 0. -1.
<mgrwt>
<rscale>  0 0.33753867E+04</rscale>
<asrwt>0</asrwt>
<pdfrwt beam="1">  1        2 0.19919250E+00 0.33753867E+04</pdfrwt>
<pdfrwt beam="2">  1       -2 0.33844444E+00 0.33753867E+04</pdfrwt>
<totfact> 0.25404201E-01</totfact>
</mgrwt>
</event>
<event>
 6    1  0.1817112E-005  0.1947994E+04  0.7818608E-02  0.8631328E-01
          2   -1    0    0  501    0  0.00000000000E+00  0.00000000000E+00  0.63620084576E+03  0.63620084576E+03  0.00000000000E+00 0. -1.
         -2   -1    0    0    0  501 -0.00000000000E+00 -0.00000000000E+00 -0.14911495687E+04  0.14911495687E+04  0.00000000000E+00 0.  1.
         23    2    1    2    0    0 -0.88693359047E+02 -0.48873586822E+03 -0.13406245578E+04  0.14326488402E+04  0.92082752735E+02 0.  0.
         11    1    3    3    0    0 -0.32113317941E+02 -0.20104168760E+03 -0.42546103738E+03  0.47166314216E+03  0.00000000000E+00 0. -1.
        -11    1    3    3    0    0 -0.56580041106E+02 -0.28769418061E+03 -0.91516352044E+03  0.96098569799E+03  0.00000000000E+00 0.  1.
         22    1    1    2    0    0  0.88693359047E+02  0.48873586822E+03  0.48567583485E+03  0.69470157434E+03  0.00000000000E+00 0. -1.
<mgrwt>
<rscale>  0 0.19479945E+04</rscale>
<asrwt>0</asrwt>
<pdfrwt beam="1">  1        2 0.97877053E-01 0.19479945E+04</pdfrwt>
<pdfrwt beam="2">  1       -2 0.22940763E+00 0.19479945E+04</pdfrwt>
<totfact> 0.37126715E+00</totfact>
</mgrwt>
</event>
<event>
 6    1  0.1817112E-005  0.1977795E+04  0.7818608E-02  0.8617073E-01
         -1   -1    0    0    0  501 -0.00000000000E+00  0.00000000000E+00  0.91796960926E+03  0.91796960926E+03  0.00000000000E+00 0.  1.
          1   -1    0    0  501    0  0.00000000000E+00 -0.00000000000E+00 -0.10653054462E+04  0.10653054462E+04  0.00000000000E+00 0. -1.
         23    2    1    2    0    0 -0.48122758786E+03  0.84553256728E+03  0.92156330379E+02  0.98134601016E+03  0.89676578821E+02 0.  0.
         11    1    3    3    0    0 -0.21670352416E+03  0.43955631062E+03  0.80613371903E+02  0.49665751109E+03  0.00000000000E+00 0. -1.
        -11    1    3    3    0    0 -0.26452406370E+03  0.40597625666E+03  0.11542958475E+02  0.48468849907E+03  0.00000000000E+00 0.  1.
         22    1    1    2    0    0  0.48122758786E+03 -0.84553256728E+03 -0.23949216734E+03  0.10019290453E+04  0.00000000000E+00 0.  1.
<mgrwt>
<rscale>  0 0.19777948E+04</rscale>
<asrwt>0</asrwt>
<pdfrwt beam="1">  1        1 0.16389315E+00 0.19777948E+04</pdfrwt>
<pdfrwt beam="2">  1       -1 0.14122609E+00 0.19777948E+04</pdfrwt>
<totfact> 0.51297232E+00</totfact>
</mgrwt>
</event>
<event>
 6    1  0.1817112E-005  0.7800972E+03  0.7818608E-02  0.9589281E-01
         -2   -1    0    0    0  501 -0.00000000000E+00  0.00000000000E+00  0.12092739106E+03  0.12092739106E+03  0.00000000000E+00 0.  1.
          2   -1    0    0  501    0  0.00000000000E+00 -0.00000000000E+00 -0.12580929596E+04  0.12580929596E+04  0.00000000000E+00 0. -1.
         23    2    1    2    0    0  0.17688810381E+03  0.29078522064E+03 -0.89374307066E+03  0.96057088146E+03  0.89857087392E+02 0.  0.
         11    1    3    3    0    0  0.14513177927E+03  0.20714212033E+03 -0.74750156056E+03  0.78913222872E+03  0.00000000000E+00 0. -1.
        -11    1    3    3    0    0  0.31756324549E+02  0.83643100313E+02 -0.14624151010E+03  0.17143865275E+03  0.00000000000E+00 0.  1.
         22    1    1    2    0    0 -0.17688810381E+03 -0.29078522064E+03 -0.24342249792E+03  0.41844946924E+03  0.00000000000E+00 0.  1.
<mgrwt>
<rscale>  0 0.78009717E+03</rscale>
<asrwt>0</asrwt>
<pdfrwt beam="1">  1        2 0.19355277E+00 0.78009717E+03</pdfrwt>
<pdfrwt beam="2">  1       -2 0.18604213E-01 0.78009717E+03</pdfrwt>
<totfact> 0.42675102E+02</totfact>
</mgrwt>
</event>
<event>
 6    1  0.1817112E-005  0.3717397E+04  0.7818608E-02  0.8064117E-01
         -2   -1    0    0    0  501 -0.00000000000E+00  0.00000000000E+00  0.12232412964E+04  0.12232412964E+04  0.00000000000E+00 0.  1.
          2   -1    0    0  501    0  0.00000000000E+00 -0.00000000000E+00 -0.28242674410E+04  0.28242674410E+04  0.00000000000E+00 0. -1.
         23    2    1    2    0    0 -0.11149247036E+03 -0.17063709633E+04 -0.11019607570E+02  0.17125026939E+04  0.91714826720E+02 0.  0.
         11    1    3    3    0    0 -0.11193429562E+03 -0.15352353357E+04 -0.34914316934E+02  0.15397064109E+04  0.00000000000E+00 0. -1.
        -11    1    3    3    0    0  0.44182525894E+00 -0.17113562768E+03  0.23894709364E+02  0.17279628297E+03  0.00000000000E+00 0.  1.
         22    1    1    2    0    0  0.11149247036E+03  0.17063709633E+04 -0.15900065370E+04  0.23350060435E+04  0.00000000000E+00 0. -1.
<mgrwt>
<rscale>  0 0.37173972E+04</rscale>
<asrwt>0</asrwt>
<pdfrwt beam="1">  1        2 0.43450268E+00 0.37173972E+04</pdfrwt>
<pdfrwt beam="2">  1       -2 0.18819097E+00 0.37173972E+04</pdfrwt>
<totfact> 0.28753538E-01</totfact>
</mgrwt>
</event>
<event>
 6    1  0.1817112E-005  0.2060772E+04  0.7818608E-02  0.8578723E-01
         -1   -1    0    0    0  501 -0.00000000000E+00  0.00000000000E+00  0.88687273690E+03  0.88687273690E+03  0.00000000000E+00 0.  1.
          1   -1    0    0  501    0  0.00000000000E+00 -0.00000000000E+00 -0.11971225973E+04  0.11971225973E+04  0.00000000000E+00 0. -1.
         23    2    1    2    0    0 -0.26427988081E+03 -0.24929550365E+03 -0.11282884720E+04  0.11889091519E+04  0.92076010970E+02 0.  0.
         11    1    3    3    0    0 -0.86215093533E+02 -0.30625536674E+02 -0.32100644979E+03  0.33379051313E+03  0.00000000000E+00 0. -1.
        -11    1    3    3    0    0 -0.17806478728E+03 -0.21866996697E+03 -0.80728202224E+03  0.85511863876E+03  0.00000000000E+00 0.  1.
         22    1    1    2    0    0  0.26427988081E+03  0.24929550365E+03  0.81803861166E+03  0.89508618228E+03  0.00000000000E+00 0.  1.
<mgrwt>
<rscale>  0 0.20607721E+04</rscale>
<asrwt>0</asrwt>
<pdfrwt beam="1">  1        1 0.18417271E+00 0.20607721E+04</pdfrwt>
<pdfrwt beam="2">  1       -1 0.13644196E+00 0.20607721E+04</pdfrwt>
<totfact> 0.44416916E+00</totfact>
</mgrwt>
</event>
<event>
 6    1  0.1817112E-005  0.2106385E+04  0.7818608E-02  0.8558436E-01
          1   -1    0    0  501    0  0.00000000000E+00  0.00000000000E+00  0.14733106767E+04  0.14733106767E+04  0.00000000000E+00 0. -1.
         -1   -1    0    0    0  501 -0.00000000000E+00 -0.00000000000E+00 -0.75287217675E+03  0.75287217675E+03  0.00000000000E+00 0.  1.
         23    2    1    2    0    0 -0.94443782467E+03 -0.45093822470E+03  0.46518762499E+03  0.11489358547E+04  0.91356360326E+02 0.  0.
         11    1    3    3    0    0 -0.26977322730E+03 -0.16152513821E+03  0.10739773665E+03  0.33226832272E+03  0.00000000000E+00 0. -1.
        -11    1    3    3    0    0 -0.67466459737E+03 -0.28941308649E+03  0.35778988834E+03  0.81666753197E+03  0.00000000000E+00 0.  1.
         22    1    1    2    0    0  0.94443782467E+03  0.45093822470E+03  0.25525087495E+03  0.10772469988E+04  0.00000000000E+00 0. -1.
<mgrwt>
<rscale>  0 0.21063852E+04</rscale>
<asrwt>0</asrwt>
<pdfrwt beam="1">  1        1 0.22666318E+00 0.21063852E+04</pdfrwt>
<pdfrwt beam="2">  1       -1 0.11582649E+00 0.21063852E+04</pdfrwt>
<totfact> 0.42337991E+00</totfact>
</mgrwt>
</event>
<event>
 6    1  0.1817112E-005  0.1325581E+04  0.7818608E-02  0.9009522E-01
          2   -1    0    0  501    0  0.00000000000E+00  0.00000000000E+00  0.56011176304E+03  0.56011176304E+03  0.00000000000E+00 0. -1.
         -2   -1    0    0    0  501 -0.00000000000E+00 -0.00000000000E+00 -0.78429217762E+03  0.78429217762E+03  0.00000000000E+00 0.  1.
         23    2    1    2    0    0 -0.84847801473E+02 -0.61510020086E+03 -0.33848806559E+03  0.71304536933E+03  0.91170837755E+02 0.  0.
         13    1    3    3    0    0  0.13587215354E+02 -0.19571860244E+03 -0.91421008111E+02  0.21644441431E+03  0.00000000000E+00 0. -1.
        -13    1    3    3    0    0 -0.98435016827E+02 -0.41938159843E+03 -0.24706705748E+03  0.49660095502E+03  0.00000000000E+00 0.  1.
         22    1    1    2    0    0  0.84847801473E+02  0.61510020086E+03  0.11430765101E+03  0.63135857133E+03  0.00000000000E+00 0. -1.
<mgrwt>
<rscale>  0 0.13255810E+04</rscale>
<asrwt>0</asrwt>
<pdfrwt beam="1">  1        2 0.86171040E-01 0.13255810E+04</pdfrwt>
<pdfrwt beam="2">  1       -2 0.12066034E+00 0.13255810E+04</pdfrwt>
<totfact> 0.27602270E+01</totfact>
</mgrwt>
</event>
<event>
 6    1  0.1817112E-005  0.1884886E+04  0.7818608E-02  0.8662416E-01
         -2   -1    0    0    0  501 -0.00000000000E+00  0.00000000000E+00  0.44634793690E+03  0.44634793690E+03  0.00000000000E+00 0.  1.
          2   -1    0    0  501    0  0.00000000000E+00 -0.00000000000E+00 -0.19899257401E+04  0.19899257401E+04  0.00000000000E+00 0. -1.
         23    2    1    2    0    0 -0.13096457750E+03 -0.51782441003E+03 -0.17736143949E+04  0.18547148462E+04  0.94685261498E+02 0.  0.
         13    1    3    3    0    0 -0.33001512566E+02 -0.79706276073E+02 -0.41422848933E+03  0.42311633347E+03  0.00000000000E+00 0.  1.
        -13    1    3    3    0    0 -0.97963064935E+02 -0.43811813395E+03 -0.13593859055E+04  0.14315985127E+04  0.00000000000E+00 0. -1.
         22    1    1    2    0    0  0.13096457750E+03  0.51782441003E+03  0.23003659169E+03  0.58155883081E+03  0.00000000000E+00 0.  1.
<mgrwt>
<rscale>  0 0.18848865E+04</rscale>
<asrwt>0</asrwt>
<pdfrwt beam="1">  1        2 0.30614242E+00 0.18848865E+04</pdfrwt>
<pdfrwt beam="2">  1       -2 0.68668913E-01 0.18848865E+04</pdfrwt>
<totfact> 0.12301331E+01</totfact>
</mgrwt>
</event>
<event>
 6    1  0.1817112E-005  0.3788411E+04  0.7818608E-02  0.8048646E-01
         -2   -1    0    0    0  501 -0.00000000000E+00  0.00000000000E+00  0.19767601421E+04  0.19767601421E+04  0.00000000000E+00 0.  1.
          2   -1    0    0  501    0  0.00000000000E+00 -0.00000000000E+00 -0.18150987734E+04  0.18150987734E+04  0.00000000000E+00 0. -1.
         23    2    1    2    0    0  0.26818814249E+03 -0.44867091782E+03  0.19020673586E+04  0.19746513098E+04  0.90316587736E+02 0.  0.
         13    1    3    3    0    0  0.12921614131E+03 -0.27805035354E+03  0.98878435309E+03  0.10352310405E+04  0.00000000000E+00 0. -1.
        -13    1    3    3    0    0  0.13897200117E+03 -0.17062056427E+03  0.91328300555E+03  0.93942026926E+03  0.00000000000E+00 0.  1.
         22    1    1    2    0    0 -0.26818814249E+03  0.44867091782E+03 -0.17404059900E+04  0.18172076057E+04  0.00000000000E+00 0. -1.
<mgrwt>
<rscale>  0 0.37884112E+04</rscale>
<asrwt>0</asrwt>
<pdfrwt beam="1">  1        2 0.27924596E+00 0.37884112E+04</pdfrwt>
<pdfrwt beam="2">  1       -2 0.30411695E+00 0.37884112E+04</pdfrwt>
<totfact> 0.20370662E-01</totfact>
</mgrwt>
</event>
<event>
 6    1  0.1817112E-005  0.2326631E+04  0.7818608E-02  0.8467494E-01
         -2   -1    0    0    0  501 -0.00000000000E+00  0.00000000000E+00  0.16783065227E+04  0.16783065227E+04  0.00000000000E+00 0. -1.
          2   -1    0    0  501    0  0.00000000000E+00 -0.00000000000E+00 -0.80635056571E+03  0.80635056571E+03  0.00000000000E+00 0.  1.
         23    2    1    2    0    0  0.95037656975E+03 -0.74851941534E+01  0.11492701255E+04  0.14946193111E+04  0.98961665381E+02 0.  0.
         11    1    3    3    0    0  0.22873032909E+03 -0.94507934593E+01  0.21464733663E+03  0.31381580595E+03  0.00000000000E+00 0.  1.
        -11    1    3    3    0    0  0.72164624066E+03  0.19655993059E+01  0.93462278890E+03  0.11808035051E+04  0.00000000000E+00 0. -1.
         22    1    1    2    0    0 -0.95037656975E+03  0.74851941534E+01 -0.27731416853E+03  0.99003777732E+03  0.00000000000E+00 0.  1.
<mgrwt>
<rscale>  0 0.23266314E+04</rscale>
<asrwt>0</asrwt>
<pdfrwt beam="1">  1        2 0.12405393E+00 0.23266314E+04</pdfrwt>
<pdfrwt beam="2">  1       -2 0.25820100E+00 0.23266314E+04</pdfrwt>
<totfact> 0.17643262E+00</totfact>
</mgrwt>
</event>
<event>
 6    1  0.1817112E-005  0.3427688E+04  0.7818608E-02  0.8131144E-01
          2   -1    0    0  501    0  0.00000000000E+00  0.00000000000E+00  0.19938152399E+04  0.19938152399E+04  0.00000000000E+00 0. -1.
         -2   -1    0    0    0  501 -0.00000000000E+00 -0.00000000000E+00 -0.14731859410E+04  0.14731859410E+04  0.00000000000E+00 0.  1.
         23    2    1    2    0    0  0.10656070926E+04  0.78020385813E+03 -0.84225168932E+03  0.15691916214E+04  0.93476738026E+02 0.  0.
         13    1    3    3    0    0  0.12669081639E+03  0.73877018473E+02 -0.12447593788E+03  0.19236069226E+03  0.00000000000E+00 0. -1.
        -13    1    3    3    0    0  0.93891627617E+03  0.70632683966E+03 -0.71777575145E+03  0.13768309291E+04  0.00000000000E+00 0.  1.
         22    1    1    2    0    0 -0.10656070926E+04 -0.78020385813E+03  0.13628809883E+04  0.18978095595E+04  0.00000000000E+00 0. -1.
<mgrwt>
<rscale>  0 0.34276876E+04</rscale>
<asrwt>0</asrwt>
<pdfrwt beam="1">  1        2 0.30674081E+00 0.34276876E+04</pdfrwt>
<pdfrwt beam="2">  1       -2 0.22664399E+00 0.34276876E+04</pdfrwt>
<totfact> 0.49958418E-01</totfact>
</mgrwt>
</event>
<event>
 6    1  0.1817112E-005  0.1021718E+04  0.7818608E-02  0.9285040E-01
          2   -1    0    0  501    0  0.00000000000E+00  0.00000000000E+00  0.38509729635E+03  0.38509729635E+03  0.00000000000E+00 0. -1.
         -2   -1    0    0    0  501 -0.00000000000E+00 -0.00000000000E+00 -0.67769116663E+03  0.67769116663E+03  0.00000000000E+00 0.  1.
         23    2    1    2    0    0 -0.18197215841E+03  0.24984626604E+03  0.27019267259E+03  0.42070924986E+03  0.91951995625E+02 0.  0.
         13    1    3    3    0    0 -0.17014650390E+03  0.25732068133E+03  0.25815209819E+03  0.40225150296E+03  0.00000000000E+00 0.  1.
        -13    1    3    3    0    0 -0.11825654516E+02 -0.74744152921E+01  0.12040574404E+02  0.18457746902E+02  0.00000000000E+00 0. -1.
         22    1    1    2    0    0  0.18197215841E+03 -0.24984626604E+03 -0.56278654287E+03  0.64207921312E+03  0.00000000000E+00 0.  1.
<mgrwt>
<rscale>  0 0.10217182E+04</rscale>
<asrwt>0</asrwt>
<pdfrwt beam="1">  1        2 0.59245738E-01 0.10217182E+04</pdfrwt>
<pdfrwt beam="2">  1       -2 0.10426018E+00 0.10217182E+04</pdfrwt>
<totfact> 0.61893583E+01</totfact>
</mgrwt>
</event>
<event>
 6    1  0.1817112E-005  0.1188777E+04  0.7818608E-02  0.9122737E-01
          2   -1    0    0  501    0  0.00000000000E+00  0.00000000000E+00  0.10245834545E+04  0.10245834545E+04  0.00000000000E+00 0. -1.
         -2   -1    0    0    0  501 -0.00000000000E+00 -0.00000000000E+00 -0.34482107433E+03  0.34482107433E+03  0.00000000000E+00 0.  1.
         23    2    1    2    0    0 -0.36988823926E+03 -0.45666962066E+03  0.41275365108E+03  0.72391392983E+03  0.91221430344E+02 0.  0.
         13    1    3    3    0    0 -0.29822641974E+03 -0.33916063494E+03  0.35585719475E+03  0.57498110993E+03  0.00000000000E+00 0. -1.
        -13    1    3    3    0    0 -0.71661819520E+02 -0.11750898572E+03  0.56896456339E+02  0.14893281991E+03  0.00000000000E+00 0.  1.
         22    1    1    2    0    0  0.36988823926E+03  0.45666962066E+03  0.26700872908E+03  0.64549059898E+03  0.00000000000E+00 0. -1.
<mgrwt>
<rscale>  0 0.11887775E+04</rscale>
<asrwt>0</asrwt>
<pdfrwt beam="1">  1        2 0.15762822E+00 0.11887775E+04</pdfrwt>
<pdfrwt beam="2">  1       -2 0.53049397E-01 0.11887775E+04</pdfrwt>
<totfact> 0.80369631E+01</totfact>
</mgrwt>
</event>
<event>
 6    1  0.1817112E-005  0.9831051E+03  0.7818608E-02  0.9327271E-01
          2   -1    0    0  501    0  0.00000000000E+00  0.00000000000E+00  0.18873982418E+04  0.18873982418E+04  0.00000000000E+00 0. -1.
         -2   -1    0    0    0  501 -0.00000000000E+00 -0.00000000000E+00 -0.12801956228E+03  0.12801956228E+03  0.00000000000E+00 0.  1.
         23    2    1    2    0    0 -0.23867113154E+03 -0.22378667677E+03  0.14666578214E+03  0.36985186037E+03  0.90747789131E+02 0.  0.
         11    1    3    3    0    0 -0.33211495787E+02 -0.68782587589E+02  0.61690640560E+01  0.76629662398E+02  0.00000000000E+00 0.  1.
        -11    1    3    3    0    0 -0.20545963576E+03 -0.15500408918E+03  0.14049671809E+03  0.29322219797E+03  0.00000000000E+00 0. -1.
         22    1    1    2    0    0  0.23867113154E+03  0.22378667677E+03  0.16127128974E+04  0.16455659437E+04  0.00000000000E+00 0. -1.
<mgrwt>
<rscale>  0 0.98310507E+03</rscale>
<asrwt>0</asrwt>
<pdfrwt beam="1">  1        2 0.29036894E+00 0.98310507E+03</pdfrwt>
<pdfrwt beam="2">  1       -2 0.19695319E-01 0.98310507E+03</pdfrwt>
<totfact> 0.16976434E+02</totfact>
</mgrwt>
</event>
<event>
 6    1  0.1817112E-005  0.8820643E+04  0.7818608E-02  0.7414189E-01
          2   -1    0    0  501    0  0.00000000000E+00  0.00000000000E+00  0.35785098165E+04  0.35785098165E+04  0.00000000000E+00 0. -1.
         -2   -1    0    0    0  501 -0.00000000000E+00 -0.00000000000E+00 -0.54354845323E+04  0.54354845323E+04  0.00000000000E+00 0.  1.
         23    2    1    2    0    0 -0.32142153672E+03 -0.78610240666E+03 -0.53507570097E+04  0.54184716448E+04  0.89250154023E+02 0.  0.
         11    1    3    3    0    0 -0.11260059400E+02 -0.90949102070E+02 -0.49504328120E+03  0.50345444517E+03  0.00000000000E+00 0. -1.
        -11    1    3    3    0    0 -0.31016147732E+03 -0.69515330459E+03 -0.48557137285E+04  0.49150171996E+04  0.00000000000E+00 0.  1.
         22    1    1    2    0    0  0.32142153672E+03  0.78610240666E+03  0.34937822939E+04  0.35955227040E+04  0.00000000000E+00 0. -1.
<mgrwt>
<rscale>  0 0.88206428E+04</rscale>
<asrwt>0</asrwt>
<pdfrwt beam="1">  1        2 0.55053997E+00 0.88206428E+04</pdfrwt>
<pdfrwt beam="2">  1       -2 0.83622839E+00 0.88206428E+04</pdfrwt>
<totfact> 0.16766098E-05</totfact>
</mgrwt>
</event>
<event>
 6    1  0.1817112E-005  0.2357559E+04  0.7818608E-02  0.8455566E-01
          3   -1    0    0  501    0  0.00000000000E+00  0.00000000000E+00  0.71111017088E+03  0.71111017088E+03  0.00000000000E+00 0. -1.
         -3   -1    0    0    0  501 -0.00000000000E+00 -0.00000000000E+00 -0.19540159238E+04  0.19540159238E+04  0.00000000000E+00 0.  1.
         23    2    1    2    0    0 -0.76915516343E+03 -0.52611119788E+03  0.19041657592E+03  0.95550462888E+03  0.91312460593E+02 0.  0.
         11    1    3    3    0    0 -0.30516292287E+03 -0.26161039469E+03  0.69791441094E+02  0.40796476974E+03  0.00000000000E+00 0.  1.
        -11    1    3    3    0    0 -0.46399224056E+03 -0.26450080320E+03  0.12062513483E+03  0.54753985914E+03  0.00000000000E+00 0. -1.
         22    1    1    2    0    0  0.76915516343E+03  0.52611119788E+03 -0.14333223289E+04  0.17096214658E+04  0.00000000000E+00 0.  1.
<mgrwt>
<rscale>  0 0.23575586E+04</rscale>
<asrwt>0</asrwt>
<pdfrwt beam="1">  1        3 0.10940156E+00 0.23575586E+04</pdfrwt>
<pdfrwt beam="2">  1       -3 0.30061784E+00 0.23575586E+04</pdfrwt>
<totfact> 0.62761764E-02</totfact>
</mgrwt>
</event>
<event>
 6    1  0.1817112E-005  0.1877593E+04  0.7818608E-02  0.8666091E-01
          2   -1    0    0  501    0  0.00000000000E+00  0.00000000000E+00  0.10038081726E+04  0.10038081726E+04  0.00000000000E+00 0. -1.
         -2   -1    0    0    0  501 -0.00000000000E+00 -0.00000000000E+00 -0.87799520893E+03  0.87799520893E+03  0.00000000000E+00 0.  1.
         23    2    1    2    0    0 -0.80239085202E+03 -0.15938301151E+03 -0.39423470126E+03  0.91243059587E+03  0.88738767398E+02 0.  0.
         13    1    3    3    0    0 -0.60820425357E+03 -0.89977284571E+02 -0.26842326386E+03  0.67086464685E+03  0.00000000000E+00 0. -1.
        -13    1    3    3    0    0 -0.19418659844E+03 -0.69405726941E+02 -0.12581143740E+03  0.24156594902E+03  0.00000000000E+00 0.  1.
         22    1    1    2    0    0  0.80239085202E+03  0.15938301151E+03  0.52004766492E+03  0.96937278564E+03  0.00000000000E+00 0. -1.
<mgrwt>
<rscale>  0 0.18775929E+04</rscale>
<asrwt>0</asrwt>
<pdfrwt beam="1">  1        2 0.15443203E+00 0.18775929E+04</pdfrwt>
<pdfrwt beam="2">  1       -2 0.13507619E+00 0.18775929E+04</pdfrwt>
<totfact> 0.92574997E+00</totfact>
</mgrwt>
</event>
<event>
 6    1  0.1817112E-005  0.6219786E+04  0.7818608E-02  0.7663733E-01
          2   -1    0    0  501    0  0.00000000000E+00  0.00000000000E+00  0.21072717595E+04  0.21072717595E+04  0.00000000000E+00 0. -1.
         -2   -1    0    0    0  501 -0.00000000000E+00 -0.00000000000E+00 -0.45895524215E+04  0.45895524215E+04  0.00000000000E+00 0.  1.
         23    2    1    2    0    0 -0.41608208293E+03 -0.23232275880E+04 -0.34208052278E+04  0.41568755424E+04  0.84824189639E+02 0.  0.
         13    1    3    3    0    0 -0.23549678841E+03 -0.15321925858E+04 -0.22234848833E+04  0.27105272335E+04  0.00000000000E+00 0. -1.
        -13    1    3    3    0    0 -0.18058529453E+03 -0.79103500225E+03 -0.11973203445E+04  0.14463483089E+04  0.00000000000E+00 0.  1.
         22    1    1    2    0    0  0.41608208293E+03  0.23232275880E+04  0.93852456586E+03  0.25399486385E+04  0.00000000000E+00 0. -1.
<mgrwt>
<rscale>  0 0.62197859E+04</rscale>
<asrwt>0</asrwt>
<pdfrwt beam="1">  1        2 0.32419566E+00 0.62197859E+04</pdfrwt>
<pdfrwt beam="2">  1       -2 0.70608498E+00 0.62197859E+04</pdfrwt>
<totfact> 0.84949594E-04</totfact>
</mgrwt>
</event>
<event>
 6    1  0.1817112E-005  0.2349404E+04  0.7818608E-02  0.8458693E-01
          2   -1    0    0  501    0  0.00000000000E+00  0.00000000000E+00  0.15061318530E+04  0.15061318530E+04  0.00000000000E+00 0. -1.
         -2   -1    0    0    0  501 -0.00000000000E+00 -0.00000000000E+00 -0.91620439209E+03  0.91620439209E+03  0.00000000000E+00 0.  1.
         23    2    1    2    0    0 -0.10895354041E+03 -0.10902698033E+04 -0.13346627843E+03  0.11093786601E+04  0.11112446126E+03 0.  0.
         11    1    3    3    0    0 -0.38747844918E+02 -0.52421872983E+03 -0.11826111898E+03  0.53878786591E+03  0.00000000000E+00 0. -1.
        -11    1    3    3    0    0 -0.70205695488E+02 -0.56605107350E+03 -0.15205159449E+02  0.57059079415E+03  0.00000000000E+00 0.  1.
         22    1    1    2    0    0  0.10895354041E+03  0.10902698033E+04  0.72339373937E+03  0.13129575851E+04  0.00000000000E+00 0. -1.
<mgrwt>
<rscale>  0 0.23494039E+04</rscale>
<asrwt>0</asrwt>
<pdfrwt beam="1">  1        2 0.23171259E+00 0.23494039E+04</pdfrwt>
<pdfrwt beam="2">  1       -2 0.14095452E+00 0.23494039E+04</pdfrwt>
<totfact> 0.40130875E+00</totfact>
</mgrwt>
</event>
<event>
 6    1  0.1817112E-005  0.1939905E+04  0.7818608E-02  0.8635244E-01
          2   -1    0    0  501    0  0.00000000000E+00  0.00000000000E+00  0.39422341867E+04  0.39422341867E+04  0.00000000000E+00 0.  1.
         -2   -1    0    0    0  501 -0.00000000000E+00 -0.00000000000E+00 -0.23864833818E+03  0.23864833818E+03  0.00000000000E+00 0. -1.
         23    2    1    2    0    0 -0.65497782469E+03  0.37140372049E+01  0.33914527231E+04  0.34553228562E+04  0.91075366813E+02 0.  0.
         11    1    3    3    0    0 -0.33812729303E+03  0.25613335386E+02  0.15474077417E+04  0.15841265190E+04  0.00000000000E+00 0.  1.
        -11    1    3    3    0    0 -0.31685053165E+03 -0.21899298181E+02  0.18440449814E+04  0.18711963371E+04  0.00000000000E+00 0. -1.
         22    1    1    2    0    0  0.65497782469E+03 -0.37140372049E+01  0.31213312545E+03  0.72555966875E+03  0.00000000000E+00 0. -1.
<mgrwt>
<rscale>  0 0.19399048E+04</rscale>
<asrwt>0</asrwt>
<pdfrwt beam="1">  1        2 0.60649752E+00 0.19399048E+04</pdfrwt>
<pdfrwt beam="2">  1       -2 0.36715132E-01 0.19399048E+04</pdfrwt>
<totfact> 0.25105965E+00</totfact>
</mgrwt>
</event>
<event>
 6    1  0.1817112E-005  0.3112163E+04  0.7818608E-02  0.8212408E-01
          2   -1    0    0  501    0  0.00000000000E+00  0.00000000000E+00  0.10528759490E+04  0.10528759490E+04  0.00000000000E+00 0. -1.
         -2   -1    0    0    0  501 -0.00000000000E+00 -0.00000000000E+00 -0.22997861283E+04  0.22997861283E+04  0.00000000000E+00 0.  1.
         23    2    1    2    0    0 -0.62830792590E+03 -0.11274046840E+04 -0.15577610604E+04  0.20250927037E+04  0.92567629267E+02 0.  0.
         13    1    3    3    0    0 -0.52467399255E+03 -0.98141585298E+03 -0.13002989152E+04  0.17115014297E+04  0.00000000000E+00 0.  1.
        -13    1    3    3    0    0 -0.10363393335E+03 -0.14598883106E+03 -0.25746214522E+03  0.31359127404E+03  0.00000000000E+00 0. -1.
         22    1    1    2    0    0  0.62830792590E+03  0.11274046840E+04  0.31085088112E+03  0.13275693736E+04  0.00000000000E+00 0. -1.
<mgrwt>
<rscale>  0 0.31121629E+04</rscale>
<asrwt>0</asrwt>
<pdfrwt beam="1">  1        2 0.16198092E+00 0.31121629E+04</pdfrwt>
<pdfrwt beam="2">  1       -2 0.35381325E+00 0.31121629E+04</pdfrwt>
<totfact> 0.29090662E-01</totfact>
</mgrwt>
</event>
<event>
 6    1  0.1817112E-005  0.2540185E+04  0.7818608E-02  0.8388808E-01
          1   -1    0    0  501    0  0.00000000000E+00  0.00000000000E+00  0.27050488375E+04  0.27050488375E+04  0.00000000000E+00 0. -1.
         -1   -1    0    0    0  501 -0.00000000000E+00 -0.00000000000E+00 -0.59634232714E+03  0.59634232714E+03  0.00000000000E+00 0.  1.
         23    2    1    2    0    0 -0.26092784924E+03  0.67846311725E+03  0.24063378196E+04  0.25159104582E+04  0.10463358953E+03 0.  0.
         11    1    3    3    0    0 -0.16776817391E+03  0.38640259523E+03  0.12233053437E+04  0.12938041156E+04  0.00000000000E+00 0. -1.
        -11    1    3    3    0    0 -0.93159675336E+02  0.29206052202E+03  0.11830324759E+04  0.12221063426E+04  0.00000000000E+00 0.  1.
         22    1    1    2    0    0  0.26092784924E+03 -0.67846311725E+03 -0.29763130916E+03  0.78548070643E+03  0.00000000000E+00 0.  1.
<mgrwt>
<rscale>  0 0.25401851E+04</rscale>
<asrwt>0</asrwt>
<pdfrwt beam="1">  1        1 0.41616135E+00 0.25401851E+04</pdfrwt>
<pdfrwt beam="2">  1       -1 0.91744975E-01 0.25401851E+04</pdfrwt>
<totfact> 0.99721540E-01</totfact>
</mgrwt>
</event>
<event>
 6    1  0.1817112E-005  0.1450895E+04  0.7818608E-02  0.8917780E-01
          2   -1    0    0  501    0  0.00000000000E+00  0.00000000000E+00  0.55078101550E+03  0.55078101550E+03  0.00000000000E+00 0. -1.
         -2   -1    0    0    0  501 -0.00000000000E+00 -0.00000000000E+00 -0.95550527142E+03  0.95550527142E+03  0.00000000000E+00 0.  1.
         23    2    1    2    0    0  0.43668472661E+03  0.14209822819E+03  0.37606042177E+03  0.60046612274E+03  0.90844189849E+02 0.  0.
         11    1    3    3    0    0  0.17856213408E+03  0.14235983998E+02  0.12589401047E+03  0.21894383033E+03  0.00000000000E+00 0. -1.
        -11    1    3    3    0    0  0.25812259253E+03  0.12786224419E+03  0.25016641130E+03  0.38152229241E+03  0.00000000000E+00 0.  1.
         22    1    1    2    0    0 -0.43668472661E+03 -0.14209822819E+03 -0.78078467769E+03  0.90582016417E+03  0.00000000000E+00 0.  1.
<mgrwt>
<rscale>  0 0.14508951E+04</rscale>
<asrwt>0</asrwt>
<pdfrwt beam="1">  1        2 0.84735542E-01 0.14508951E+04</pdfrwt>
<pdfrwt beam="2">  1       -2 0.14700081E+00 0.14508951E+04</pdfrwt>
<totfact> 0.16831591E+01</totfact>
</mgrwt>
</event>
<event>
 6    1  0.1817112E-005  0.1463712E+04  0.7818608E-02  0.8908949E-01
          2   -1    0    0  501    0  0.00000000000E+00  0.00000000000E+00  0.14789896483E+04  0.14789896483E+04  0.00000000000E+00 0.  1.
         -2   -1    0    0    0  501 -0.00000000000E+00 -0.00000000000E+00 -0.36214779679E+03  0.36214779679E+03  0.00000000000E+00 0. -1.
         23    2    1    2    0    0 -0.65742759747E+02  0.67873328181E+03  0.88473103783E+03  0.11208066821E+04  0.91965379165E+02 0.  0.
         13    1    3    3    0    0 -0.14327983188E+02  0.93133222194E+02  0.17923759732E+03  0.20249741843E+03  0.00000000000E+00 0.  1.
        -13    1    3    3    0    0 -0.51414776559E+02  0.58560005961E+03  0.70549344051E+03  0.91830926363E+03  0.00000000000E+00 0. -1.
         22    1    1    2    0    0  0.65742759747E+02 -0.67873328181E+03  0.23211081363E+03  0.72033076298E+03  0.00000000000E+00 0. -1.
<mgrwt>
<rscale>  0 0.14637115E+04</rscale>
<asrwt>0</asrwt>
<pdfrwt beam="1">  1        2 0.22753687E+00 0.14637115E+04</pdfrwt>
<pdfrwt beam="2">  1       -2 0.55715046E-01 0.14637115E+04</pdfrwt>
<totfact> 0.38244700E+01</totfact>
</mgrwt>
</event>
<event>
 6    1  0.1817112E-005  0.1271819E+04  0.7818608E-02  0.9052216E-01
          4   -1    0    0  501    0  0.00000000000E+00  0.00000000000E+00  0.29456713104E+03  0.29456713104E+03  0.00000000000E+00 0. -1.
         -4   -1    0    0    0  501 -0.00000000000E+00 -0.00000000000E+00 -0.13727973739E+04  0.13727973739E+04  0.00000000000E+00 0.  1.
         23    2    1    2    0    0 -0.55351231337E+03 -0.21712596934E+03 -0.82545469522E+03  0.10212878492E+04  0.90187856223E+02 0.  0.
         13    1    3    3    0    0 -0.22280421050E+03 -0.52472309551E+02 -0.36668154798E+03  0.43226197741E+03  0.00000000000E+00 0. -1.
        -13    1    3    3    0    0 -0.33070810287E+03 -0.16465365979E+03 -0.45877314724E+03  0.58902587177E+03  0.00000000000E+00 0.  1.
         22    1    1    2    0    0  0.55351231337E+03  0.21712596934E+03 -0.25277554761E+03  0.64607665573E+03  0.00000000000E+00 0. -1.
<mgrwt>
<rscale>  0 0.12718191E+04</rscale>
<asrwt>0</asrwt>
<pdfrwt beam="1">  1        4 0.45318020E-01 0.12718191E+04</pdfrwt>
<pdfrwt beam="2">  1       -4 0.21119960E+00 0.12718191E+04</pdfrwt>
<totfact> 0.10328263E+00</totfact>
</mgrwt>
</event>
<event>
 6    1  0.1817112E-005  0.2422510E+04  0.7818608E-02  0.8431124E-01
          2   -1    0    0  501    0  0.00000000000E+00  0.00000000000E+00  0.86538340742E+03  0.86538340742E+03  0.00000000000E+00 0. -1.
         -2   -1    0    0    0  501 -0.00000000000E+00 -0.00000000000E+00 -0.16953621547E+04  0.16953621547E+04  0.00000000000E+00 0.  1.
         23    2    1    2    0    0 -0.68386116436E+03 -0.79470857807E+03 -0.10530412069E+04  0.14888385339E+04  0.92285321513E+02 0.  0.
         11    1    3    3    0    0 -0.51238990700E+03 -0.64203646863E+03 -0.85471704047E+03  0.11854515862E+04  0.00000000000E+00 0.  1.
        -11    1    3    3    0    0 -0.17147125736E+03 -0.15267210944E+03 -0.19832416641E+03  0.30338694778E+03  0.00000000000E+00 0. -1.
         22    1    1    2    0    0  0.68386116436E+03  0.79470857807E+03  0.22306245961E+03  0.10719070282E+04  0.00000000000E+00 0.  1.
<mgrwt>
<rscale>  0 0.24225097E+04</rscale>
<asrwt>0</asrwt>
<pdfrwt beam="1">  1        2 0.13313591E+00 0.24225097E+04</pdfrwt>
<pdfrwt beam="2">  1       -2 0.26082495E+00 0.24225097E+04</pdfrwt>
<totfact> 0.15326813E+00</totfact>
</mgrwt>
</event>
<event>
 6    1  0.1817112E-005  0.4861196E+04  0.7818608E-02  0.7850283E-01
          1   -1    0    0  501    0  0.00000000000E+00  0.00000000000E+00  0.38095964660E+04  0.38095964660E+04  0.00000000000E+00 0. -1.
         -1   -1    0    0    0  501 -0.00000000000E+00 -0.00000000000E+00 -0.15507694634E+04  0.15507694634E+04  0.00000000000E+00 0.  1.
         23    2    1    2    0    0  0.22631196781E+03  0.79953869575E+03  0.36475169380E+04  0.37420523104E+04  0.89980263921E+02 0.  0.
         11    1    3    3    0    0  0.37058673109E+02  0.13742972188E+03  0.79089333896E+03  0.80359974324E+03  0.00000000000E+00 0. -1.
        -11    1    3    3    0    0  0.18925329470E+03  0.66210897387E+03  0.28566235991E+04  0.29384525672E+04  0.00000000000E+00 0.  1.
         22    1    1    2    0    0 -0.22631196781E+03 -0.79953869575E+03 -0.13886899354E+04  0.16183136190E+04  0.00000000000E+00 0.  1.
<mgrwt>
<rscale>  0 0.48611957E+04</rscale>
<asrwt>0</asrwt>
<pdfrwt beam="1">  1        1 0.58609176E+00 0.48611957E+04</pdfrwt>
<pdfrwt beam="2">  1       -1 0.23857992E+00 0.48611957E+04</pdfrwt>
<totfact> 0.84387318E-03</totfact>
</mgrwt>
</event>
<event>
 6    1  0.1817112E-005  0.1834259E+04  0.7818608E-02  0.8688290E-01
         -2   -1    0    0    0  501 -0.00000000000E+00  0.00000000000E+00  0.46720317968E+03  0.46720317968E+03  0.00000000000E+00 0.  1.
          2   -1    0    0  501    0  0.00000000000E+00 -0.00000000000E+00 -0.18003438961E+04  0.18003438961E+04  0.00000000000E+00 0. -1.
         23    2    1    2    0    0 -0.53180543907E+03 -0.30246499915E+03 -0.15091782025E+04  0.16309221491E+04  0.89365031374E+02 0.  0.
         13    1    3    3    0    0 -0.17133469662E+03 -0.87509421884E+02 -0.58716673788E+03  0.61788207229E+03  0.00000000000E+00 0. -1.
        -13    1    3    3    0    0 -0.36047074245E+03 -0.21495557726E+03 -0.92201146462E+03  0.10130400768E+04  0.00000000000E+00 0.  1.
         22    1    1    2    0    0  0.53180543907E+03  0.30246499915E+03  0.17603748610E+03  0.63662492666E+03  0.00000000000E+00 0.  1.
<mgrwt>
<rscale>  0 0.18342589E+04</rscale>
<asrwt>0</asrwt>
<pdfrwt beam="1">  1        2 0.27697598E+00 0.18342589E+04</pdfrwt>
<pdfrwt beam="2">  1       -2 0.71877413E-01 0.18342589E+04</pdfrwt>
<totfact> 0.14242381E+01</totfact>
</mgrwt>
</event>
<event>
 6    1  0.1817112E-005  0.1607971E+04  0.7818608E-02  0.8815666E-01
         -2   -1    0    0    0  501 -0.00000000000E+00  0.00000000000E+00  0.19233426430E+03  0.19233426430E+03  0.00000000000E+00 0.  1.
          2   -1    0    0  501    0  0.00000000000E+00 -0.00000000000E+00 -0.33607766548E+04  0.33607766548E+04  0.00000000000E+00 0. -1.
         23    2    1    2    0    0 -0.33695975588E+03  0.24353930353E+03 -0.31032158205E+04  0.31322691735E+04  0.91150846839E+02 0.  0.
         11    1    3    3    0    0 -0.19913255030E+03  0.17835654850E+03 -0.17156786760E+04  0.17363807619E+04  0.00000000000E+00 0.  1.
        -11    1    3    3    0    0 -0.13782720558E+03  0.65182755030E+02 -0.13875371445E+04  0.13958884116E+04  0.00000000000E+00 0. -1.
         22    1    1    2    0    0  0.33695975588E+03 -0.24353930353E+03 -0.65226569989E+02  0.42084174564E+03  0.00000000000E+00 0.  1.
<mgrwt>
<rscale>  0 0.16079708E+04</rscale>
<asrwt>0</asrwt>
<pdfrwt beam="1">  1        2 0.51704254E+00 0.16079708E+04</pdfrwt>
<pdfrwt beam="2">  1       -2 0.29589888E-01 0.16079708E+04</pdfrwt>
<totfact> 0.10323816E+01</totfact>
</mgrwt>
</event>
<event>
 6    1  0.1817112E-005  0.1728894E+04  0.7818608E-02  0.8745054E-01
         -2   -1    0    0    0  501 -0.00000000000E+00  0.00000000000E+00  0.43211211549E+03  0.43211211549E+03  0.00000000000E+00 0. -1.
          2   -1    0    0  501    0  0.00000000000E+00 -0.00000000000E+00 -0.17293400914E+04  0.17293400914E+04  0.00000000000E+00 0.  1.
         23    2    1    2    0    0  0.39681627746E+03 -0.15866276131E+03 -0.15864283682E+04  0.16454348654E+04  0.89799215964E+02 0.  0.
         11    1    3    3    0    0  0.13709640842E+03 -0.34401920263E+02 -0.67387949987E+03  0.68854375145E+03  0.00000000000E+00 0.  1.
        -11    1    3    3    0    0  0.25971986904E+03 -0.12426084105E+03 -0.91254886829E+03  0.95689111398E+03  0.00000000000E+00 0. -1.
         22    1    1    2    0    0 -0.39681627746E+03  0.15866276131E+03  0.28920039221E+03  0.51601734151E+03  0.00000000000E+00 0. -1.
<mgrwt>
<rscale>  0 0.17288942E+04</rscale>
<asrwt>0</asrwt>
<pdfrwt beam="1">  1        2 0.26605232E+00 0.17288942E+04</pdfrwt>
<pdfrwt beam="2">  1       -2 0.66478787E-01 0.17288942E+04</pdfrwt>
<totfact> 0.18647164E+01</totfact>
</mgrwt>
</event>
<event>
 6    1  0.1817112E-005  0.2282729E+04  0.7818608E-02  0.8484762E-01
          1   -1    0    0  501    0  0.00000000000E+00  0.00000000000E+00  0.10331919955E+04  0.10331919955E+04  0.00000000000E+00 0. -1.
         -1   -1    0    0    0  501 -0.00000000000E+00 -0.00000000000E+00 -0.12608624480E+04  0.12608624480E+04  0.00000000000E+00 0.  1.
         23    2    1    2    0    0  0.52975285823E+03 -0.10089287937E+04 -0.10842424969E+03  0.11482817530E+04  0.90662918077E+02 0.  0.
         13    1    3    3    0    0  0.38057129373E+03 -0.74923421287E+03 -0.11824431331E+03  0.84862720494E+03  0.00000000000E+00 0.  1.
        -13    1    3    3    0    0  0.14918156450E+03 -0.25969458083E+03  0.98200636175E+01  0.29965454802E+03  0.00000000000E+00 0. -1.
         22    1    1    2    0    0 -0.52975285823E+03  0.10089287937E+04 -0.11924620273E+03  0.11457726906E+04  0.00000000000E+00 0.  1.
<mgrwt>
<rscale>  0 0.22827291E+04</rscale>
<asrwt>0</asrwt>
<pdfrwt beam="1">  1        1 0.15895262E+00 0.22827291E+04</pdfrwt>
<pdfrwt beam="2">  1       -1 0.19397884E+00 0.22827291E+04</pdfrwt>
<totfact> 0.21388137E+00</totfact>
</mgrwt>
</event>
<event>
 6    1  0.1817112E-005  0.1788378E+04  0.7818608E-02  0.8712504E-01
         -1   -1    0    0    0  501 -0.00000000000E+00  0.00000000000E+00  0.19266034616E+04  0.19266034616E+04  0.00000000000E+00 0.  1.
          1   -1    0    0  501    0  0.00000000000E+00 -0.00000000000E+00 -0.41501756798E+03  0.41501756798E+03  0.00000000000E+00 0. -1.
         23    2    1    2    0    0  0.84666049503E+03  0.27689530400E+03  0.70050674306E+03  0.11368993224E+04  0.91243460259E+02 0.  0.
         13    1    3    3    0    0  0.51226240417E+02  0.34614636024E+02  0.69836546649E+02  0.93270809915E+02  0.00000000000E+00 0.  1.
        -13    1    3    3    0    0  0.79543425461E+03  0.24228066798E+03  0.63067019641E+03  0.10436285125E+04  0.00000000000E+00 0. -1.
         22    1    1    2    0    0 -0.84666049503E+03 -0.27689530400E+03  0.81107915057E+03  0.12047217072E+04  0.00000000000E+00 0. -1.
<mgrwt>
<rscale>  0 0.17883784E+04</rscale>
<asrwt>0</asrwt>
<pdfrwt beam="1">  1        1 0.63848857E-01 0.17883784E+04</pdfrwt>
<pdfrwt beam="2">  1       -1 0.29640053E+00 0.17883784E+04</pdfrwt>
<totfact> 0.18818654E+00</totfact>
</mgrwt>
</event>
<event>
 6    1  0.1817112E-005  0.3289341E+04  0.7818608E-02  0.8165613E-01
         -1   -1    0    0    0  501 -0.00000000000E+00  0.00000000000E+00  0.71983153430E+03  0.71983153430E+03  0.00000000000E+00 0.  1.
          1   -1    0    0  501    0  0.00000000000E+00 -0.00000000000E+00 -0.37577416725E+04  0.37577416725E+04  0.00000000000E+00 0. -1.
         23    2    1    2    0    0 -0.65000879603E+03  0.14514817352E+04 -0.20839879902E+04  0.26230441219E+04  0.89687565978E+02 0.  0.
         13    1    3    3    0    0 -0.35886035614E+03  0.83296853442E+03 -0.12578460001E+04  0.15507397895E+04  0.00000000000E+00 0. -1.
        -13    1    3    3    0    0 -0.29114843989E+03  0.61851320074E+03 -0.82614199008E+03  0.10723043324E+04  0.00000000000E+00 0.  1.
         22    1    1    2    0    0  0.65000879603E+03 -0.14514817352E+04 -0.95392214794E+03  0.18545290849E+04  0.00000000000E+00 0.  1.
<mgrwt>
<rscale>  0 0.32893409E+04</rscale>
<asrwt>0</asrwt>
<pdfrwt beam="1">  1        1 0.57811411E+00 0.32893409E+04</pdfrwt>
<pdfrwt beam="2">  1       -1 0.11074331E+00 0.32893409E+04</pdfrwt>
<totfact> 0.96252377E-02</totfact>
</mgrwt>
</event>
<event>
 6    1  0.1817112E-005  0.2359487E+04  0.7818608E-02  0.8454828E-01
         -2   -1    0    0    0  501 -0.00000000000E+00  0.00000000000E+00  0.99443288206E+03  0.99443288206E+03  0.00000000000E+00 0.  1.
          2   -1    0    0  501    0  0.00000000000E+00 -0.00000000000E+00 -0.13995868832E+04  0.13995868832E+04  0.00000000000E+00 0. -1.
         23    2    1    2    0    0  0.18396085354E+03  0.88535421852E+03 -0.96912548968E+03  0.13283005116E+04  0.86512117318E+02 0.  0.
         11    1    3    3    0    0  0.32798990182E+02  0.91125827821E+02 -0.14008028391E+03  0.17030025306E+03  0.00000000000E+00 0.  1.
        -11    1    3    3    0    0  0.15116186336E+03  0.79422839070E+03 -0.82904520577E+03  0.11580002585E+04  0.00000000000E+00 0. -1.
         22    1    1    2    0    0 -0.18396085354E+03 -0.88535421852E+03  0.56397148850E+03  0.10657192537E+04  0.00000000000E+00 0. -1.
<mgrwt>
<rscale>  0 0.23594874E+04</rscale>
<asrwt>0</asrwt>
<pdfrwt beam="1">  1        2 0.21532106E+00 0.23594874E+04</pdfrwt>
<pdfrwt beam="2">  1       -2 0.15298967E+00 0.23594874E+04</pdfrwt>
<totfact> 0.37141160E+00</totfact>
</mgrwt>
</event>
<event>
 6    1  0.1817112E-005  0.2656435E+04  0.7818608E-02  0.8349280E-01
         -2   -1    0    0    0  501 -0.00000000000E+00  0.00000000000E+00  0.78186370084E+03  0.78186370084E+03  0.00000000000E+00 0.  1.
          2   -1    0    0  501    0  0.00000000000E+00 -0.00000000000E+00 -0.22563546435E+04  0.22563546435E+04  0.00000000000E+00 0. -1.
         23    2    1    2    0    0  0.87007159448E+02 -0.66832520343E+03 -0.20449337631E+04  0.21552495824E+04  0.95487399615E+02 0.  0.
         11    1    3    3    0    0 -0.27297819127E+00 -0.24847116193E+03 -0.85654425036E+03  0.89185539504E+03  0.00000000000E+00 0.  1.
        -11    1    3    3    0    0  0.87280137639E+02 -0.41985404150E+03 -0.11883895127E+04  0.12633941873E+04  0.00000000000E+00 0. -1.
         22    1    1    2    0    0 -0.87007159448E+02  0.66832520343E+03  0.57044282041E+03  0.88296876201E+03  0.00000000000E+00 0.  1.
<mgrwt>
<rscale>  0 0.26564350E+04</rscale>
<asrwt>0</asrwt>
<pdfrwt beam="1">  1        2 0.34713149E+00 0.26564350E+04</pdfrwt>
<pdfrwt beam="2">  1       -2 0.12028672E+00 0.26564350E+04</pdfrwt>
<totfact> 0.22302018E+00</totfact>
</mgrwt>
</event>
<event>
 6    1  0.1817112E-005  0.2326803E+04  0.7818608E-02  0.8467428E-01
         -2   -1    0    0    0  501 -0.00000000000E+00  0.00000000000E+00  0.40591650706E+03  0.40591650706E+03  0.00000000000E+00 0.  1.
          2   -1    0    0  501    0  0.00000000000E+00 -0.00000000000E+00 -0.33344357317E+04  0.33344357317E+04  0.00000000000E+00 0. -1.
         23    2    1    2    0    0 -0.81869536898E+02 -0.91816311656E+03 -0.26028153309E+04  0.27626973119E+04  0.90125804581E+02 0.  0.
         11    1    3    3    0    0  0.18141249592E+02 -0.22322305437E+03 -0.60891102964E+03  0.64879139864E+03  0.00000000000E+00 0. -1.
        -11    1    3    3    0    0 -0.10001078649E+03 -0.69494006219E+03 -0.19939043012E+04  0.21139059132E+04  0.00000000000E+00 0.  1.
         22    1    1    2    0    0  0.81869536898E+02  0.91816311656E+03 -0.32570389377E+03  0.97765492691E+03  0.00000000000E+00 0.  1.
<mgrwt>
<rscale>  0 0.23268025E+04</rscale>
<asrwt>0</asrwt>
<pdfrwt beam="1">  1        2 0.51299011E+00 0.23268025E+04</pdfrwt>
<pdfrwt beam="2">  1       -2 0.62448693E-01 0.23268025E+04</pdfrwt>
<totfact> 0.22769140E+00</totfact>
</mgrwt>
</event>
<event>
 6    1  0.1817112E-005  0.1668483E+04  0.7818608E-02  0.8779546E-01
         -1   -1    0    0    0  501 -0.00000000000E+00  0.00000000000E+00  0.32983006108E+03  0.32983006108E+03  0.00000000000E+00 0.  1.
          1   -1    0    0  501    0  0.00000000000E+00 -0.00000000000E+00 -0.21100537873E+04  0.21100537873E+04  0.00000000000E+00 0. -1.
         23    2    1    2    0    0 -0.40609332884E+02  0.77060383579E+03 -0.13465868015E+04  0.15547169872E+04  0.91485008230E+02 0.  0.
         13    1    3    3    0    0  0.25654005381E+02  0.21057184680E+03 -0.40419088088E+03  0.45647442299E+03  0.00000000000E+00 0. -1.
        -13    1    3    3    0    0 -0.66263338265E+02  0.56003198899E+03 -0.94239592058E+03  0.10982425642E+04  0.00000000000E+00 0.  1.
         22    1    1    2    0    0  0.40609332884E+02 -0.77060383579E+03 -0.43363692478E+03  0.88516686121E+03  0.00000000000E+00 0.  1.
<mgrwt>
<rscale>  0 0.16684833E+04</rscale>
<asrwt>0</asrwt>
<pdfrwt beam="1">  1        1 0.32462365E+00 0.16684833E+04</pdfrwt>
<pdfrwt beam="2">  1       -1 0.50743088E-01 0.16684833E+04</pdfrwt>
<totfact> 0.93454141E+00</totfact>
</mgrwt>
</event>
