<event>
 6    1  0.8968082E-007  0.2650201E+04  0.7818608E-02  0.8351346E-01
         -2   -1    0    0    0  501 -0.00000000000E+00  0.00000000000E+00  0.10769194783E+04  0.10769194783E+04  0.00000000000E+00 0.  1.
          2   -1    0    0  501    0  0.00000000000E+00 -0.00000000000E+00 -0.16304762579E+04  0.16304762579E+04  0.00000000000E+00 0. -1.
         23    2    1    2    0    0  0.61652522783E+03 -0.53266376881E+03 -0.13427579826E+04  0.15730798251E+04  0.88017550184E+02 0.  0.
         13    1    3    3    0    0  0.51447878416E+03 -0.40513189572E+03 -0.11091518691E+04  0.12880365449E+04  0.00000000000E+00 0.  1.
        -13    1    3    3    0    0  0.10204644367E+03 -0.12753187310E+03 -0.23360611354E+03  0.28504328023E+03  0.00000000000E+00 0. -1.
         22    1    1    2    0    0 -0.61652522783E+03  0.53266376881E+03  0.78920120305E+03  0.11343159110E+04  0.00000000000E+00 0.  1.
<mgrwt>
<rscale>  0 0.26502012E+04</rscale>
<asrwt>0</asrwt>
<pdfrwt beam="1">  1        2 0.25084250E+00 0.26502012E+04</pdfrwt>
<pdfrwt beam="2">  1       -2 0.16567992E+00 0.26502012E+04</pdfrwt>
<totfact> 0.21625244E+00</totfact>
</mgrwt>
</event>
<event>
 6    1  0.8968082E-007  0.1362149E+04  0.7818608E-02  0.8981682E-01
         -2   -1    0    0    0  501 -0.00000000000E+00  0.00000000000E+00  0.55954863604E+03  0.55954863604E+03  0.00000000000E+00 0.  1.
          2   -1    0    0  501    0  0.00000000000E+00 -0.00000000000E+00 -0.82899404046E+03  0.82899404046E+03  0.00000000000E+00 0. -1.
         23    2    1    2    0    0 -0.62293547155E+03 -0.25073769208E+03 -0.23069477067E+03  0.71592123501E+03  0.91679580984E+02 0.  0.
         13    1    3    3    0    0 -0.38981465528E+03 -0.16529109508E+03 -0.19093680086E+03  0.46447117618E+03  0.00000000000E+00 0. -1.
        -13    1    3    3    0    0 -0.23312081627E+03 -0.85446597002E+02 -0.39757969818E+02  0.25145005883E+03  0.00000000000E+00 0.  1.
         22    1    1    2    0    0  0.62293547155E+03  0.25073769208E+03 -0.38750633747E+02  0.67262144150E+03  0.00000000000E+00 0. -1.
<mgrwt>
<rscale>  0 0.13621490E+04</rscale>
<asrwt>0</asrwt>
<pdfrwt beam="1">  1        2 0.12753754E+00 0.13621490E+04</pdfrwt>
<pdfrwt beam="2">  1       -2 0.86084406E-01 0.13621490E+04</pdfrwt>
<totfact> 0.37526476E+01</totfact>
</mgrwt>
</event>
<event>
 6    1  0.8968082E-007  0.2403325E+04  0.7818608E-02  0.8438260E-01
          3   -1    0    0  501    0  0.00000000000E+00  0.00000000000E+00  0.89546546699E+03  0.89546546699E+03  0.00000000000E+00 0. -1.
         -3   -1    0    0    0  501 -0.00000000000E+00 -0.00000000000E+00 -0.16125605964E+04  0.16125605964E+04  0.00000000000E+00 0.  1.
         23    2    1    2    0    0  0.75230350113E+03  0.93475454678E+03 -0.34910379507E+03  0.12529785572E+04  0.91406698725E+02 0.  0.
         13    1    3    3    0    0  0.27476424976E+03  0.28798257723E+03 -0.14384139226E+03  0.42322535824E+03  0.00000000000E+00 0.  1.
        -13    1    3    3    0    0  0.47753925137E+03  0.64677196955E+03 -0.20526240281E+03  0.82975319897E+03  0.00000000000E+00 0. -1.
         22    1    1    2    0    0 -0.75230350113E+03 -0.93475454678E+03 -0.36799133430E+03  0.12550475061E+04  0.00000000000E+00 0. -1.
<mgrwt>
<rscale>  0 0.24033246E+04</rscale>
<asrwt>0</asrwt>
<pdfrwt beam="1">  1        3 0.13776392E+00 0.24033246E+04</pdfrwt>
<pdfrwt beam="2">  1       -3 0.24808625E+00 0.24033246E+04</pdfrwt>
<totfact> 0.70706876E-02</totfact>
</mgrwt>
</event>
<event>
 6    1  0.8968082E-007  0.2313043E+04  0.7818608E-02  0.8472796E-01
         -2   -1    0    0    0  501 -0.00000000000E+00  0.00000000000E+00  0.11645046409E+04  0.11645046409E+04  0.00000000000E+00 0.  1.
          2   -1    0    0  501    0  0.00000000000E+00 -0.00000000000E+00 -0.11485929192E+04  0.11485929192E+04  0.00000000000E+00 0. -1.
         23    2    1    2    0    0 -0.50026466531E+03  0.92130430586E+03 -0.47615787604E+03  0.11549961619E+04  0.90683249582E+02 0.  0.
         13    1    3    3    0    0 -0.45123915045E+03  0.76250392975E+03 -0.40557216796E+03  0.97443203827E+03  0.00000000000E+00 0.  1.
        -13    1    3    3    0    0 -0.49025514857E+02  0.15880037611E+03 -0.70585708076E+02  0.18056412364E+03  0.00000000000E+00 0. -1.
         22    1    1    2    0    0  0.50026466531E+03 -0.92130430586E+03  0.49206959781E+03  0.11581013982E+04  0.00000000000E+00 0.  1.
<mgrwt>
<rscale>  0 0.23130428E+04</rscale>
<asrwt>0</asrwt>
<pdfrwt beam="1">  1        2 0.17670660E+00 0.23130428E+04</pdfrwt>
<pdfrwt beam="2">  1       -2 0.17915456E+00 0.23130428E+04</pdfrwt>
<totfact> 0.33858168E+00</totfact>
</mgrwt>
</event>
<event>
 6    1  0.8968082E-007  0.1490830E+04  0.7818608E-02  0.8890574E-01
         -2   -1    0    0    0  501 -0.00000000000E+00  0.00000000000E+00  0.23098379663E+03  0.23098379663E+03  0.00000000000E+00 0.  1.
          2   -1    0    0  501    0  0.00000000000E+00 -0.00000000000E+00 -0.24055521556E+04  0.24055521556E+04  0.00000000000E+00 0. -1.
         23    2    1    2    0    0 -0.11433419289E+02 -0.74041990932E+03 -0.98823845922E+03  0.12380614275E+04  0.88478702849E+02 0.  0.
         11    1    3    3    0    0 -0.47273464998E+02 -0.51971359990E+03 -0.67506316126E+03  0.85325686526E+03  0.00000000000E+00 0. -1.
        -11    1    3    3    0    0  0.35840045710E+02 -0.22070630942E+03 -0.31317529796E+03  0.38480456227E+03  0.00000000000E+00 0.  1.
         22    1    1    2    0    0  0.11433419289E+02  0.74041990932E+03 -0.11863298997E+04  0.13984745247E+04  0.00000000000E+00 0. -1.
<mgrwt>
<rscale>  0 0.14908301E+04</rscale>
<asrwt>0</asrwt>
<pdfrwt beam="1">  1        2 0.37008493E+00 0.14908301E+04</pdfrwt>
<pdfrwt beam="2">  1       -2 0.35535970E-01 0.14908301E+04</pdfrwt>
<totfact> 0.28454646E+01</totfact>
</mgrwt>
</event>
<event>
 6    1  0.8968082E-007  0.1564131E+04  0.7818608E-02  0.8842892E-01
         -2   -1    0    0    0  501 -0.00000000000E+00  0.00000000000E+00  0.15642835471E+03  0.15642835471E+03  0.00000000000E+00 0.  1.
          2   -1    0    0  501    0  0.00000000000E+00 -0.00000000000E+00 -0.39099479060E+04  0.39099479060E+04  0.00000000000E+00 0. -1.
         23    2    1    2    0    0  0.27709805752E+03 -0.67430827270E+03 -0.11673569768E+04  0.13794241134E+04  0.92809446185E+02 0.  0.
         11    1    3    3    0    0  0.15122284202E+03 -0.37099316725E+03 -0.72724197518E+03  0.83029221877E+03  0.00000000000E+00 0.  1.
        -11    1    3    3    0    0  0.12587521551E+03 -0.30331510545E+03 -0.44011500163E+03  0.54913189466E+03  0.00000000000E+00 0. -1.
         22    1    1    2    0    0 -0.27709805752E+03  0.67430827270E+03 -0.25861625745E+04  0.26869521473E+04  0.00000000000E+00 0. -1.
<mgrwt>
<rscale>  0 0.15641313E+04</rscale>
<asrwt>0</asrwt>
<pdfrwt beam="1">  1        2 0.60153047E+00 0.15641313E+04</pdfrwt>
<pdfrwt beam="2">  1       -2 0.24065900E-01 0.15641313E+04</pdfrwt>
<totfact> 0.60851912E+00</totfact>
</mgrwt>
</event>
<event>
 6    1  0.8968082E-007  0.1503234E+04  0.7818608E-02  0.8882305E-01
         -1   -1    0    0    0  501 -0.00000000000E+00  0.00000000000E+00  0.52173717593E+03  0.52173717593E+03  0.00000000000E+00 0.  1.
          1   -1    0    0  501    0  0.00000000000E+00 -0.00000000000E+00 -0.10827826967E+04  0.10827826967E+04  0.00000000000E+00 0. -1.
         23    2    1    2    0    0  0.23298167215E+03  0.28624582879E+03  0.41411077677E+03  0.56185648559E+03  0.89318760077E+02 0.  0.
         11    1    3    3    0    0  0.15497584865E+03  0.11974849463E+03  0.21611374602E+03  0.29165453339E+03  0.00000000000E+00 0. -1.
        -11    1    3    3    0    0  0.78005823496E+02  0.16649733416E+03  0.19799703075E+03  0.27020195219E+03  0.00000000000E+00 0.  1.
         22    1    1    2    0    0 -0.23298167215E+03 -0.28624582879E+03 -0.97515629750E+03  0.10426633870E+04  0.00000000000E+00 0. -1.
<mgrwt>
<rscale>  0 0.15032338E+04</rscale>
<asrwt>0</asrwt>
<pdfrwt beam="1">  1        1 0.16658195E+00 0.15032338E+04</pdfrwt>
<pdfrwt beam="2">  1       -1 0.80267259E-01 0.15032338E+04</pdfrwt>
<totfact> 0.19572558E+01</totfact>
</mgrwt>
</event>
<event>
 6    1  0.8968082E-007  0.1708500E+04  0.7818608E-02  0.8756531E-01
          1   -1    0    0  501    0  0.00000000000E+00  0.00000000000E+00  0.18317545794E+04  0.18317545794E+04  0.00000000000E+00 0. -1.
         -1   -1    0    0    0  501 -0.00000000000E+00 -0.00000000000E+00 -0.39838488718E+03  0.39838488718E+03  0.00000000000E+00 0.  1.
         23    2    1    2    0    0  0.66499929951E+03  0.78637800597E+02  0.14064721247E+04  0.15599667641E+04  0.83213553572E+02 0.  0.
         13    1    3    3    0    0  0.31162197776E+03 -0.47652879389E+01  0.65796542236E+03  0.72804495878E+03  0.00000000000E+00 0. -1.
        -13    1    3    3    0    0  0.35337732175E+03  0.83403088536E+02  0.74850670237E+03  0.83192180533E+03  0.00000000000E+00 0.  1.
         22    1    1    2    0    0 -0.66499929951E+03 -0.78637800597E+02  0.26897567519E+02  0.67017270249E+03  0.00000000000E+00 0.  1.
<mgrwt>
<rscale>  0 0.17085003E+04</rscale>
<asrwt>0</asrwt>
<pdfrwt beam="1">  1        1 0.28180839E+00 0.17085003E+04</pdfrwt>
<pdfrwt beam="2">  1       -1 0.61289984E-01 0.17085003E+04</pdfrwt>
<totfact> 0.99532773E+00</totfact>
</mgrwt>
</event>
<event>
 6    1  0.8968082E-007  0.5428956E+04  0.7818608E-02  0.7765541E-01
          2   -1    0    0  501    0  0.00000000000E+00  0.00000000000E+00  0.35327238503E+04  0.35327238503E+04  0.00000000000E+00 0. -1.
         -2   -1    0    0    0  501 -0.00000000000E+00 -0.00000000000E+00 -0.20857537024E+04  0.20857537024E+04  0.00000000000E+00 0.  1.
         23    2    1    2    0    0 -0.25591662989E+04  0.44686143343E+03  0.15355344277E+04  0.30190812924E+04  0.89266935235E+02 0.  0.
         11    1    3    3    0    0 -0.15977745932E+04  0.23606664387E+03  0.94328790541E+03  0.18704018775E+04  0.00000000000E+00 0.  1.
        -11    1    3    3    0    0 -0.96139170574E+03  0.21079478956E+03  0.59224652226E+03  0.11486794149E+04  0.00000000000E+00 0. -1.
         22    1    1    2    0    0  0.25591662989E+04 -0.44686143343E+03 -0.88564279776E+02  0.25993962602E+04  0.00000000000E+00 0.  1.
<mgrwt>
<rscale>  0 0.54289564E+04</rscale>
<asrwt>0</asrwt>
<pdfrwt beam="1">  1        2 0.54349598E+00 0.54289564E+04</pdfrwt>
<pdfrwt beam="2">  1       -2 0.32088518E+00 0.54289564E+04</pdfrwt>
<totfact> 0.12800889E-02</totfact>
</mgrwt>
</event>
<event>
 6    1  0.8968082E-007  0.1145217E+04  0.7818608E-02  0.9162207E-01
          2   -1    0    0  501    0  0.00000000000E+00  0.00000000000E+00  0.15550598212E+04  0.15550598212E+04  0.00000000000E+00 0. -1.
         -2   -1    0    0    0  501 -0.00000000000E+00 -0.00000000000E+00 -0.21084748462E+03  0.21084748462E+03  0.00000000000E+00 0.  1.
         23    2    1    2    0    0  0.93587878131E+02 -0.55178495992E+03  0.82553303029E+03  0.10028518978E+04  0.10479414057E+03 0.  0.
         13    1    3    3    0    0  0.51201676423E+02 -0.49865600452E+03  0.71936562495E+03  0.87679320530E+03  0.00000000000E+00 0.  1.
        -13    1    3    3    0    0  0.42386201707E+02 -0.53128955408E+02  0.10616740534E+03  0.12605869250E+03  0.00000000000E+00 0. -1.
         22    1    1    2    0    0 -0.93587878131E+02  0.55178495992E+03  0.51867930627E+03  0.76305540801E+03  0.00000000000E+00 0. -1.
<mgrwt>
<rscale>  0 0.11452169E+04</rscale>
<asrwt>0</asrwt>
<pdfrwt beam="1">  1        2 0.23923997E+00 0.11452169E+04</pdfrwt>
<pdfrwt beam="2">  1       -2 0.32438076E-01 0.11452169E+04</pdfrwt>
<totfact> 0.10354724E+02</totfact>
</mgrwt>
</event>
<event>
 6    1  0.8968082E-007  0.1429591E+04  0.7818608E-02  0.8932673E-01
         -1   -1    0    0    0  501 -0.00000000000E+00  0.00000000000E+00  0.24335472429E+04  0.24335472429E+04  0.00000000000E+00 0.  1.
          1   -1    0    0  501    0  0.00000000000E+00 -0.00000000000E+00 -0.20995377225E+03  0.20995377225E+03  0.00000000000E+00 0. -1.
         23    2    1    2    0    0  0.11228314697E+03  0.64574423995E+03  0.60247762462E+03  0.89489879774E+03  0.90947465615E+02 0.  0.
         13    1    3    3    0    0  0.20070222227E+02  0.37756240033E+03  0.34038105498E+03  0.50873907119E+03  0.00000000000E+00 0.  1.
        -13    1    3    3    0    0  0.92212924746E+02  0.26818183962E+03  0.26209656964E+03  0.38615972655E+03  0.00000000000E+00 0. -1.
         22    1    1    2    0    0 -0.11228314697E+03 -0.64574423995E+03  0.16211158461E+04  0.17486022175E+04  0.00000000000E+00 0.  1.
<mgrwt>
<rscale>  0 0.14295907E+04</rscale>
<asrwt>0</asrwt>
<pdfrwt beam="1">  1        1 0.32300582E-01 0.14295907E+04</pdfrwt>
<pdfrwt beam="2">  1       -1 0.37439186E+00 0.14295907E+04</pdfrwt>
<totfact> 0.14608310E+00</totfact>
</mgrwt>
</event>
<event>
 6    1  0.8968082E-007  0.2133597E+04  0.7818608E-02  0.8546586E-01
          2   -1    0    0  501    0  0.00000000000E+00  0.00000000000E+00  0.85928753403E+03  0.85928753403E+03  0.00000000000E+00 0. -1.
         -2   -1    0    0    0  501 -0.00000000000E+00 -0.00000000000E+00 -0.13244221130E+04  0.13244221130E+04  0.00000000000E+00 0.  1.
         23    2    1    2    0    0 -0.37649555075E+03 -0.87582619499E+03 -0.71849440675E+03  0.11972961303E+04  0.91996671822E+02 0.  0.
         13    1    3    3    0    0 -0.57715278453E+02 -0.22877247663E+03 -0.16075344826E+03  0.28549881008E+03  0.00000000000E+00 0.  1.
        -13    1    3    3    0    0 -0.31878027230E+03 -0.64705371836E+03 -0.55774095850E+03  0.91179732026E+03  0.00000000000E+00 0. -1.
         22    1    1    2    0    0  0.37649555075E+03  0.87582619499E+03  0.25335982778E+03  0.98641351669E+03  0.00000000000E+00 0. -1.
<mgrwt>
<rscale>  0 0.21335973E+04</rscale>
<asrwt>0</asrwt>
<pdfrwt beam="1">  1        2 0.13219808E+00 0.21335973E+04</pdfrwt>
<pdfrwt beam="2">  1       -2 0.20375725E+00 0.21335973E+04</pdfrwt>
<totfact> 0.36102022E+00</totfact>
</mgrwt>
</event>
<event>
 6    1  0.8968082E-007  0.2400889E+04  0.7818608E-02  0.8439171E-01
         -1   -1    0    0    0  501 -0.00000000000E+00  0.00000000000E+00  0.95570816147E+03  0.95570816147E+03  0.00000000000E+00 0.  1.
          1   -1    0    0  501    0  0.00000000000E+00 -0.00000000000E+00 -0.15078519412E+04  0.15078519412E+04  0.00000000000E+00 0. -1.
         23    2    1    2    0    0  0.81144169154E+03  0.79611336761E+03  0.11364874730E+03  0.11461710934E+04  0.92509592207E+02 0.  0.
         13    1    3    3    0    0  0.20193348593E+03  0.23418117084E+03 -0.12946792450E+01  0.30922423855E+03  0.00000000000E+00 0.  1.
        -13    1    3    3    0    0  0.60950820561E+03  0.56193219677E+03  0.11494342654E+03  0.83694685481E+03  0.00000000000E+00 0. -1.
         22    1    1    2    0    0 -0.81144169154E+03 -0.79611336761E+03 -0.66579252707E+03  0.13173890094E+04  0.00000000000E+00 0. -1.
<mgrwt>
<rscale>  0 0.24008885E+04</rscale>
<asrwt>0</asrwt>
<pdfrwt beam="1">  1        1 0.23197722E+00 0.24008885E+04</pdfrwt>
<pdfrwt beam="2">  1       -1 0.14703202E+00 0.24008885E+04</pdfrwt>
<totfact> 0.21311812E+00</totfact>
</mgrwt>
</event>
<event>
 6    1  0.8968082E-007  0.4969973E+04  0.7818608E-02  0.7833156E-01
         -2   -1    0    0    0  501 -0.00000000000E+00  0.00000000000E+00  0.22631456316E+04  0.22631456316E+04  0.00000000000E+00 0.  1.
          2   -1    0    0  501    0  0.00000000000E+00 -0.00000000000E+00 -0.27285729327E+04  0.27285729327E+04  0.00000000000E+00 0. -1.
         23    2    1    2    0    0  0.80583449028E+03 -0.21478271855E+04  0.72449700115E+03  0.24074487081E+04  0.91556174723E+02 0.  0.
         11    1    3    3    0    0  0.45486980179E+03 -0.10930861006E+04  0.39292339238E+03  0.12474504207E+04  0.00000000000E+00 0.  1.
        -11    1    3    3    0    0  0.35096468848E+03 -0.10547410849E+04  0.33157360877E+03  0.11599982874E+04  0.00000000000E+00 0. -1.
         22    1    1    2    0    0 -0.80583449028E+03  0.21478271855E+04 -0.11899243022E+04  0.25842698561E+04  0.00000000000E+00 0. -1.
<mgrwt>
<rscale>  0 0.49699730E+04</rscale>
<asrwt>0</asrwt>
<pdfrwt beam="1">  1        2 0.41978045E+00 0.49699730E+04</pdfrwt>
<pdfrwt beam="2">  1       -2 0.34817625E+00 0.49699730E+04</pdfrwt>
<totfact> 0.29764149E-02</totfact>
</mgrwt>
</event>
<event>
 6    1  0.8968082E-007  0.3320226E+04  0.7818608E-02  0.8157768E-01
         -2   -1    0    0    0  501 -0.00000000000E+00  0.00000000000E+00  0.27235290335E+04  0.27235290335E+04  0.00000000000E+00 0.  1.
          2   -1    0    0  501    0  0.00000000000E+00 -0.00000000000E+00 -0.10119133090E+04  0.10119133090E+04  0.00000000000E+00 0. -1.
         23    2    1    2    0    0  0.21546054573E+03 -0.15199639811E+04  0.15636749806E+04  0.21931712203E+04  0.90591423502E+02 0.  0.
         11    1    3    3    0    0  0.63764232747E+02 -0.77070316720E+03  0.79325182801E+03  0.11078346952E+04  0.00000000000E+00 0. -1.
        -11    1    3    3    0    0  0.15169631299E+03 -0.74926081390E+03  0.77042315255E+03  0.10853365250E+04  0.00000000000E+00 0.  1.
         22    1    1    2    0    0 -0.21546054573E+03  0.15199639811E+04  0.14794074392E+03  0.15422711222E+04  0.00000000000E+00 0. -1.
<mgrwt>
<rscale>  0 0.33202261E+04</rscale>
<asrwt>0</asrwt>
<pdfrwt beam="1">  1        2 0.15567897E+00 0.33202261E+04</pdfrwt>
<pdfrwt beam="2">  1       -2 0.41900446E+00 0.33202261E+04</pdfrwt>
<totfact> 0.11475034E-01</totfact>
</mgrwt>
</event>
<event>
 6    1  0.8968082E-007  0.2340076E+04  0.7818608E-02  0.8462285E-01
          2   -1    0    0  501    0  0.00000000000E+00  0.00000000000E+00  0.11389896116E+04  0.11389896116E+04  0.00000000000E+00 0. -1.
         -2   -1    0    0    0  501 -0.00000000000E+00 -0.00000000000E+00 -0.12019323987E+04  0.12019323987E+04  0.00000000000E+00 0.  1.
         23    2    1    2    0    0  0.11151594188E+04  0.39540330104E+02  0.31541234700E+03  0.11626620329E+04  0.84581836963E+02 0.  0.
         13    1    3    3    0    0  0.54171482006E+03 -0.15386663397E+02  0.17817028737E+03  0.57047028580E+03  0.00000000000E+00 0.  1.
        -13    1    3    3    0    0  0.57344459872E+03  0.54926993500E+02  0.13724205963E+03  0.59219174711E+03  0.00000000000E+00 0. -1.
         22    1    1    2    0    0 -0.11151594188E+04 -0.39540330104E+02 -0.37835513411E+03  0.11782599775E+04  0.00000000000E+00 0. -1.
<mgrwt>
<rscale>  0 0.23400757E+04</rscale>
<asrwt>0</asrwt>
<pdfrwt beam="1">  1        2 0.17522917E+00 0.23400757E+04</pdfrwt>
<pdfrwt beam="2">  1       -2 0.18491268E+00 0.23400757E+04</pdfrwt>
<totfact> 0.31258473E+00</totfact>
</mgrwt>
</event>
<event>
 6    1  0.8968082E-007  0.3247355E+04  0.7818608E-02  0.8176421E-01
          1   -1    0    0  501    0  0.00000000000E+00  0.00000000000E+00  0.24678633132E+04  0.24678633132E+04  0.00000000000E+00 0. -1.
         -1   -1    0    0    0  501 -0.00000000000E+00 -0.00000000000E+00 -0.10682639444E+04  0.10682639444E+04  0.00000000000E+00 0.  1.
         23    2    1    2    0    0  0.15399600432E+04  0.42780600620E+03  0.39636957907E+03  0.16490753440E+04  0.88576145807E+02 0.  0.
         11    1    3    3    0    0  0.11966526918E+04  0.29533260139E+03  0.31600537785E+03  0.12724222605E+04  0.00000000000E+00 0. -1.
        -11    1    3    3    0    0  0.34330735134E+03  0.13247340481E+03  0.80364201227E+02  0.37665308349E+03  0.00000000000E+00 0.  1.
         22    1    1    2    0    0 -0.15399600432E+04 -0.42780600620E+03  0.10032297897E+04  0.18870519136E+04  0.00000000000E+00 0. -1.
<mgrwt>
<rscale>  0 0.32473555E+04</rscale>
<asrwt>0</asrwt>
<pdfrwt beam="1">  1        1 0.37967128E+00 0.32473555E+04</pdfrwt>
<pdfrwt beam="2">  1       -1 0.16434830E+00 0.32473555E+04</pdfrwt>
<totfact> 0.32196242E-01</totfact>
</mgrwt>
</event>
<event>
 6    1  0.8968082E-007  0.3247513E+04  0.7818608E-02  0.8176381E-01
         -4   -1    0    0    0  501 -0.00000000000E+00  0.00000000000E+00  0.17740598896E+04  0.17740598896E+04  0.00000000000E+00 0.  1.
          4   -1    0    0  501    0  0.00000000000E+00 -0.00000000000E+00 -0.14861871308E+04  0.14861871308E+04  0.00000000000E+00 0. -1.
         23    2    1    2    0    0  0.91849009845E+03 -0.99897891888E+03 -0.74874517028E+03  0.15525703320E+04  0.90952539133E+02 0.  0.
         11    1    3    3    0    0  0.17072828965E+03 -0.16171176126E+03 -0.16522110232E+03  0.28739668625E+03  0.00000000000E+00 0.  1.
        -11    1    3    3    0    0  0.74776180880E+03 -0.83726715762E+03 -0.58352406796E+03  0.12651736457E+04  0.00000000000E+00 0. -1.
         22    1    1    2    0    0 -0.91849009845E+03  0.99897891888E+03  0.10366179290E+04  0.17076766884E+04  0.00000000000E+00 0.  1.
<mgrwt>
<rscale>  0 0.32475129E+04</rscale>
<asrwt>0</asrwt>
<pdfrwt beam="1">  1        4 0.22864417E+00 0.32475129E+04</pdfrwt>
<pdfrwt beam="2">  1       -4 0.27293229E+00 0.32475129E+04</pdfrwt>
<totfact> 0.64910386E-03</totfact>
</mgrwt>
</event>
<event>
 6    1  0.8968082E-007  0.4653866E+04  0.7818608E-02  0.7884240E-01
          2   -1    0    0  501    0  0.00000000000E+00  0.00000000000E+00  0.19285832880E+04  0.19285832880E+04  0.00000000000E+00 0. -1.
         -2   -1    0    0    0  501 -0.00000000000E+00 -0.00000000000E+00 -0.28075619669E+04  0.28075619669E+04  0.00000000000E+00 0.  1.
         23    2    1    2    0    0 -0.71554468685E+02  0.90569102446E+03 -0.26187891505E+04  0.27734081989E+04  0.91324417765E+02 0.  0.
         13    1    3    3    0    0 -0.13162179099E+02  0.89056047027E+02 -0.35085530347E+03  0.36222046663E+03  0.00000000000E+00 0. -1.
        -13    1    3    3    0    0 -0.58392289585E+02  0.81663497744E+03 -0.22679338470E+04  0.24111877323E+04  0.00000000000E+00 0.  1.
         22    1    1    2    0    0  0.71554468685E+02 -0.90569102446E+03  0.17398104716E+04  0.19627370559E+04  0.00000000000E+00 0. -1.
<mgrwt>
<rscale>  0 0.46538660E+04</rscale>
<asrwt>0</asrwt>
<pdfrwt beam="1">  1        2 0.29670512E+00 0.46538660E+04</pdfrwt>
<pdfrwt beam="2">  1       -2 0.43193261E+00 0.46538660E+04</pdfrwt>
<totfact> 0.25073357E-02</totfact>
</mgrwt>
</event>
<event>
 6    1  0.8968082E-007  0.6626813E+04  0.7818608E-02  0.7617197E-01
         -2   -1    0    0    0  501 -0.00000000000E+00  0.00000000000E+00  0.26296335095E+04  0.26296335095E+04  0.00000000000E+00 0.  1.
          2   -1    0    0  501    0  0.00000000000E+00 -0.00000000000E+00 -0.41749780652E+04  0.41749780652E+04  0.00000000000E+00 0. -1.
         23    2    1    2    0    0 -0.15650252956E+04 -0.25738625558E+04  0.64282493762E+03  0.30814196157E+04  0.88602009016E+02 0.  0.
         13    1    3    3    0    0 -0.78055836635E+03 -0.11988982336E+04  0.30920386684E+03  0.14636377179E+04  0.00000000000E+00 0.  1.
        -13    1    3    3    0    0 -0.78446692924E+03 -0.13749643221E+04  0.33362107078E+03  0.16177818979E+04  0.00000000000E+00 0. -1.
         22    1    1    2    0    0  0.15650252956E+04  0.25738625558E+04 -0.21881694933E+04  0.37231919589E+04  0.00000000000E+00 0. -1.
<mgrwt>
<rscale>  0 0.66268129E+04</rscale>
<asrwt>0</asrwt>
<pdfrwt beam="1">  1        2 0.64230432E+00 0.66268129E+04</pdfrwt>
<pdfrwt beam="2">  1       -2 0.40455900E+00 0.66268129E+04</pdfrwt>
<totfact> 0.10799278E-03</totfact>
</mgrwt>
</event>
<event>
 6    1  0.8968082E-007  0.3231076E+04  0.7818608E-02  0.8180658E-01
         -2   -1    0    0    0  501 -0.00000000000E+00  0.00000000000E+00  0.75150001011E+03  0.75150001011E+03  0.00000000000E+00 0.  1.
          2   -1    0    0  501    0  0.00000000000E+00 -0.00000000000E+00 -0.34730047071E+04  0.34730047071E+04  0.00000000000E+00 0. -1.
         23    2    1    2    0    0 -0.13149516299E+04 -0.83136165780E+03 -0.79866535563E+03  0.17511322972E+04  0.91312523754E+02 0.  0.
         11    1    3    3    0    0 -0.25270527560E+03 -0.14309927557E+03 -0.11303263197E+03  0.31163076689E+03  0.00000000000E+00 0.  1.
        -11    1    3    3    0    0 -0.10622463543E+04 -0.68826238222E+03 -0.68563272367E+03  0.14395015303E+04  0.00000000000E+00 0. -1.
         22    1    1    2    0    0  0.13149516299E+04  0.83136165780E+03 -0.19228393414E+04  0.24733724200E+04  0.00000000000E+00 0.  1.
<mgrwt>
<rscale>  0 0.32310760E+04</rscale>
<asrwt>0</asrwt>
<pdfrwt beam="1">  1        2 0.53430842E+00 0.32310760E+04</pdfrwt>
<pdfrwt beam="2">  1       -2 0.11561539E+00 0.32310760E+04</pdfrwt>
<totfact> 0.41449590E-01</totfact>
</mgrwt>
</event>
<event>
 6    1  0.8968082E-007  0.2885839E+04  0.7818608E-02  0.8277103E-01
         -1   -1    0    0    0  501 -0.00000000000E+00  0.00000000000E+00  0.19734936177E+04  0.19734936177E+04  0.00000000000E+00 0.  1.
          1   -1    0    0  501    0  0.00000000000E+00 -0.00000000000E+00 -0.10549901080E+04  0.10549901080E+04  0.00000000000E+00 0. -1.
         23    2    1    2    0    0 -0.39828196817E+03  0.10747861184E+04  0.13769502531E+04  0.17939930845E+04  0.92873360550E+02 0.  0.
         13    1    3    3    0    0 -0.22663688070E+03  0.73364284829E+03  0.90289210519E+03  0.11852469186E+04  0.00000000000E+00 0. -1.
        -13    1    3    3    0    0 -0.17164508747E+03  0.34114327011E+03  0.47405814796E+03  0.60874616585E+03  0.00000000000E+00 0.  1.
         22    1    1    2    0    0  0.39828196817E+03 -0.10747861184E+04 -0.45844674343E+03  0.12344906411E+04  0.00000000000E+00 0. -1.
<mgrwt>
<rscale>  0 0.28858387E+04</rscale>
<asrwt>0</asrwt>
<pdfrwt beam="1">  1        1 0.16230617E+00 0.28858387E+04</pdfrwt>
<pdfrwt beam="2">  1       -1 0.30361440E+00 0.28858387E+04</pdfrwt>
<totfact> 0.36882858E-01</totfact>
</mgrwt>
</event>
<event>
 6    1  0.8968082E-007  0.2916817E+04  0.7818608E-02  0.8267892E-01
         -2   -1    0    0    0  501 -0.00000000000E+00  0.00000000000E+00  0.21744690761E+04  0.21744690761E+04  0.00000000000E+00 0.  1.
          2   -1    0    0  501    0  0.00000000000E+00 -0.00000000000E+00 -0.97814911501E+03  0.97814911501E+03  0.00000000000E+00 0. -1.
         23    2    1    2    0    0 -0.29644070918E+03 -0.14101982144E+04  0.36666600556E+03  0.14898308373E+04  0.92821689399E+02 0.  0.
         11    1    3    3    0    0 -0.14492449691E+03 -0.77616603310E+03  0.24475024757E+03  0.82664351714E+03  0.00000000000E+00 0. -1.
        -11    1    3    3    0    0 -0.15151621227E+03 -0.63403218133E+03  0.12191575799E+03  0.66318732014E+03  0.00000000000E+00 0.  1.
         22    1    1    2    0    0  0.29644070918E+03  0.14101982144E+04  0.82965395548E+03  0.16627873538E+04  0.00000000000E+00 0.  1.
<mgrwt>
<rscale>  0 0.29168168E+04</rscale>
<asrwt>0</asrwt>
<pdfrwt beam="1">  1        2 0.15048448E+00 0.29168168E+04</pdfrwt>
<pdfrwt beam="2">  1       -2 0.33453370E+00 0.29168168E+04</pdfrwt>
<totfact> 0.43620985E-01</totfact>
</mgrwt>
</event>
<event>
 6    1  0.8968082E-007  0.1013728E+04  0.7818608E-02  0.9293615E-01
          2   -1    0    0  501    0  0.00000000000E+00  0.00000000000E+00  0.28441053406E+04  0.28441053406E+04  0.00000000000E+00 0. -1.
         -2   -1    0    0    0  501 -0.00000000000E+00 -0.00000000000E+00 -0.90331026978E+02  0.90331026978E+02  0.00000000000E+00 0.  1.
         23    2    1    2    0    0 -0.21813810697E+03 -0.43635565403E+03  0.10355118462E+04  0.11482626925E+04  0.90730022040E+02 0.  0.
         13    1    3    3    0    0 -0.21432897475E+02 -0.51437398096E+02  0.19913164066E+03  0.20678149174E+03  0.00000000000E+00 0. -1.
        -13    1    3    3    0    0 -0.19670520949E+03 -0.38491825593E+03  0.83638020555E+03  0.94148120078E+03  0.00000000000E+00 0.  1.
         22    1    1    2    0    0  0.21813810697E+03  0.43635565403E+03  0.17182624674E+04  0.17861736750E+04  0.00000000000E+00 0.  1.
<mgrwt>
<rscale>  0 0.10137277E+04</rscale>
<asrwt>0</asrwt>
<pdfrwt beam="1">  1        2 0.43755460E+00 0.10137277E+04</pdfrwt>
<pdfrwt beam="2">  1       -2 0.13897083E-01 0.10137277E+04</pdfrwt>
<totfact> 0.88343232E+01</totfact>
</mgrwt>
</event>
<event>
 6    1  0.8968082E-007  0.3742004E+04  0.7818608E-02  0.8058716E-01
          2   -1    0    0  501    0  0.00000000000E+00  0.00000000000E+00  0.25852890498E+04  0.25852890498E+04  0.00000000000E+00 0. -1.
         -2   -1    0    0    0  501 -0.00000000000E+00 -0.00000000000E+00 -0.13540647304E+04  0.13540647304E+04  0.00000000000E+00 0.  1.
         23    2    1    2    0    0  0.11059130095E+04  0.98362719197E+03 -0.58706999374E+03  0.15948367198E+04  0.91032675271E+02 0.  0.
         11    1    3    3    0    0  0.28144329857E+03  0.20786506178E+03 -0.11505259385E+03  0.36831415065E+03  0.00000000000E+00 0. -1.
        -11    1    3    3    0    0  0.82446971096E+03  0.77576213019E+03 -0.47201739988E+03  0.12265225692E+04  0.00000000000E+00 0.  1.
         22    1    1    2    0    0 -0.11059130095E+04 -0.98362719197E+03  0.18182943131E+04  0.23445170604E+04  0.00000000000E+00 0. -1.
<mgrwt>
<rscale>  0 0.37420041E+04</rscale>
<asrwt>0</asrwt>
<pdfrwt beam="1">  1        2 0.39773678E+00 0.37420041E+04</pdfrwt>
<pdfrwt beam="2">  1       -2 0.20831765E+00 0.37420041E+04</pdfrwt>
<totfact> 0.29358953E-01</totfact>
</mgrwt>
</event>
<event>
 6    1  0.8968082E-007  0.5274963E+04  0.7818608E-02  0.7787437E-01
         -2   -1    0    0    0  501 -0.00000000000E+00  0.00000000000E+00  0.21029302394E+04  0.21029302394E+04  0.00000000000E+00 0.  1.
          2   -1    0    0  501    0  0.00000000000E+00 -0.00000000000E+00 -0.33079126706E+04  0.33079126706E+04  0.00000000000E+00 0. -1.
         23    2    1    2    0    0  0.10987369901E+04 -0.17016292542E+04  0.11289080808E+04  0.23205662211E+04  0.88481859412E+02 0.  0.
         11    1    3    3    0    0  0.47340453013E+03 -0.79337816853E+03  0.54855306508E+03  0.10744632300E+04  0.00000000000E+00 0.  1.
        -11    1    3    3    0    0  0.62533245997E+03 -0.90825108564E+03  0.58035501570E+03  0.12461029911E+04  0.00000000000E+00 0. -1.
         22    1    1    2    0    0 -0.10987369901E+04  0.17016292542E+04 -0.23338905120E+04  0.30902766890E+04  0.00000000000E+00 0. -1.
<mgrwt>
<rscale>  0 0.52749633E+04</rscale>
<asrwt>0</asrwt>
<pdfrwt beam="1">  1        2 0.50890964E+00 0.52749633E+04</pdfrwt>
<pdfrwt beam="2">  1       -2 0.32352773E+00 0.52749633E+04</pdfrwt>
<totfact> 0.17825802E-02</totfact>
</mgrwt>
</event>
<event>
 6    1  0.8968082E-007  0.8780795E+03  0.7818608E-02  0.9453406E-01
         -4   -1    0    0    0  501 -0.00000000000E+00  0.00000000000E+00  0.39352654655E+03  0.39352654655E+03  0.00000000000E+00 0.  1.
          4   -1    0    0  501    0  0.00000000000E+00 -0.00000000000E+00 -0.48981680657E+03  0.48981680657E+03  0.00000000000E+00 0. -1.
         23    2    1    2    0    0  0.25105850067E+03  0.26459063443E+03 -0.28381365043E+03  0.47321703533E+03  0.10171332150E+03 0.  0.
         11    1    3    3    0    0  0.22946403327E+03  0.18081580633E+03 -0.21985906662E+03  0.36563110857E+03  0.00000000000E+00 0.  1.
        -11    1    3    3    0    0  0.21594467400E+02  0.83774828105E+02 -0.63954583813E+02  0.10758592676E+03  0.00000000000E+00 0. -1.
         22    1    1    2    0    0 -0.25105850067E+03 -0.26459063443E+03  0.18752339041E+03  0.41012631778E+03  0.00000000000E+00 0.  1.
<mgrwt>
<rscale>  0 0.87807953E+03</rscale>
<asrwt>0</asrwt>
<pdfrwt beam="1">  1        4 0.75356432E-01 0.87807953E+03</pdfrwt>
<pdfrwt beam="2">  1       -4 0.60542546E-01 0.87807953E+03</pdfrwt>
<totfact> 0.81225946E+00</totfact>
</mgrwt>
</event>
<event>
 6    1  0.8968082E-007  0.1942226E+04  0.7818608E-02  0.8634119E-01
          1   -1    0    0  501    0  0.00000000000E+00  0.00000000000E+00  0.16006397498E+04  0.16006397498E+04  0.00000000000E+00 0. -1.
         -1   -1    0    0    0  501 -0.00000000000E+00 -0.00000000000E+00 -0.58917701561E+03  0.58917701561E+03  0.00000000000E+00 0.  1.
         23    2    1    2    0    0 -0.21628211087E+03  0.94149273026E+03  0.41425472472E+03  0.10541038091E+04  0.79632598776E+02 0.  0.
         13    1    3    3    0    0 -0.18696892206E+03  0.67252789736E+03  0.28041882232E+03  0.75225385772E+03  0.00000000000E+00 0.  1.
        -13    1    3    3    0    0 -0.29313188806E+02  0.26896483289E+03  0.13383590240E+03  0.30184995137E+03  0.00000000000E+00 0. -1.
         22    1    1    2    0    0  0.21628211087E+03 -0.94149273026E+03  0.59720800951E+03  0.11357129564E+04  0.00000000000E+00 0. -1.
<mgrwt>
<rscale>  0 0.19422257E+04</rscale>
<asrwt>0</asrwt>
<pdfrwt beam="1">  1        1 0.24625227E+00 0.19422257E+04</pdfrwt>
<pdfrwt beam="2">  1       -1 0.90642618E-01 0.19422257E+04</pdfrwt>
<totfact> 0.61789379E+00</totfact>
</mgrwt>
</event>
<event>
 6    1  0.8968082E-007  0.1102813E+04  0.7818608E-02  0.9202455E-01
          4   -1    0    0  501    0  0.00000000000E+00  0.00000000000E+00  0.54202628758E+03  0.54202628758E+03  0.00000000000E+00 0. -1.
         -4   -1    0    0    0  501 -0.00000000000E+00 -0.00000000000E+00 -0.56094896237E+03  0.56094896237E+03  0.00000000000E+00 0.  1.
         23    2    1    2    0    0 -0.51167605194E+03  0.10785712319E+03 -0.17274807902E+03  0.55789929549E+03  0.89242276716E+02 0.  0.
         13    1    3    3    0    0 -0.45034851084E+03  0.11793804781E+03 -0.17027932632E+03  0.49569972090E+03  0.00000000000E+00 0.  1.
        -13    1    3    3    0    0 -0.61327541101E+02 -0.10080924615E+02 -0.24687526981E+01  0.62199574584E+02  0.00000000000E+00 0. -1.
         22    1    1    2    0    0  0.51167605194E+03 -0.10785712319E+03  0.15382540423E+03  0.54507595446E+03  0.00000000000E+00 0. -1.
<mgrwt>
<rscale>  0 0.11028129E+04</rscale>
<asrwt>0</asrwt>
<pdfrwt beam="1">  1        4 0.83388660E-01 0.11028129E+04</pdfrwt>
<pdfrwt beam="2">  1       -4 0.86299840E-01 0.11028129E+04</pdfrwt>
<totfact> 0.29103463E+00</totfact>
</mgrwt>
</event>
<event>
 6    1  0.8968082E-007  0.2013261E+04  0.7818608E-02  0.8600446E-01
          2   -1    0    0  501    0  0.00000000000E+00  0.00000000000E+00  0.12924603214E+04  0.12924603214E+04  0.00000000000E+00 0. -1.
         -2   -1    0    0    0  501 -0.00000000000E+00 -0.00000000000E+00 -0.78401224605E+03  0.78401224605E+03  0.00000000000E+00 0.  1.
         23    2    1    2    0    0 -0.50633196781E+02  0.38766349637E+03 -0.69957805040E+03  0.80675849431E+03  0.92752964977E+02 0.  0.
         13    1    3    3    0    0 -0.47303982139E+02  0.30506874607E+03 -0.46596986622E+03  0.55895663765E+03  0.00000000000E+00 0.  1.
        -13    1    3    3    0    0 -0.33292146420E+01  0.82594750303E+02 -0.23360818418E+03  0.24780185666E+03  0.00000000000E+00 0. -1.
         22    1    1    2    0    0  0.50633196781E+02 -0.38766349637E+03  0.12080261257E+04  0.12697140731E+04  0.00000000000E+00 0. -1.
<mgrwt>
<rscale>  0 0.20132608E+04</rscale>
<asrwt>0</asrwt>
<pdfrwt beam="1">  1        2 0.19884005E+00 0.20132608E+04</pdfrwt>
<pdfrwt beam="2">  1       -2 0.12061727E+00 0.20132608E+04</pdfrwt>
<totfact> 0.81268128E+00</totfact>
</mgrwt>
</event>
<event>
 6    1  0.8968082E-007  0.6138403E+03  0.7818608E-02  0.9877101E-01
          1   -1    0    0  501    0  0.00000000000E+00  0.00000000000E+00  0.48882367696E+03  0.48882367696E+03  0.00000000000E+00 0. -1.
         -1   -1    0    0    0  501 -0.00000000000E+00 -0.00000000000E+00 -0.19270745078E+03  0.19270745078E+03  0.00000000000E+00 0.  1.
         23    2    1    2    0    0  0.26235834891E+03 -0.36956119214E+02 -0.74579217121E+01  0.27859822855E+03  0.85811970985E+02 0.  0.
         11    1    3    3    0    0  0.14421018756E+03 -0.58135267613E+02  0.15958344935E+02  0.15630405084E+03  0.00000000000E+00 0. -1.
        -11    1    3    3    0    0  0.11814816135E+03  0.21179148400E+02 -0.23416266647E+02  0.12229417771E+03  0.00000000000E+00 0.  1.
         22    1    1    2    0    0 -0.26235834891E+03  0.36956119214E+02  0.30357414789E+03  0.40293289920E+03  0.00000000000E+00 0. -1.
<mgrwt>
<rscale>  0 0.61384026E+03</rscale>
<asrwt>0</asrwt>
<pdfrwt beam="1">  1        1 0.75203642E-01 0.61384026E+03</pdfrwt>
<pdfrwt beam="2">  1       -1 0.29647300E-01 0.61384026E+03</pdfrwt>
<totfact> 0.48148409E+02</totfact>
</mgrwt>
</event>
<event>
 6    1  0.8968082E-007  0.2240102E+04  0.7818608E-02  0.8501920E-01
          2   -1    0    0  501    0  0.00000000000E+00  0.00000000000E+00  0.24029854407E+04  0.24029854407E+04  0.00000000000E+00 0. -1.
         -2   -1    0    0    0  501 -0.00000000000E+00 -0.00000000000E+00 -0.52206503157E+03  0.52206503157E+03  0.00000000000E+00 0.  1.
         23    2    1    2    0    0 -0.65756832636E+03 -0.19079650709E+03  0.20956711156E+04  0.22074731059E+04  0.11090841906E+03 0.  0.
         11    1    3    3    0    0 -0.39668326176E+03 -0.87791694264E+02  0.10838498074E+04  0.11574953118E+04  0.00000000000E+00 0.  1.
        -11    1    3    3    0    0 -0.26088506460E+03 -0.10300481283E+03  0.10118213082E+04  0.10499777941E+04  0.00000000000E+00 0. -1.
         22    1    1    2    0    0  0.65756832636E+03  0.19079650709E+03 -0.21475070641E+03  0.71757736646E+03  0.00000000000E+00 0.  1.
<mgrwt>
<rscale>  0 0.22401024E+04</rscale>
<asrwt>0</asrwt>
<pdfrwt beam="1">  1        2 0.36969006E+00 0.22401024E+04</pdfrwt>
<pdfrwt beam="2">  1       -2 0.80317699E-01 0.22401024E+04</pdfrwt>
<totfact> 0.49422412E+00</totfact>
</mgrwt>
</event>
<event>
 6    1  0.8968082E-007  0.2991552E+04  0.7818608E-02  0.8246148E-01
         -2   -1    0    0    0  501 -0.00000000000E+00  0.00000000000E+00  0.22692525255E+04  0.22692525255E+04  0.00000000000E+00 0.  1.
          2   -1    0    0  501    0  0.00000000000E+00 -0.00000000000E+00 -0.98593925985E+03  0.98593925985E+03  0.00000000000E+00 0. -1.
         23    2    1    2    0    0 -0.50312271274E+03  0.67999464279E+03  0.19827813893E+04  0.21575666971E+04  0.90259825194E+02 0.  0.
         11    1    3    3    0    0 -0.14620571883E+03  0.27039692574E+03  0.72140030641E+03  0.78416134293E+03  0.00000000000E+00 0. -1.
        -11    1    3    3    0    0 -0.35691699392E+03  0.40959771705E+03  0.12613810829E+04  0.13734053541E+04  0.00000000000E+00 0.  1.
         22    1    1    2    0    0  0.50312271274E+03 -0.67999464279E+03 -0.69946812371E+03  0.10976250883E+04  0.00000000000E+00 0. -1.
<mgrwt>
<rscale>  0 0.29915515E+04</rscale>
<asrwt>0</asrwt>
<pdfrwt beam="1">  1        2 0.15168296E+00 0.29915515E+04</pdfrwt>
<pdfrwt beam="2">  1       -2 0.34911577E+00 0.29915515E+04</pdfrwt>
<totfact> 0.34712886E-01</totfact>
</mgrwt>
</event>
<event>
 6    1  0.8968082E-007  0.1731440E+04  0.7818608E-02  0.8743633E-01
         -2   -1    0    0    0  501 -0.00000000000E+00  0.00000000000E+00  0.60510000266E+03  0.60510000266E+03  0.00000000000E+00 0.  1.
          2   -1    0    0  501    0  0.00000000000E+00 -0.00000000000E+00 -0.12385912106E+04  0.12385912106E+04  0.00000000000E+00 0. -1.
         23    2    1    2    0    0  0.44563277165E+03  0.93714834248E+02  0.46337794951E+03  0.65604943819E+03  0.91163062290E+02 0.  0.
         13    1    3    3    0    0  0.51605309006E+02  0.90292440257E+01  0.10229529949E+03  0.11493025478E+03  0.00000000000E+00 0.  1.
        -13    1    3    3    0    0  0.39402746265E+03  0.84685590222E+02  0.36108265002E+03  0.54111918341E+03  0.00000000000E+00 0. -1.
         22    1    1    2    0    0 -0.44563277165E+03 -0.93714834248E+02 -0.10968691574E+04  0.11876417750E+04  0.00000000000E+00 0. -1.
<mgrwt>
<rscale>  0 0.17314405E+04</rscale>
<asrwt>0</asrwt>
<pdfrwt beam="1">  1        2 0.19055249E+00 0.17314405E+04</pdfrwt>
<pdfrwt beam="2">  1       -2 0.93092308E-01 0.17314405E+04</pdfrwt>
<totfact> 0.16665789E+01</totfact>
</mgrwt>
</event>
<event>
 6    1  0.1358087E-006  0.3237709E+04  0.7818608E-02  0.8178929E-01
          1   -1    0    0  501    0  0.00000000000E+00  0.00000000000E+00  0.23559369738E+04  0.23559369738E+04  0.00000000000E+00 0. -1.
         -1   -1    0    0    0  501 -0.00000000000E+00 -0.00000000000E+00 -0.11123767355E+04  0.11123767355E+04  0.00000000000E+00 0.  1.
         23    2    1    2    0    0  0.15684955895E+04  0.29943289275E+03  0.34628843390E+03  0.16366655000E+04  0.94444734681E+02 0.  0.
         11    1    3    3    0    0  0.88338321767E+03  0.20937424819E+03  0.17179336880E+03  0.92396777358E+03  0.00000000000E+00 0.  1.
        -11    1    3    3    0    0  0.68511237186E+03  0.90058644564E+02  0.17449506510E+03  0.71269772644E+03  0.00000000000E+00 0. -1.
         22    1    1    2    0    0 -0.15684955895E+04 -0.29943289275E+03  0.89727180441E+03  0.18316482093E+04  0.00000000000E+00 0. -1.
<mgrwt>
<rscale>  0 0.32377087E+04</rscale>
<asrwt>0</asrwt>
<pdfrwt beam="1">  1        1 0.36245184E+00 0.32377087E+04</pdfrwt>
<pdfrwt beam="2">  1       -1 0.17113488E+00 0.32377087E+04</pdfrwt>
<totfact> 0.34289536E-01</totfact>
</mgrwt>
</event>
<event>
 6    1  0.8968082E-007  0.4835557E+04  0.7818608E-02  0.7854387E-01
         -2   -1    0    0    0  501 -0.00000000000E+00  0.00000000000E+00  0.19151451604E+04  0.19151451604E+04  0.00000000000E+00 0.  1.
          2   -1    0    0  501    0  0.00000000000E+00 -0.00000000000E+00 -0.30523288683E+04  0.30523288683E+04  0.00000000000E+00 0. -1.
         23    2    1    2    0    0 -0.14472544185E+04 -0.66186562623E+03 -0.24367618669E+04  0.29128414945E+04  0.11927161230E+03 0.  0.
         11    1    3    3    0    0 -0.29016935565E+03 -0.11159301021E+03 -0.40030433516E+03  0.50684792160E+03  0.00000000000E+00 0.  1.
        -11    1    3    3    0    0 -0.11570850629E+04 -0.55027261601E+03 -0.20364575317E+04  0.24059935729E+04  0.00000000000E+00 0. -1.
         22    1    1    2    0    0  0.14472544185E+04  0.66186562623E+03  0.12995781589E+04  0.20546325341E+04  0.00000000000E+00 0.  1.
<mgrwt>
<rscale>  0 0.48355570E+04</rscale>
<asrwt>0</asrwt>
<pdfrwt beam="1">  1        2 0.46958905E+00 0.48355570E+04</pdfrwt>
<pdfrwt beam="2">  1       -2 0.29463772E+00 0.48355570E+04</pdfrwt>
<totfact> 0.40775599E-02</totfact>
</mgrwt>
</event>
<event>
 6    1  0.8968082E-007  0.4806143E+03  0.7818608E-02  0.1018966E+00
         -2   -1    0    0    0  501 -0.00000000000E+00  0.00000000000E+00  0.58396191805E+02  0.58396191805E+02  0.00000000000E+00 0.  1.
          2   -1    0    0  501    0  0.00000000000E+00 -0.00000000000E+00 -0.98889193031E+03  0.98889193031E+03  0.00000000000E+00 0. -1.
         23    2    1    2    0    0 -0.20092275167E+03 -0.11324078595E+03 -0.43525744588E+03  0.50097832518E+03  0.91306135458E+02 0.  0.
         11    1    3    3    0    0 -0.39073622707E+02  0.14692621767E+02 -0.72437630774E+02  0.83605212027E+02  0.00000000000E+00 0. -1.
        -11    1    3    3    0    0 -0.16184912896E+03 -0.12793340771E+03 -0.36281981511E+03  0.41737311316E+03  0.00000000000E+00 0.  1.
         22    1    1    2    0    0  0.20092275167E+03  0.11324078595E+03 -0.49523829262E+03  0.54630979693E+03  0.00000000000E+00 0. -1.
<mgrwt>
<rscale>  0 0.48061429E+03</rscale>
<asrwt>0</asrwt>
<pdfrwt beam="1">  1        2 0.15213720E+00 0.48061429E+03</pdfrwt>
<pdfrwt beam="2">  1       -2 0.89840308E-02 0.48061429E+03</pdfrwt>
<totfact> 0.21017929E+03</totfact>
</mgrwt>
</event>
<event>
 6    1  0.8968082E-007  0.4116784E+04  0.7818608E-02  0.7981393E-01
         -1   -1    0    0    0  501 -0.00000000000E+00  0.00000000000E+00  0.16057435615E+04  0.16057435615E+04  0.00000000000E+00 0.  1.
          1   -1    0    0  501    0  0.00000000000E+00 -0.00000000000E+00 -0.26386392164E+04  0.26386392164E+04  0.00000000000E+00 0. -1.
         23    2    1    2    0    0 -0.14016952936E+04 -0.54863086622E+03  0.92929276952E+03  0.17713423545E+04  0.91231363963E+02 0.  0.
         11    1    3    3    0    0 -0.32730793317E+03 -0.16964526044E+03  0.23459727941E+03  0.43697354727E+03  0.00000000000E+00 0. -1.
        -11    1    3    3    0    0 -0.10743873604E+04 -0.37898560577E+03  0.69469549011E+03  0.13343688072E+04  0.00000000000E+00 0.  1.
         22    1    1    2    0    0  0.14016952936E+04  0.54863086622E+03 -0.19621884244E+04  0.24730404235E+04  0.00000000000E+00 0. -1.
<mgrwt>
<rscale>  0 0.41167841E+04</rscale>
<asrwt>0</asrwt>
<pdfrwt beam="1">  1        1 0.40594449E+00 0.41167841E+04</pdfrwt>
<pdfrwt beam="2">  1       -1 0.24703747E+00 0.41167841E+04</pdfrwt>
<totfact> 0.61263547E-02</totfact>
</mgrwt>
</event>
<event>
 6    1  0.8968082E-007  0.2939107E+04  0.7818608E-02  0.8261336E-01
          2   -1    0    0  501    0  0.00000000000E+00  0.00000000000E+00  0.22182782946E+04  0.22182782946E+04  0.00000000000E+00 0. -1.
         -2   -1    0    0    0  501 -0.00000000000E+00 -0.00000000000E+00 -0.97354193423E+03  0.97354193423E+03  0.00000000000E+00 0.  1.
         23    2    1    2    0    0  0.21964021828E+03  0.87735408325E+03  0.18788602170E+04  0.20872365613E+04  0.91917000928E+02 0.  0.
         11    1    3    3    0    0  0.88201456100E+02  0.42853236984E+03  0.10049216684E+04  0.10960324121E+04  0.00000000000E+00 0.  1.
        -11    1    3    3    0    0  0.13143876218E+03  0.44882171342E+03  0.87393854858E+03  0.99120414917E+03  0.00000000000E+00 0. -1.
         22    1    1    2    0    0 -0.21964021828E+03 -0.87735408325E+03 -0.63412385664E+03  0.11045836675E+04  0.00000000000E+00 0.  1.
<mgrwt>
<rscale>  0 0.29391066E+04</rscale>
<asrwt>0</asrwt>
<pdfrwt beam="1">  1        2 0.34127358E+00 0.29391066E+04</pdfrwt>
<pdfrwt beam="2">  1       -2 0.14977568E+00 0.29391066E+04</pdfrwt>
<totfact> 0.13049707E+00</totfact>
</mgrwt>
</event>
<event>
 6    1  0.8968082E-007  0.2210764E+04  0.7818608E-02  0.8513961E-01
         -1   -1    0    0    0  501 -0.00000000000E+00  0.00000000000E+00  0.39597293095E+03  0.39597293095E+03  0.00000000000E+00 0.  1.
          1   -1    0    0  501    0  0.00000000000E+00 -0.00000000000E+00 -0.30857387388E+04  0.30857387388E+04  0.00000000000E+00 0. -1.
         23    2    1    2    0    0  0.72472797897E+03 -0.91932626951E+02 -0.44946565938E+02  0.73785469939E+03  0.93419014185E+02 0.  0.
         13    1    3    3    0    0  0.19029680062E+03 -0.92604034707E+01  0.26543312269E+02  0.19236209301E+03  0.00000000000E+00 0.  1.
        -13    1    3    3    0    0  0.53443117835E+03 -0.82672223480E+02 -0.71489878207E+02  0.54549260638E+03  0.00000000000E+00 0. -1.
         22    1    1    2    0    0 -0.72472797897E+03  0.91932626951E+02 -0.26448192420E+04  0.27438569704E+04  0.00000000000E+00 0. -1.
<mgrwt>
<rscale>  0 0.22107637E+04</rscale>
<asrwt>0</asrwt>
<pdfrwt beam="1">  1        1 0.47472902E+00 0.22107637E+04</pdfrwt>
<pdfrwt beam="2">  1       -1 0.60918914E-01 0.22107637E+04</pdfrwt>
<totfact> 0.12884899E+00</totfact>
</mgrwt>
</event>
<event>
 6    1  0.8968082E-007  0.2677162E+04  0.7818608E-02  0.8342453E-01
         -2   -1    0    0    0  501 -0.00000000000E+00  0.00000000000E+00  0.63554182597E+03  0.63554182597E+03  0.00000000000E+00 0.  1.
          2   -1    0    0  501    0  0.00000000000E+00 -0.00000000000E+00 -0.28193261243E+04  0.28193261243E+04  0.00000000000E+00 0. -1.
         23    2    1    2    0    0  0.63449530089E+03 -0.82025600261E+03 -0.21824548803E+04  0.24178501278E+04  0.86520167319E+02 0.  0.
         13    1    3    3    0    0  0.49866504785E+03 -0.62125239827E+03 -0.15940579679E+04  0.17820331583E+04  0.00000000000E+00 0.  1.
        -13    1    3    3    0    0  0.13583025304E+03 -0.19900360434E+03 -0.58839691242E+03  0.63581696952E+03  0.00000000000E+00 0. -1.
         22    1    1    2    0    0 -0.63449530089E+03  0.82025600261E+03 -0.13294180009E+01  0.10370178224E+04  0.00000000000E+00 0.  1.
<mgrwt>
<rscale>  0 0.26771624E+04</rscale>
<asrwt>0</asrwt>
<pdfrwt beam="1">  1        2 0.43374248E+00 0.26771624E+04</pdfrwt>
<pdfrwt beam="2">  1       -2 0.97775666E-01 0.26771624E+04</pdfrwt>
<totfact> 0.17228069E+00</totfact>
</mgrwt>
</event>
<event>
 6    1  0.8968082E-007  0.1645801E+04  0.7818608E-02  0.8792894E-01
          2   -1    0    0  501    0  0.00000000000E+00  0.00000000000E+00  0.13766417169E+04  0.13766417169E+04  0.00000000000E+00 0. -1.
         -2   -1    0    0    0  501 -0.00000000000E+00 -0.00000000000E+00 -0.49189670331E+03  0.49189670331E+03  0.00000000000E+00 0.  1.
         23    2    1    2    0    0 -0.57425761046E+03 -0.46030440048E+03  0.85510112507E+03  0.11319715839E+04  0.92248514467E+02 0.  0.
         11    1    3    3    0    0 -0.32312374827E+03 -0.30832084698E+03  0.55155811389E+03  0.70970913364E+03  0.00000000000E+00 0.  1.
        -11    1    3    3    0    0 -0.25113386219E+03 -0.15198355351E+03  0.30354301118E+03  0.42226245027E+03  0.00000000000E+00 0. -1.
         22    1    1    2    0    0  0.57425761046E+03  0.46030440048E+03  0.29643888563E+02  0.73656683634E+03  0.00000000000E+00 0.  1.
<mgrwt>
<rscale>  0 0.16458014E+04</rscale>
<asrwt>0</asrwt>
<pdfrwt beam="1">  1        2 0.21179103E+00 0.16458014E+04</pdfrwt>
<pdfrwt beam="2">  1       -2 0.75676416E-01 0.16458014E+04</pdfrwt>
<totfact> 0.22323224E+01</totfact>
</mgrwt>
</event>
<event>
 6    1  0.8968082E-007  0.1744678E+04  0.7818608E-02  0.8736285E-01
         -2   -1    0    0    0  501 -0.00000000000E+00  0.00000000000E+00  0.56210875463E+03  0.56210875463E+03  0.00000000000E+00 0.  1.
          2   -1    0    0  501    0  0.00000000000E+00 -0.00000000000E+00 -0.13537871126E+04  0.13537871126E+04  0.00000000000E+00 0. -1.
         23    2    1    2    0    0  0.43930226809E+03 -0.36154526762E+03 -0.11196147003E+04  0.12592043811E+04  0.91417356689E+02 0.  0.
         13    1    3    3    0    0  0.26198575877E+03 -0.15991548143E+03 -0.56393282098E+03  0.64205118610E+03  0.00000000000E+00 0. -1.
        -13    1    3    3    0    0  0.17731650932E+03 -0.20162978619E+03 -0.55568187931E+03  0.61715319504E+03  0.00000000000E+00 0.  1.
         22    1    1    2    0    0 -0.43930226809E+03  0.36154526762E+03  0.32793634232E+03  0.65669148609E+03  0.00000000000E+00 0.  1.
<mgrwt>
<rscale>  0 0.17446783E+04</rscale>
<asrwt>0</asrwt>
<pdfrwt beam="1">  1        2 0.20827494E+00 0.17446783E+04</pdfrwt>
<pdfrwt beam="2">  1       -2 0.86478271E-01 0.17446783E+04</pdfrwt>
<totfact> 0.16899396E+01</totfact>
</mgrwt>
</event>
<event>
 6    1  0.8968082E-007  0.5957593E+04  0.7818608E-02  0.7695682E-01
         -2   -1    0    0    0  501 -0.00000000000E+00  0.00000000000E+00  0.26199840667E+04  0.26199840667E+04  0.00000000000E+00 0.  1.
          2   -1    0    0  501    0  0.00000000000E+00 -0.00000000000E+00 -0.33867489692E+04  0.33867489692E+04  0.00000000000E+00 0. -1.
         23    2    1    2    0    0  0.94104821910E+03 -0.28244538608E+04 -0.46415868004E+03  0.30142955865E+04  0.86158226764E+02 0.  0.
         13    1    3    3    0    0  0.53154478248E+03 -0.15107748960E+04 -0.28367088731E+03  0.16264838808E+04  0.00000000000E+00 0.  1.
        -13    1    3    3    0    0  0.40950343662E+03 -0.13136789648E+04 -0.18048779273E+03  0.13878117057E+04  0.00000000000E+00 0. -1.
         22    1    1    2    0    0 -0.94104821910E+03  0.28244538608E+04 -0.30260622241E+03  0.29924374494E+04  0.00000000000E+00 0. -1.
<mgrwt>
<rscale>  0 0.59575929E+04</rscale>
<asrwt>0</asrwt>
<pdfrwt beam="1">  1        2 0.52103830E+00 0.59575929E+04</pdfrwt>
<pdfrwt beam="2">  1       -2 0.40307448E+00 0.59575929E+04</pdfrwt>
<totfact> 0.46573392E-03</totfact>
</mgrwt>
</event>
<event>
 6    1  0.8968082E-007  0.2215985E+04  0.7818608E-02  0.8511804E-01
          3   -1    0    0  501    0  0.00000000000E+00  0.00000000000E+00  0.76731976837E+03  0.76731976837E+03  0.00000000000E+00 0. -1.
         -3   -1    0    0    0  501 -0.00000000000E+00 -0.00000000000E+00 -0.15999157649E+04  0.15999157649E+04  0.00000000000E+00 0.  1.
         23    2    1    2    0    0 -0.61146418815E+03 -0.57391411885E+03 -0.11874197274E+04  0.14566501450E+04  0.92726300220E+02 0.  0.
         13    1    3    3    0    0 -0.20978092930E+03 -0.22913101430E+03 -0.50628008575E+03  0.59399375859E+03  0.00000000000E+00 0.  1.
        -13    1    3    3    0    0 -0.40168325885E+03 -0.34478310456E+03 -0.68113964168E+03  0.86265638645E+03  0.00000000000E+00 0. -1.
         22    1    1    2    0    0  0.61146418815E+03  0.57391411885E+03  0.35482373091E+03  0.91058538821E+03  0.00000000000E+00 0.  1.
<mgrwt>
<rscale>  0 0.22159847E+04</rscale>
<asrwt>0</asrwt>
<pdfrwt beam="1">  1        3 0.11804920E+00 0.22159847E+04</pdfrwt>
<pdfrwt beam="2">  1       -3 0.24614089E+00 0.22159847E+04</pdfrwt>
<totfact> 0.10814603E-01</totfact>
</mgrwt>
</event>
<event>
 6    1  0.8968082E-007  0.2270686E+04  0.7818608E-02  0.8489570E-01
         -2   -1    0    0    0  501 -0.00000000000E+00  0.00000000000E+00  0.58833906567E+03  0.58833906567E+03  0.00000000000E+00 0.  1.
          2   -1    0    0  501    0  0.00000000000E+00 -0.00000000000E+00 -0.21909202757E+04  0.21909202757E+04  0.00000000000E+00 0. -1.
         23    2    1    2    0    0 -0.45201234539E+03 -0.86441119930E+03 -0.95977201224E+02  0.98443970664E+03  0.91586194388E+02 0.  0.
         13    1    3    3    0    0 -0.30353906554E+03 -0.62710715740E+03 -0.32817202055E+02  0.69747854441E+03  0.00000000000E+00 0.  1.
        -13    1    3    3    0    0 -0.14847327986E+03 -0.23730404190E+03 -0.63159999170E+02  0.28696116223E+03  0.00000000000E+00 0. -1.
         22    1    1    2    0    0  0.45201234539E+03  0.86441119930E+03 -0.15066040088E+04  0.17948196347E+04  0.00000000000E+00 0. -1.
<mgrwt>
<rscale>  0 0.22706862E+04</rscale>
<asrwt>0</asrwt>
<pdfrwt beam="1">  1        2 0.33706466E+00 0.22706862E+04</pdfrwt>
<pdfrwt beam="2">  1       -2 0.90513701E-01 0.22706862E+04</pdfrwt>
<totfact> 0.49518624E+00</totfact>
</mgrwt>
</event>
<event>
 6    1  0.8968082E-007  0.3724656E+04  0.7818608E-02  0.8062520E-01
         -1   -1    0    0    0  501 -0.00000000000E+00  0.00000000000E+00  0.24315648687E+04  0.24315648687E+04  0.00000000000E+00 0.  1.
          1   -1    0    0  501    0  0.00000000000E+00 -0.00000000000E+00 -0.14263512221E+04  0.14263512221E+04  0.00000000000E+00 0. -1.
         23    2    1    2    0    0 -0.17138205768E+04 -0.39007517074E+03 -0.13145303190E+03  0.17647484563E+04  0.87849907393E+02 0.  0.
         11    1    3    3    0    0 -0.27732717606E+03 -0.35830286627E+02 -0.38947545942E+02  0.28233151322E+03  0.00000000000E+00 0. -1.
        -11    1    3    3    0    0 -0.14364934007E+04 -0.35424488411E+03 -0.92505485956E+02  0.14824169431E+04  0.00000000000E+00 0.  1.
         22    1    1    2    0    0  0.17138205768E+04  0.39007517074E+03  0.11366666784E+04  0.20931676345E+04  0.00000000000E+00 0.  1.
<mgrwt>
<rscale>  0 0.37246560E+04</rscale>
<asrwt>0</asrwt>
<pdfrwt beam="1">  1        1 0.21943865E+00 0.37246560E+04</pdfrwt>
<pdfrwt beam="2">  1       -1 0.37408690E+00 0.37246560E+04</pdfrwt>
<totfact> 0.63187095E-02</totfact>
</mgrwt>
</event>
<event>
 6    1  0.8968082E-007  0.1604765E+04  0.7818608E-02  0.8817626E-01
          2   -1    0    0  501    0  0.00000000000E+00  0.00000000000E+00  0.93956101785E+03  0.93956101785E+03  0.00000000000E+00 0. -1.
         -2   -1    0    0    0  501 -0.00000000000E+00 -0.00000000000E+00 -0.68523202744E+03  0.68523202744E+03  0.00000000000E+00 0.  1.
         23    2    1    2    0    0 -0.12754053176E+03  0.69283572698E+03  0.51098541155E+03  0.87501944591E+03  0.90912089843E+02 0.  0.
         11    1    3    3    0    0 -0.55552033471E+01  0.25461424236E+02  0.44893166597E+02  0.51908966619E+02  0.00000000000E+00 0.  1.
        -11    1    3    3    0    0 -0.12198532841E+03  0.66737430274E+03  0.46609224496E+03  0.82311047929E+03  0.00000000000E+00 0. -1.
         22    1    1    2    0    0  0.12754053176E+03 -0.69283572698E+03 -0.25665642114E+03  0.74977359938E+03  0.00000000000E+00 0.  1.
<mgrwt>
<rscale>  0 0.16047645E+04</rscale>
<asrwt>0</asrwt>
<pdfrwt beam="1">  1        2 0.14454785E+00 0.16047645E+04</pdfrwt>
<pdfrwt beam="2">  1       -2 0.10542031E+00 0.16047645E+04</pdfrwt>
<totfact> 0.19254686E+01</totfact>
</mgrwt>
</event>
<event>
 6    1  0.8968082E-007  0.2409623E+04  0.7818608E-02  0.8435910E-01
          2   -1    0    0  501    0  0.00000000000E+00  0.00000000000E+00  0.10685629082E+04  0.10685629082E+04  0.00000000000E+00 0. -1.
         -2   -1    0    0    0  501 -0.00000000000E+00 -0.00000000000E+00 -0.13584326429E+04  0.13584326429E+04  0.00000000000E+00 0.  1.
         23    2    1    2    0    0  0.20015425843E+03  0.61645999453E+03 -0.11659237375E+04  0.13372454569E+04  0.93608751039E+02 0.  0.
         13    1    3    3    0    0  0.33410991297E+02  0.24849258758E+03 -0.43259100346E+03  0.49999983670E+03  0.00000000000E+00 0.  1.
        -13    1    3    3    0    0  0.16674326714E+03  0.36796740695E+03 -0.73333273400E+03  0.83724562016E+03  0.00000000000E+00 0. -1.
         22    1    1    2    0    0 -0.20015425843E+03 -0.61645999453E+03  0.87605400281E+03  0.10897500942E+04  0.00000000000E+00 0. -1.
<mgrwt>
<rscale>  0 0.24096230E+04</rscale>
<asrwt>0</asrwt>
<pdfrwt beam="1">  1        2 0.16439429E+00 0.24096230E+04</pdfrwt>
<pdfrwt beam="2">  1       -2 0.20898964E+00 0.24096230E+04</pdfrwt>
<totfact> 0.23797685E+00</totfact>
</mgrwt>
</event>
<event>
 6    1  0.8968082E-007  0.2501902E+04  0.7818608E-02  0.8402308E-01
         -2   -1    0    0    0  501 -0.00000000000E+00  0.00000000000E+00  0.71500913836E+03  0.71500913836E+03  0.00000000000E+00 0.  1.
          2   -1    0    0  501    0  0.00000000000E+00 -0.00000000000E+00 -0.21886137015E+04  0.21886137015E+04  0.00000000000E+00 0. -1.
         23    2    1    2    0    0 -0.69709850922E+03  0.66155398641E+02 -0.19380513702E+04  0.20633647218E+04  0.10539446702E+03 0.  0.
         11    1    3    3    0    0 -0.78284561131E+02  0.11958728455E+02 -0.33336154452E+03  0.34263888142E+03  0.00000000000E+00 0. -1.
        -11    1    3    3    0    0 -0.61881394809E+03  0.54196670186E+02 -0.16046898256E+04  0.17207258404E+04  0.00000000000E+00 0.  1.
         22    1    1    2    0    0  0.69709850922E+03 -0.66155398641E+02  0.46444680701E+03  0.84025811801E+03  0.00000000000E+00 0.  1.
<mgrwt>
<rscale>  0 0.25019023E+04</rscale>
<asrwt>0</asrwt>
<pdfrwt beam="1">  1        2 0.33670981E+00 0.25019023E+04</pdfrwt>
<pdfrwt beam="2">  1       -2 0.11000140E+00 0.25019023E+04</pdfrwt>
<totfact> 0.30699475E+00</totfact>
</mgrwt>
</event>
<event>
 6    1  0.8968082E-007  0.2018298E+04  0.7818608E-02  0.8598113E-01
         -2   -1    0    0    0  501 -0.00000000000E+00  0.00000000000E+00  0.33625153082E+03  0.33625153082E+03  0.00000000000E+00 0.  1.
          2   -1    0    0  501    0  0.00000000000E+00 -0.00000000000E+00 -0.30286320560E+04  0.30286320560E+04  0.00000000000E+00 0. -1.
         23    2    1    2    0    0 -0.23642070273E+03 -0.91613019324E+01 -0.29809788423E+04  0.29916977527E+04  0.89676683184E+02 0.  0.
         13    1    3    3    0    0 -0.13288090757E+03  0.29607359755E+02 -0.19680358305E+04  0.19727389491E+04  0.00000000000E+00 0. -1.
        -13    1    3    3    0    0 -0.10353979515E+03 -0.38768661688E+02 -0.10129430118E+04  0.10189588036E+04  0.00000000000E+00 0.  1.
         22    1    1    2    0    0  0.23642070273E+03  0.91613019324E+01  0.28859831710E+03  0.37318583409E+03  0.00000000000E+00 0.  1.
<mgrwt>
<rscale>  0 0.20182985E+04</rscale>
<asrwt>0</asrwt>
<pdfrwt beam="1">  1        2 0.46594338E+00 0.20182985E+04</pdfrwt>
<pdfrwt beam="2">  1       -2 0.51731006E-01 0.20182985E+04</pdfrwt>
<totfact> 0.54822534E+00</totfact>
</mgrwt>
</event>
<event>
 6    1  0.8968082E-007  0.2694625E+04  0.7818608E-02  0.8336751E-01
          1   -1    0    0  501    0  0.00000000000E+00  0.00000000000E+00  0.29362901634E+04  0.29362901634E+04  0.00000000000E+00 0. -1.
         -1   -1    0    0    0  501 -0.00000000000E+00 -0.00000000000E+00 -0.61821249205E+03  0.61821249205E+03  0.00000000000E+00 0.  1.
         23    2    1    2    0    0 -0.31671945997E+03  0.83351970450E+02  0.28818505606E+04  0.29025067676E+04  0.11056271851E+03 0.  0.
         13    1    3    3    0    0 -0.32400241257E+03  0.84297251157E+02  0.28582423167E+04  0.28777826066E+04  0.00000000000E+00 0.  1.
        -13    1    3    3    0    0  0.72829526040E+01 -0.94528070757E+00  0.23608243911E+02  0.24724160953E+02  0.00000000000E+00 0. -1.
         22    1    1    2    0    0  0.31671945997E+03 -0.83351970450E+02 -0.56377288921E+03  0.65199588795E+03  0.00000000000E+00 0.  1.
<mgrwt>
<rscale>  0 0.26946252E+04</rscale>
<asrwt>0</asrwt>
<pdfrwt beam="1">  1        1 0.45173694E+00 0.26946252E+04</pdfrwt>
<pdfrwt beam="2">  1       -1 0.95109616E-01 0.26946252E+04</pdfrwt>
<totfact> 0.62017128E-01</totfact>
</mgrwt>
</event>
<event>
 6    1  0.1152755E-006  0.4738730E+04  0.7818608E-02  0.7870125E-01
          1   -1    0    0  501    0  0.00000000000E+00  0.00000000000E+00  0.25079213742E+04  0.25079213742E+04  0.00000000000E+00 0. -1.
         -1   -1    0    0    0  501 -0.00000000000E+00 -0.00000000000E+00 -0.22384638103E+04  0.22384638103E+04  0.00000000000E+00 0.  1.
         23    2    1    2    0    0 -0.11042078900E+04  0.38147423597E+03 -0.19289272103E+04  0.22568685101E+04  0.88868623373E+02 0.  0.
         13    1    3    3    0    0 -0.56621128727E+03  0.23963600842E+03 -0.10422774638E+04  0.12101086521E+04  0.00000000000E+00 0.  1.
        -13    1    3    3    0    0 -0.53799660272E+03  0.14183822755E+03 -0.88664974647E+03  0.10467598580E+04  0.00000000000E+00 0. -1.
         22    1    1    2    0    0  0.11042078900E+04 -0.38147423597E+03  0.21983847741E+04  0.24895166744E+04  0.00000000000E+00 0. -1.
<mgrwt>
<rscale>  0 0.47387303E+04</rscale>
<asrwt>0</asrwt>
<pdfrwt beam="1">  1        1 0.38583405E+00 0.47387303E+04</pdfrwt>
<pdfrwt beam="2">  1       -1 0.34437905E+00 0.47387303E+04</pdfrwt>
<totfact> 0.16691491E-02</totfact>
</mgrwt>
</event>
<event>
 6    1  0.8968082E-007  0.1242707E+04  0.7818608E-02  0.9076275E-01
         -1   -1    0    0    0  501 -0.00000000000E+00  0.00000000000E+00  0.13926527650E+03  0.13926527650E+03  0.00000000000E+00 0.  1.
          1   -1    0    0  501    0  0.00000000000E+00 -0.00000000000E+00 -0.27722665929E+04  0.27722665929E+04  0.00000000000E+00 0. -1.
         23    2    1    2    0    0  0.59553275624E+03 -0.16624387140E+03 -0.13275758662E+04  0.14670832222E+04  0.87058667930E+02 0.  0.
         13    1    3    3    0    0  0.21269050208E+03 -0.21425372206E+02 -0.50154514454E+03  0.54520072291E+03  0.00000000000E+00 0.  1.
        -13    1    3    3    0    0  0.38284225416E+03 -0.14481849919E+03 -0.82603072170E+03  0.92188249927E+03  0.00000000000E+00 0. -1.
         22    1    1    2    0    0 -0.59553275624E+03  0.16624387140E+03 -0.13054254502E+04  0.14444486473E+04  0.00000000000E+00 0. -1.
<mgrwt>
<rscale>  0 0.12427075E+04</rscale>
<asrwt>0</asrwt>
<pdfrwt beam="1">  1        1 0.42650255E+00 0.12427075E+04</pdfrwt>
<pdfrwt beam="2">  1       -1 0.21425428E-01 0.12427075E+04</pdfrwt>
<totfact> 0.15812839E+01</totfact>
</mgrwt>
</event>
<event>
 6    1  0.8968082E-007  0.9048532E+03  0.7818608E-02  0.9419535E-01
         -2   -1    0    0    0  501 -0.00000000000E+00  0.00000000000E+00  0.35127686057E+03  0.35127686057E+03  0.00000000000E+00 0.  1.
          2   -1    0    0  501    0  0.00000000000E+00 -0.00000000000E+00 -0.58270222103E+03  0.58270222103E+03  0.00000000000E+00 0. -1.
         23    2    1    2    0    0 -0.13513079722E+03  0.42683577400E+03 -0.12586296291E+03  0.47398720113E+03  0.91505579465E+02 0.  0.
         13    1    3    3    0    0 -0.12750925157E+03  0.37874234851E+03 -0.13973543101E+03  0.42335607528E+03  0.00000000000E+00 0. -1.
        -13    1    3    3    0    0 -0.76215456504E+01  0.48093425492E+02  0.13872468105E+02  0.50631125851E+02  0.00000000000E+00 0.  1.
         22    1    1    2    0    0  0.13513079722E+03 -0.42683577400E+03 -0.10556239755E+03  0.45999188048E+03  0.00000000000E+00 0. -1.
<mgrwt>
<rscale>  0 0.90485315E+03</rscale>
<asrwt>0</asrwt>
<pdfrwt beam="1">  1        2 0.89646494E-01 0.90485315E+03</pdfrwt>
<pdfrwt beam="2">  1       -2 0.54042595E-01 0.90485315E+03</pdfrwt>
<totfact> 0.16623627E+02</totfact>
</mgrwt>
</event>
<event>
 6    1  0.8968082E-007  0.1990652E+04  0.7818608E-02  0.8611004E-01
         -2   -1    0    0    0  501 -0.00000000000E+00  0.00000000000E+00  0.89967613954E+03  0.89967613954E+03  0.00000000000E+00 0.  1.
          2   -1    0    0  501    0  0.00000000000E+00 -0.00000000000E+00 -0.11011445818E+04  0.11011445818E+04  0.00000000000E+00 0. -1.
         23    2    1    2    0    0  0.80508303268E+03 -0.56628615085E+03 -0.23526415108E+03  0.10159446661E+04  0.89194448664E+02 0.  0.
         11    1    3    3    0    0  0.99402395704E+02 -0.52854137238E+02 -0.19431036405E+01  0.11259738783E+03  0.00000000000E+00 0.  1.
        -11    1    3    3    0    0  0.70568063697E+03 -0.51343201361E+03 -0.23332104744E+03  0.90334727828E+03  0.00000000000E+00 0. -1.
         22    1    1    2    0    0 -0.80508303268E+03  0.56628615085E+03  0.33795708866E+02  0.98487605519E+03  0.00000000000E+00 0. -1.
<mgrwt>
<rscale>  0 0.19906517E+04</rscale>
<asrwt>0</asrwt>
<pdfrwt beam="1">  1        2 0.16940686E+00 0.19906517E+04</pdfrwt>
<pdfrwt beam="2">  1       -2 0.13841171E+00 0.19906517E+04</pdfrwt>
<totfact> 0.74820791E+00</totfact>
</mgrwt>
</event>
<event>
 6    1  0.8968082E-007  0.1176793E+04  0.7818608E-02  0.9133416E-01
          1   -1    0    0  501    0  0.00000000000E+00  0.00000000000E+00  0.16483711643E+04  0.16483711643E+04  0.00000000000E+00 0. -1.
         -1   -1    0    0    0  501 -0.00000000000E+00 -0.00000000000E+00 -0.21003171685E+03  0.21003171685E+03  0.00000000000E+00 0.  1.
         23    2    1    2    0    0 -0.34317661678E+03  0.26739215179E+03  0.13407371768E+04  0.14125386010E+04  0.91762567378E+02 0.  0.
         11    1    3    3    0    0 -0.22245894068E+03  0.12133839102E+03  0.82811045886E+03  0.86601265435E+03  0.00000000000E+00 0.  1.
        -11    1    3    3    0    0 -0.12071767610E+03  0.14605376077E+03  0.51262671795E+03  0.54652594660E+03  0.00000000000E+00 0. -1.
         22    1    1    2    0    0  0.34317661678E+03 -0.26739215179E+03  0.97602270674E+02  0.44586428023E+03  0.00000000000E+00 0.  1.
<mgrwt>
<rscale>  0 0.11767926E+04</rscale>
<asrwt>0</asrwt>
<pdfrwt beam="1">  1        1 0.25359556E+00 0.11767926E+04</pdfrwt>
<pdfrwt beam="2">  1       -1 0.32312573E-01 0.11767926E+04</pdfrwt>
<totfact> 0.45872785E+01</totfact>
</mgrwt>
</event>
<event>
 6    1  0.8968082E-007  0.1930250E+04  0.7818608E-02  0.8639944E-01
          1   -1    0    0  501    0  0.00000000000E+00  0.00000000000E+00  0.12710316844E+04  0.12710316844E+04  0.00000000000E+00 0. -1.
         -1   -1    0    0    0  501 -0.00000000000E+00 -0.00000000000E+00 -0.73284252547E+03  0.73284252547E+03  0.00000000000E+00 0.  1.
         23    2    1    2    0    0 -0.45979538057E+03 -0.70178428737E+03  0.76054781127E+03  0.11359131806E+04  0.89178488154E+02 0.  0.
         13    1    3    3    0    0 -0.22238859836E+03 -0.38298015952E+03  0.45124876441E+03  0.63226255515E+03  0.00000000000E+00 0.  1.
        -13    1    3    3    0    0 -0.23740678221E+03 -0.31880412785E+03  0.30929904686E+03  0.50365062549E+03  0.00000000000E+00 0. -1.
         22    1    1    2    0    0  0.45979538057E+03  0.70178428737E+03 -0.22235865234E+03  0.86796102923E+03  0.00000000000E+00 0.  1.
<mgrwt>
<rscale>  0 0.19302498E+04</rscale>
<asrwt>0</asrwt>
<pdfrwt beam="1">  1        1 0.19554334E+00 0.19302498E+04</pdfrwt>
<pdfrwt beam="2">  1       -1 0.11274500E+00 0.19302498E+04</pdfrwt>
<totfact> 0.63741139E+00</totfact>
</mgrwt>
</event>
<event>
 6    1  0.8968082E-007  0.1988559E+04  0.7818608E-02  0.8611988E-01
         -2   -1    0    0    0  501 -0.00000000000E+00  0.00000000000E+00  0.14659703922E+04  0.14659703922E+04  0.00000000000E+00 0.  1.
          2   -1    0    0  501    0  0.00000000000E+00 -0.00000000000E+00 -0.67436028946E+03  0.67436028946E+03  0.00000000000E+00 0. -1.
         23    2    1    2    0    0  0.32568499218E+03 -0.72966624927E+03  0.10296694187E+04  0.13065706518E+04  0.91783477458E+02 0.  0.
         11    1    3    3    0    0  0.13842859155E+03 -0.39346276696E+03  0.48538214065E+03  0.63997753587E+03  0.00000000000E+00 0. -1.
        -11    1    3    3    0    0  0.18725640063E+03 -0.33620348230E+03  0.54428727809E+03  0.66659311591E+03  0.00000000000E+00 0.  1.
         22    1    1    2    0    0 -0.32568499218E+03  0.72966624927E+03 -0.23805931603E+03  0.83376002986E+03  0.00000000000E+00 0. -1.
<mgrwt>
<rscale>  0 0.19885595E+04</rscale>
<asrwt>0</asrwt>
<pdfrwt beam="1">  1        2 0.10374774E+00 0.19885595E+04</pdfrwt>
<pdfrwt beam="2">  1       -2 0.22553391E+00 0.19885595E+04</pdfrwt>
<totfact> 0.36402740E+00</totfact>
</mgrwt>
</event>
<event>
 6    1  0.8968082E-007  0.2665299E+04  0.7818608E-02  0.8346353E-01
          2   -1    0    0  501    0  0.00000000000E+00  0.00000000000E+00  0.90098471460E+03  0.90098471460E+03  0.00000000000E+00 0. -1.
         -2   -1    0    0    0  501 -0.00000000000E+00 -0.00000000000E+00 -0.19711258142E+04  0.19711258142E+04  0.00000000000E+00 0.  1.
         23    2    1    2    0    0 -0.42844749467E+03 -0.92765567354E+03 -0.14549901115E+04  0.17802217679E+04  0.89894459125E+02 0.  0.
         13    1    3    3    0    0 -0.36868543885E+03 -0.73378092794E+03 -0.11245240535E+04  0.13924502684E+04  0.00000000000E+00 0.  1.
        -13    1    3    3    0    0 -0.59762055822E+02 -0.19387474560E+03 -0.33046605800E+03  0.38777149945E+03  0.00000000000E+00 0. -1.
         22    1    1    2    0    0  0.42844749467E+03  0.92765567354E+03  0.38484901192E+03  0.10918887610E+04  0.00000000000E+00 0.  1.
<mgrwt>
<rscale>  0 0.26652987E+04</rscale>
<asrwt>0</asrwt>
<pdfrwt beam="1">  1        2 0.13861303E+00 0.26652987E+04</pdfrwt>
<pdfrwt beam="2">  1       -2 0.30325013E+00 0.26652987E+04</pdfrwt>
<totfact> 0.78202250E-01</totfact>
</mgrwt>
</event>
<event>
 6    1  0.9174245E-007  0.2546814E+04  0.7818608E-02  0.8386495E-01
          2   -1    0    0  501    0  0.00000000000E+00  0.00000000000E+00  0.18087415914E+04  0.18087415914E+04  0.00000000000E+00 0. -1.
         -2   -1    0    0    0  501 -0.00000000000E+00 -0.00000000000E+00 -0.89651570149E+03  0.89651570149E+03  0.00000000000E+00 0.  1.
         23    2    1    2    0    0  0.11526474949E+03  0.40081178154E+03 -0.81945522602E+03  0.92406231930E+03  0.91914393935E+02 0.  0.
         13    1    3    3    0    0  0.43441622473E+02  0.88706573370E+02 -0.27746634461E+03  0.29452266995E+03  0.00000000000E+00 0.  1.
        -13    1    3    3    0    0  0.71823127018E+02  0.31210520817E+03 -0.54198888141E+03  0.62953964936E+03  0.00000000000E+00 0. -1.
         22    1    1    2    0    0 -0.11526474949E+03 -0.40081178154E+03  0.17316811160E+04  0.17811949736E+04  0.00000000000E+00 0. -1.
<mgrwt>
<rscale>  0 0.25468139E+04</rscale>
<asrwt>0</asrwt>
<pdfrwt beam="1">  1        2 0.27826794E+00 0.25468139E+04</pdfrwt>
<pdfrwt beam="2">  1       -2 0.13792549E+00 0.25468139E+04</pdfrwt>
<totfact> 0.28307291E+00</totfact>
</mgrwt>
</event>
<event>
 6    1  0.8968082E-007  0.2705466E+04  0.7818608E-02  0.8333234E-01
          2   -1    0    0  501    0  0.00000000000E+00  0.00000000000E+00  0.31507628233E+04  0.31507628233E+04  0.00000000000E+00 0. -1.
         -2   -1    0    0    0  501 -0.00000000000E+00 -0.00000000000E+00 -0.58077578269E+03  0.58077578269E+03  0.00000000000E+00 0.  1.
         23    2    1    2    0    0 -0.11391795364E+04 -0.16339294058E+02  0.22884137764E+04  0.25579626639E+04  0.91314782108E+02 0.  0.
         13    1    3    3    0    0 -0.47140616237E+03 -0.36102670685E+02  0.10253900068E+04  0.11291376527E+04  0.00000000000E+00 0. -1.
        -13    1    3    3    0    0 -0.66777337403E+03  0.19763376627E+02  0.12630237696E+04  0.14288250112E+04  0.00000000000E+00 0.  1.
         22    1    1    2    0    0  0.11391795364E+04  0.16339294058E+02  0.28157326426E+03  0.11735759421E+04  0.00000000000E+00 0.  1.
<mgrwt>
<rscale>  0 0.27054661E+04</rscale>
<asrwt>0</asrwt>
<pdfrwt beam="1">  1        2 0.48473273E+00 0.27054661E+04</pdfrwt>
<pdfrwt beam="2">  1       -2 0.89350122E-01 0.27054661E+04</pdfrwt>
<totfact> 0.13151374E+00</totfact>
</mgrwt>
</event>
<event>
 6    1  0.8968082E-007  0.8193783E+03  0.7818608E-02  0.9532384E-01
          1   -1    0    0  501    0  0.00000000000E+00  0.00000000000E+00  0.71291196127E+03  0.71291196127E+03  0.00000000000E+00 0. -1.
         -1   -1    0    0    0  501 -0.00000000000E+00 -0.00000000000E+00 -0.23543609571E+03  0.23543609571E+03  0.00000000000E+00 0.  1.
         23    2    1    2    0    0 -0.15502716135E+03  0.10053558177E+03 -0.17472528622E+03  0.27047847782E+03  0.92134995316E+02 0.  0.
         13    1    3    3    0    0 -0.70590787292E+02 -0.53709611978E+00 -0.36180519843E+02  0.79324509068E+02  0.00000000000E+00 0.  1.
        -13    1    3    3    0    0 -0.84436374057E+02  0.10107267789E+03 -0.13854476638E+03  0.19115396875E+03  0.00000000000E+00 0. -1.
         22    1    1    2    0    0  0.15502716135E+03 -0.10053558177E+03  0.65220115178E+03  0.67786957915E+03  0.00000000000E+00 0. -1.
<mgrwt>
<rscale>  0 0.81937832E+03</rscale>
<asrwt>0</asrwt>
<pdfrwt beam="1">  1        1 0.10967876E+00 0.81937832E+03</pdfrwt>
<pdfrwt beam="2">  1       -1 0.36220938E-01 0.81937832E+03</pdfrwt>
<totfact> 0.19513804E+02</totfact>
</mgrwt>
</event>
<event>
 6    1  0.8968082E-007  0.9600011E+03  0.7818608E-02  0.9353537E-01
          1   -1    0    0  501    0  0.00000000000E+00  0.00000000000E+00  0.27169105072E+03  0.27169105072E+03  0.00000000000E+00 0. -1.
         -1   -1    0    0    0  501 -0.00000000000E+00 -0.00000000000E+00 -0.84802401991E+03  0.84802401991E+03  0.00000000000E+00 0.  1.
         23    2    1    2    0    0  0.17505671735E+03  0.33233705715E+03  0.50271239730E+02  0.38914980422E+03  0.88417185766E+02 0.  0.
         11    1    3    3    0    0  0.11402444970E+03  0.21874786479E+03 -0.98422816889E+01  0.24687866248E+03  0.00000000000E+00 0.  1.
        -11    1    3    3    0    0  0.61032267653E+02  0.11358919236E+03  0.60113521418E+02  0.14227114175E+03  0.00000000000E+00 0. -1.
         22    1    1    2    0    0 -0.17505671735E+03 -0.33233705715E+03 -0.62660420892E+03  0.73056526641E+03  0.00000000000E+00 0.  1.
<mgrwt>
<rscale>  0 0.96000112E+03</rscale>
<asrwt>0</asrwt>
<pdfrwt beam="1">  1        1 0.41798624E-01 0.96000112E+03</pdfrwt>
<pdfrwt beam="2">  1       -1 0.13046523E+00 0.96000112E+03</pdfrwt>
<totfact> 0.50411500E+01</totfact>
</mgrwt>
</event>
<event>
 6    1  0.8968082E-007  0.4472655E+04  0.7818608E-02  0.7915442E-01
          2   -1    0    0  501    0  0.00000000000E+00  0.00000000000E+00  0.11918697002E+04  0.11918697002E+04  0.00000000000E+00 0. -1.
         -2   -1    0    0    0  501 -0.00000000000E+00 -0.00000000000E+00 -0.41960631766E+04  0.41960631766E+04  0.00000000000E+00 0.  1.
         23    2    1    2    0    0  0.10711308489E+04  0.10247561533E+04  0.51298755890E+03  0.15711267638E+04  0.88524591720E+02 0.  0.
         13    1    3    3    0    0  0.16424804804E+03  0.19575565937E+03  0.69076641038E+02  0.26470602902E+03  0.00000000000E+00 0.  1.
        -13    1    3    3    0    0  0.90688280084E+03  0.82900049388E+03  0.44391091786E+03  0.13064207348E+04  0.00000000000E+00 0. -1.
         22    1    1    2    0    0 -0.10711308489E+04 -0.10247561533E+04 -0.35171810353E+04  0.38168061130E+04  0.00000000000E+00 0.  1.
<mgrwt>
<rscale>  0 0.44726549E+04</rscale>
<asrwt>0</asrwt>
<pdfrwt beam="1">  1        2 0.18336457E+00 0.44726549E+04</pdfrwt>
<pdfrwt beam="2">  1       -2 0.64554819E+00 0.44726549E+04</pdfrwt>
<totfact> 0.50793603E-03</totfact>
</mgrwt>
</event>
<event>
 6    1  0.9337381E-007  0.3019979E+04  0.7818608E-02  0.8238049E-01
          2   -1    0    0  501    0  0.00000000000E+00  0.00000000000E+00  0.13823439512E+04  0.13823439512E+04  0.00000000000E+00 0. -1.
         -2   -1    0    0    0  501 -0.00000000000E+00 -0.00000000000E+00 -0.16494222259E+04  0.16494222259E+04  0.00000000000E+00 0.  1.
         23    2    1    2    0    0 -0.51596244575E+03 -0.44992576170E+02 -0.15563957900E+04  0.16423126038E+04  0.81124941052E+02 0.  0.
         11    1    3    3    0    0 -0.30211340136E+03  0.10187682166E+02 -0.95127223979E+03  0.99814586626E+03  0.00000000000E+00 0.  1.
        -11    1    3    3    0    0 -0.21384904439E+03 -0.55180258336E+02 -0.60512355020E+03  0.64416673750E+03  0.00000000000E+00 0. -1.
         22    1    1    2    0    0  0.51596244575E+03  0.44992576170E+02  0.12893175152E+04  0.13894535733E+04  0.00000000000E+00 0. -1.
<mgrwt>
<rscale>  0 0.30199794E+04</rscale>
<asrwt>0</asrwt>
<pdfrwt beam="1">  1        2 0.21266830E+00 0.30199794E+04</pdfrwt>
<pdfrwt beam="2">  1       -2 0.25375726E+00 0.30199794E+04</pdfrwt>
<totfact> 0.77133990E-01</totfact>
</mgrwt>
</event>
<event>
 6    1  0.8968082E-007  0.8829113E+03  0.7818608E-02  0.9447199E-01
         -2   -1    0    0    0  501 -0.00000000000E+00  0.00000000000E+00  0.21598504491E+03  0.21598504491E+03  0.00000000000E+00 0.  1.
          2   -1    0    0  501    0  0.00000000000E+00 -0.00000000000E+00 -0.90229907104E+03  0.90229907104E+03  0.00000000000E+00 0. -1.
         23    2    1    2    0    0  0.27257133276E+03 -0.34101481805E+03 -0.32806722348E+03  0.55354788622E+03  0.90558940177E+02 0.  0.
         11    1    3    3    0    0  0.14597547479E+03 -0.19660487234E+03 -0.12832142022E+03  0.27645741436E+03  0.00000000000E+00 0.  1.
        -11    1    3    3    0    0  0.12659585797E+03 -0.14440994571E+03 -0.19974580327E+03  0.27709047186E+03  0.00000000000E+00 0. -1.
         22    1    1    2    0    0 -0.27257133276E+03  0.34101481805E+03 -0.35824680265E+03  0.56473622974E+03  0.00000000000E+00 0. -1.
<mgrwt>
<rscale>  0 0.88291133E+03</rscale>
<asrwt>0</asrwt>
<pdfrwt beam="1">  1        2 0.13881524E+00 0.88291133E+03</pdfrwt>
<pdfrwt beam="2">  1       -2 0.33228469E-01 0.88291133E+03</pdfrwt>
<totfact> 0.24764920E+02</totfact>
</mgrwt>
</event>
<event>
 6    1  0.8968082E-007  0.2343055E+04  0.7818608E-02  0.8461136E-01
          2   -1    0    0  501    0  0.00000000000E+00  0.00000000000E+00  0.66759820089E+03  0.66759820089E+03  0.00000000000E+00 0. -1.
         -2   -1    0    0    0  501 -0.00000000000E+00 -0.00000000000E+00 -0.20558425084E+04  0.20558425084E+04  0.00000000000E+00 0.  1.
         23    2    1    2    0    0  0.28578285683E+03  0.10321096293E+04 -0.14819198908E+03  0.10849499768E+04  0.90738405853E+02 0.  0.
         13    1    3    3    0    0  0.20247416401E+03  0.65487861602E+03 -0.13354151452E+03  0.69835172006E+03  0.00000000000E+00 0. -1.
        -13    1    3    3    0    0  0.83308692828E+02  0.37723101328E+03 -0.14650474556E+02  0.38659825670E+03  0.00000000000E+00 0.  1.
         22    1    1    2    0    0 -0.28578285683E+03 -0.10321096293E+04 -0.12400523185E+04  0.16384907326E+04  0.00000000000E+00 0.  1.
<mgrwt>
<rscale>  0 0.23430551E+04</rscale>
<asrwt>0</asrwt>
<pdfrwt beam="1">  1        2 0.10270742E+00 0.23430551E+04</pdfrwt>
<pdfrwt beam="2">  1       -2 0.31628346E+00 0.23430551E+04</pdfrwt>
<totfact> 0.99240160E-01</totfact>
</mgrwt>
</event>
<event>
 6    1  0.8968082E-007  0.2229135E+04  0.7818608E-02  0.8506398E-01
         -2   -1    0    0    0  501 -0.00000000000E+00  0.00000000000E+00  0.35779704981E+03  0.35779704981E+03  0.00000000000E+00 0.  1.
          2   -1    0    0  501    0  0.00000000000E+00 -0.00000000000E+00 -0.34719717299E+04  0.34719717299E+04  0.00000000000E+00 0. -1.
         23    2    1    2    0    0  0.40286698248E+03 -0.75906839773E+03 -0.27740380743E+04  0.29055504351E+04  0.91920918490E+02 0.  0.
         13    1    3    3    0    0  0.76916293412E+02 -0.13179583029E+03 -0.61903253220E+03  0.63756374819E+03  0.00000000000E+00 0.  1.
        -13    1    3    3    0    0  0.32595068906E+03 -0.62727256744E+03 -0.21550055421E+04  0.22679866869E+04  0.00000000000E+00 0. -1.
         22    1    1    2    0    0 -0.40286698248E+03  0.75906839773E+03 -0.34013660585E+03  0.92421834468E+03  0.00000000000E+00 0.  1.
<mgrwt>
<rscale>  0 0.22291355E+04</rscale>
<asrwt>0</asrwt>
<pdfrwt beam="1">  1        2 0.53414950E+00 0.22291355E+04</pdfrwt>
<pdfrwt beam="2">  1       -2 0.55045699E-01 0.22291355E+04</pdfrwt>
<totfact> 0.24142674E+00</totfact>
</mgrwt>
</event>
<event>
 6    1  0.8968082E-007  0.4358950E+04  0.7818608E-02  0.7935807E-01
          2   -1    0    0  501    0  0.00000000000E+00  0.00000000000E+00  0.21951336104E+04  0.21951336104E+04  0.00000000000E+00 0. -1.
         -2   -1    0    0    0  501 -0.00000000000E+00 -0.00000000000E+00 -0.21639279275E+04  0.21639279275E+04  0.00000000000E+00 0.  1.
         23    2    1    2    0    0  0.17390303373E+04  0.99049911558E+02  0.13239896925E+04  0.21898847598E+04  0.92785539753E+02 0.  0.
         11    1    3    3    0    0  0.46450030949E+03 -0.86895783689E+01  0.37965449120E+03  0.59997798208E+03  0.00000000000E+00 0. -1.
        -11    1    3    3    0    0  0.12745300278E+04  0.10773948993E+03  0.94433520130E+03  0.15899067777E+04  0.00000000000E+00 0.  1.
         22    1    1    2    0    0 -0.17390303373E+04 -0.99049911558E+02 -0.12927840096E+04  0.21691767780E+04  0.00000000000E+00 0.  1.
<mgrwt>
<rscale>  0 0.43589498E+04</rscale>
<asrwt>0</asrwt>
<pdfrwt beam="1">  1        2 0.33771286E+00 0.43589498E+04</pdfrwt>
<pdfrwt beam="2">  1       -2 0.33291199E+00 0.43589498E+04</pdfrwt>
<totfact> 0.79289457E-02</totfact>
</mgrwt>
</event>
<event>
 6    1  0.8968082E-007  0.2384000E+04  0.7818608E-02  0.8445518E-01
          1   -1    0    0  501    0  0.00000000000E+00  0.00000000000E+00  0.29567313974E+04  0.29567313974E+04  0.00000000000E+00 0. -1.
         -1   -1    0    0    0  501 -0.00000000000E+00 -0.00000000000E+00 -0.48055241761E+03  0.48055241761E+03  0.00000000000E+00 0.  1.
         23    2    1    2    0    0  0.51527399816E+03 -0.16281193407E+03  0.27689465086E+04  0.28226881390E+04  0.92133293055E+02 0.  0.
         13    1    3    3    0    0  0.48800379662E+03 -0.16453623784E+03  0.25089325092E+04  0.25612423186E+04  0.00000000000E+00 0. -1.
        -13    1    3    3    0    0  0.27270201535E+02  0.17243037756E+01  0.26001399939E+03  0.26144582038E+03  0.00000000000E+00 0.  1.
         22    1    1    2    0    0 -0.51527399816E+03  0.16281193407E+03 -0.29276752878E+03  0.61459567600E+03  0.00000000000E+00 0.  1.
<mgrwt>
<rscale>  0 0.23840004E+04</rscale>
<asrwt>0</asrwt>
<pdfrwt beam="1">  1        1 0.45488174E+00 0.23840004E+04</pdfrwt>
<pdfrwt beam="2">  1       -1 0.73931143E-01 0.23840004E+04</pdfrwt>
<totfact> 0.10628597E+00</totfact>
</mgrwt>
</event>
<event>
 6    1  0.8968082E-007  0.3166911E+04  0.7818608E-02  0.8197611E-01
          2   -1    0    0  501    0  0.00000000000E+00  0.00000000000E+00  0.26060325291E+04  0.26060325291E+04  0.00000000000E+00 0. -1.
         -2   -1    0    0    0  501 -0.00000000000E+00 -0.00000000000E+00 -0.96212593708E+03  0.96212593708E+03  0.00000000000E+00 0.  1.
         23    2    1    2    0    0 -0.25939030100E+03  0.43601784792E+03  0.25111222653E+04  0.25634406372E+04  0.89988761569E+02 0.  0.
         13    1    3    3    0    0 -0.58238787695E+02  0.40150376537E+02  0.38491476472E+03  0.39136068432E+03  0.00000000000E+00 0.  1.
        -13    1    3    3    0    0 -0.20115151330E+03  0.39586747138E+03  0.21262075006E+04  0.21720799529E+04  0.00000000000E+00 0. -1.
         22    1    1    2    0    0  0.25939030100E+03 -0.43601784792E+03 -0.86721567327E+03  0.10047178290E+04  0.00000000000E+00 0.  1.
<mgrwt>
<rscale>  0 0.31669111E+04</rscale>
<asrwt>0</asrwt>
<pdfrwt beam="1">  1        2 0.40092808E+00 0.31669111E+04</pdfrwt>
<pdfrwt beam="2">  1       -2 0.14801938E+00 0.31669111E+04</pdfrwt>
<totfact> 0.79076356E-01</totfact>
</mgrwt>
</event>
<event>
 6    1  0.8968082E-007  0.1268272E+04  0.7818608E-02  0.9055111E-01
         -2   -1    0    0    0  501 -0.00000000000E+00  0.00000000000E+00  0.65102209154E+03  0.65102209154E+03  0.00000000000E+00 0.  1.
          2   -1    0    0  501    0  0.00000000000E+00 -0.00000000000E+00 -0.61768791448E+03  0.61768791448E+03  0.00000000000E+00 0. -1.
         23    2    1    2    0    0 -0.37388263895E+03 -0.50582028580E+03 -0.29972329037E+02  0.63653115241E+03  0.92904134698E+02 0.  0.
         11    1    3    3    0    0 -0.14325153562E+03 -0.12949637959E+03 -0.28193514992E+02  0.19515426993E+03  0.00000000000E+00 0. -1.
        -11    1    3    3    0    0 -0.23063110333E+03 -0.37632390621E+03 -0.17788140450E+01  0.44137688248E+03  0.00000000000E+00 0.  1.
         22    1    1    2    0    0  0.37388263895E+03  0.50582028580E+03  0.63306506100E+02  0.63217885361E+03  0.00000000000E+00 0.  1.
<mgrwt>
<rscale>  0 0.12682720E+04</rscale>
<asrwt>0</asrwt>
<pdfrwt beam="1">  1        2 0.95028910E-01 0.12682720E+04</pdfrwt>
<pdfrwt beam="2">  1       -2 0.10015724E+00 0.12682720E+04</pdfrwt>
<totfact> 0.38708597E+01</totfact>
</mgrwt>
</event>
<event>
 6    1  0.8968082E-007  0.2875222E+04  0.7818608E-02  0.8280288E-01
         -1   -1    0    0    0  501 -0.00000000000E+00  0.00000000000E+00  0.14492407334E+04  0.14492407334E+04  0.00000000000E+00 0.  1.
          1   -1    0    0  501    0  0.00000000000E+00 -0.00000000000E+00 -0.14260744735E+04  0.14260744735E+04  0.00000000000E+00 0. -1.
         23    2    1    2    0    0 -0.59636492471E+03  0.10535829410E+04  0.78411958218E+03  0.14453718180E+04  0.92563687074E+02 0.  0.
         11    1    3    3    0    0 -0.33124825597E+03  0.57857975767E+03  0.48624264528E+03  0.82517383208E+03  0.00000000000E+00 0. -1.
        -11    1    3    3    0    0 -0.26511666873E+03  0.47500318330E+03  0.29787693691E+03  0.62019798591E+03  0.00000000000E+00 0.  1.
         22    1    1    2    0    0  0.59636492471E+03 -0.10535829410E+04 -0.76095332227E+03  0.14299433889E+04  0.00000000000E+00 0. -1.
<mgrwt>
<rscale>  0 0.28752219E+04</rscale>
<asrwt>0</asrwt>
<pdfrwt beam="1">  1        1 0.21939607E+00 0.28752219E+04</pdfrwt>
<pdfrwt beam="2">  1       -1 0.22296011E+00 0.28752219E+04</pdfrwt>
<totfact> 0.66620030E-01</totfact>
</mgrwt>
</event>
<event>
 6    1  0.8968082E-007  0.1967459E+04  0.7818608E-02  0.8621987E-01
          1   -1    0    0  501    0  0.00000000000E+00  0.00000000000E+00  0.10576103559E+04  0.10576103559E+04  0.00000000000E+00 0. -1.
         -1   -1    0    0    0  501 -0.00000000000E+00 -0.00000000000E+00 -0.91501005292E+03  0.91501005292E+03  0.00000000000E+00 0.  1.
         23    2    1    2    0    0 -0.42137979407E+03  0.88007765018E+03 -0.34952864647E+02  0.98084284882E+03  0.93452609053E+02 0.  0.
         11    1    3    3    0    0 -0.98316030807E+02  0.14193652375E+03  0.16563251799E+02  0.17345420144E+03  0.00000000000E+00 0.  1.
        -11    1    3    3    0    0 -0.32306376327E+03  0.73814112644E+03 -0.51516116446E+02  0.80738864739E+03  0.00000000000E+00 0. -1.
         22    1    1    2    0    0  0.42137979407E+03 -0.88007765018E+03  0.17755316764E+03  0.99177756001E+03  0.00000000000E+00 0.  1.
<mgrwt>
<rscale>  0 0.19674594E+04</rscale>
<asrwt>0</asrwt>
<pdfrwt beam="1">  1        1 0.16270929E+00 0.19674594E+04</pdfrwt>
<pdfrwt beam="2">  1       -1 0.14077078E+00 0.19674594E+04</pdfrwt>
<totfact> 0.52486322E+00</totfact>
</mgrwt>
</event>
<event>
 6    1  0.8968082E-007  0.3358161E+04  0.7818608E-02  0.8148252E-01
         -2   -1    0    0    0  501 -0.00000000000E+00  0.00000000000E+00  0.36625907427E+04  0.36625907427E+04  0.00000000000E+00 0.  1.
          2   -1    0    0  501    0  0.00000000000E+00 -0.00000000000E+00 -0.76975886382E+03  0.76975886382E+03  0.00000000000E+00 0. -1.
         23    2    1    2    0    0  0.27794848869E+02  0.15603468402E+03  0.36521108862E+04  0.36567053663E+04  0.91982797162E+02 0.  0.
         11    1    3    3    0    0  0.31629815129E+02  0.97048127876E+02  0.13570370418E+04  0.13608704263E+04  0.00000000000E+00 0.  1.
        -11    1    3    3    0    0 -0.38349662607E+01  0.58986556143E+02  0.22950738444E+04  0.22958349401E+04  0.00000000000E+00 0. -1.
         22    1    1    2    0    0 -0.27794848869E+02 -0.15603468402E+03 -0.75927900735E+03  0.77564424013E+03  0.00000000000E+00 0. -1.
<mgrwt>
<rscale>  0 0.33581612E+04</rscale>
<asrwt>0</asrwt>
<pdfrwt beam="1">  1        2 0.11842444E+00 0.33581612E+04</pdfrwt>
<pdfrwt beam="2">  1       -2 0.56347549E+00 0.33581612E+04</pdfrwt>
<totfact> 0.21913095E-02</totfact>
</mgrwt>
</event>
<event>
 6    1  0.8968082E-007  0.1184933E+04  0.7818608E-02  0.9126148E-01
         -1   -1    0    0    0  501 -0.00000000000E+00  0.00000000000E+00  0.11008844656E+03  0.11008844656E+03  0.00000000000E+00 0.  1.
          1   -1    0    0  501    0  0.00000000000E+00 -0.00000000000E+00 -0.31884962045E+04  0.31884962045E+04  0.00000000000E+00 0. -1.
         23    2    1    2    0    0  0.18595434883E+03 -0.48802547005E+03 -0.79002692540E+03  0.95136614526E+03  0.90593157653E+02 0.  0.
         11    1    3    3    0    0  0.12717893359E+03 -0.21024268531E+03 -0.34806039286E+03  0.42605457978E+03  0.00000000000E+00 0. -1.
        -11    1    3    3    0    0  0.58775415244E+02 -0.27778278474E+03 -0.44196653254E+03  0.52531156548E+03  0.00000000000E+00 0.  1.
         22    1    1    2    0    0 -0.18595434883E+03  0.48802547005E+03 -0.22883808325E+04  0.23472185058E+04  0.00000000000E+00 0.  1.
<mgrwt>
<rscale>  0 0.11849331E+04</rscale>
<asrwt>0</asrwt>
<pdfrwt beam="1">  1        1 0.49053786E+00 0.11849331E+04</pdfrwt>
<pdfrwt beam="2">  1       -1 0.16936685E-01 0.11849331E+04</pdfrwt>
<totfact> 0.11783120E+01</totfact>
</mgrwt>
</event>
<event>
 6    1  0.8968082E-007  0.4681387E+04  0.7818608E-02  0.7879629E-01
          1   -1    0    0  501    0  0.00000000000E+00  0.00000000000E+00  0.39219018951E+04  0.39219018951E+04  0.00000000000E+00 0. -1.
         -1   -1    0    0    0  501 -0.00000000000E+00 -0.00000000000E+00 -0.13969868325E+04  0.13969868325E+04  0.00000000000E+00 0.  1.
         23    2    1    2    0    0  0.19870463958E+04  0.11588500603E+04  0.17495086965E+04  0.28914328837E+04  0.91195395620E+02 0.  0.
         11    1    3    3    0    0  0.50691445854E+03  0.30353688580E+03  0.49932662754E+03  0.77357869043E+03  0.00000000000E+00 0.  1.
        -11    1    3    3    0    0  0.14801319373E+04  0.85531317450E+03  0.12501820690E+04  0.21178541933E+04  0.00000000000E+00 0. -1.
         22    1    1    2    0    0 -0.19870463958E+04 -0.11588500603E+04  0.77540636603E+03  0.24274558439E+04  0.00000000000E+00 0.  1.
<mgrwt>
<rscale>  0 0.46813867E+04</rscale>
<asrwt>0</asrwt>
<pdfrwt beam="1">  1        1 0.60336952E+00 0.46813867E+04</pdfrwt>
<pdfrwt beam="2">  1       -1 0.21492105E+00 0.46813867E+04</pdfrwt>
<totfact> 0.98648663E-03</totfact>
</mgrwt>
</event>
<event>
 6    1  0.8968082E-007  0.6799078E+03  0.7818608E-02  0.9752223E-01
          1   -1    0    0  501    0  0.00000000000E+00  0.00000000000E+00  0.47814409184E+03  0.47814409184E+03  0.00000000000E+00 0. -1.
         -1   -1    0    0    0  501 -0.00000000000E+00 -0.00000000000E+00 -0.24170258323E+03  0.24170258323E+03  0.00000000000E+00 0.  1.
         23    2    1    2    0    0 -0.92997538639E+01 -0.14314191112E+03  0.43981037912E+03  0.47097926130E+03  0.88386666673E+02 0.  0.
         13    1    3    3    0    0  0.19613402297E+02 -0.55703977476E+02  0.28324914396E+03  0.28934010473E+03  0.00000000000E+00 0.  1.
        -13    1    3    3    0    0 -0.28913156161E+02 -0.87437933644E+02  0.15656123517E+03  0.18163915656E+03  0.00000000000E+00 0. -1.
         22    1    1    2    0    0  0.92997538639E+01  0.14314191112E+03 -0.20336887051E+03  0.24886741377E+03  0.00000000000E+00 0.  1.
<mgrwt>
<rscale>  0 0.67990782E+03</rscale>
<asrwt>0</asrwt>
<pdfrwt beam="1">  1        1 0.73560629E-01 0.67990782E+03</pdfrwt>
<pdfrwt beam="2">  1       -1 0.37185013E-01 0.67990782E+03</pdfrwt>
<totfact> 0.33200139E+02</totfact>
</mgrwt>
</event>
<event>
 6    1  0.8968082E-007  0.6832676E+04  0.7818608E-02  0.7594942E-01
          2   -1    0    0  501    0  0.00000000000E+00  0.00000000000E+00  0.32402204839E+04  0.32402204839E+04  0.00000000000E+00 0. -1.
         -2   -1    0    0    0  501 -0.00000000000E+00 -0.00000000000E+00 -0.36020280535E+04  0.36020280535E+04  0.00000000000E+00 0.  1.
         23    2    1    2    0    0 -0.79851232400E+02  0.31190934973E+04  0.12110428565E+04  0.33481136048E+04  0.90107971566E+02 0.  0.
         11    1    3    3    0    0 -0.60677231169E+01  0.83086696266E+03  0.36217651520E+03  0.90639315701E+03  0.00000000000E+00 0. -1.
        -11    1    3    3    0    0 -0.73783509283E+02  0.22882265346E+04  0.84886634134E+03  0.24417204478E+04  0.00000000000E+00 0.  1.
         22    1    1    2    0    0  0.79851232400E+02 -0.31190934973E+04 -0.15728504262E+04  0.34941349326E+04  0.00000000000E+00 0.  1.
<mgrwt>
<rscale>  0 0.68326759E+04</rscale>
<asrwt>0</asrwt>
<pdfrwt beam="1">  1        2 0.49849546E+00 0.68326759E+04</pdfrwt>
<pdfrwt beam="2">  1       -2 0.55415816E+00 0.68326759E+04</pdfrwt>
<totfact> 0.64110918E-04</totfact>
</mgrwt>
</event>
<event>
 6    1  0.8968082E-007  0.3491303E+04  0.7818608E-02  0.8115854E-01
         -1   -1    0    0    0  501 -0.00000000000E+00  0.00000000000E+00  0.10697589188E+04  0.10697589188E+04  0.00000000000E+00 0.  1.
          1   -1    0    0  501    0  0.00000000000E+00 -0.00000000000E+00 -0.28485845388E+04  0.28485845388E+04  0.00000000000E+00 0. -1.
         23    2    1    2    0    0 -0.50840976274E+03  0.72112258556E+01 -0.27628558454E+04  0.28107117619E+04  0.90530091011E+02 0.  0.
         11    1    3    3    0    0 -0.92007316450E+02  0.28382783566E+02 -0.65214705835E+03  0.65921674311E+03  0.00000000000E+00 0.  1.
        -11    1    3    3    0    0 -0.41640244629E+03 -0.21171557710E+02 -0.21107087871E+04  0.21514950188E+04  0.00000000000E+00 0. -1.
         22    1    1    2    0    0  0.50840976274E+03 -0.72112258556E+01  0.98403022549E+03  0.11076316957E+04  0.00000000000E+00 0.  1.
<mgrwt>
<rscale>  0 0.34913027E+04</rscale>
<asrwt>0</asrwt>
<pdfrwt beam="1">  1        1 0.43824377E+00 0.34913027E+04</pdfrwt>
<pdfrwt beam="2">  1       -1 0.16457830E+00 0.34913027E+04</pdfrwt>
<totfact> 0.16944649E-01</totfact>
</mgrwt>
</event>
<event>
 6    1  0.8968082E-007  0.3859815E+04  0.7818608E-02  0.8033439E-01
         -2   -1    0    0    0  501 -0.00000000000E+00  0.00000000000E+00  0.10415740062E+04  0.10415740062E+04  0.00000000000E+00 0.  1.
          2   -1    0    0  501    0  0.00000000000E+00 -0.00000000000E+00 -0.35758793338E+04  0.35758793338E+04  0.00000000000E+00 0. -1.
         23    2    1    2    0    0  0.10173861232E+04  0.16360069462E+04 -0.11550598556E+04  0.22480839463E+04  0.90138272268E+02 0.  0.
         11    1    3    3    0    0  0.33774641454E+03  0.61461261934E+03 -0.44504698797E+03  0.83059504808E+03  0.00000000000E+00 0. -1.
        -11    1    3    3    0    0  0.67963970870E+03  0.10213943268E+04 -0.71001286761E+03  0.14174888983E+04  0.00000000000E+00 0.  1.
         22    1    1    2    0    0 -0.10173861232E+04 -0.16360069462E+04 -0.13792454721E+04  0.23693693937E+04  0.00000000000E+00 0.  1.
<mgrwt>
<rscale>  0 0.38598150E+04</rscale>
<asrwt>0</asrwt>
<pdfrwt beam="1">  1        2 0.55013528E+00 0.38598150E+04</pdfrwt>
<pdfrwt beam="2">  1       -2 0.16024216E+00 0.38598150E+04</pdfrwt>
<totfact> 0.14351037E-01</totfact>
</mgrwt>
</event>
<event>
 6    1  0.8968082E-007  0.4915865E+04  0.7818608E-02  0.7841618E-01
          2   -1    0    0  501    0  0.00000000000E+00  0.00000000000E+00  0.22820572005E+04  0.22820572005E+04  0.00000000000E+00 0. -1.
         -2   -1    0    0    0  501 -0.00000000000E+00 -0.00000000000E+00 -0.26473627267E+04  0.26473627267E+04  0.00000000000E+00 0.  1.
         23    2    1    2    0    0 -0.20967794782E+04  0.11735124290E+04 -0.69758624963E+03  0.25037187749E+04  0.91463253535E+02 0.  0.
         11    1    3    3    0    0 -0.14568230678E+04  0.86299636733E+03 -0.49499697387E+03  0.17641196629E+04  0.00000000000E+00 0. -1.
        -11    1    3    3    0    0 -0.63995641043E+03  0.31051606165E+03 -0.20258927576E+03  0.73959911199E+03  0.00000000000E+00 0.  1.
         22    1    1    2    0    0  0.20967794782E+04 -0.11735124290E+04  0.33228072350E+03  0.24257011523E+04  0.00000000000E+00 0.  1.
<mgrwt>
<rscale>  0 0.49158654E+04</rscale>
<asrwt>0</asrwt>
<pdfrwt beam="1">  1        2 0.35108572E+00 0.49158654E+04</pdfrwt>
<pdfrwt beam="2">  1       -2 0.40728657E+00 0.49158654E+04</pdfrwt>
<totfact> 0.22635265E-02</totfact>
</mgrwt>
</event>
<event>
 6    1  0.8968082E-007  0.2342850E+04  0.7818608E-02  0.8461215E-01
         -2   -1    0    0    0  501 -0.00000000000E+00  0.00000000000E+00  0.10924866567E+04  0.10924866567E+04  0.00000000000E+00 0.  1.
          2   -1    0    0  501    0  0.00000000000E+00 -0.00000000000E+00 -0.12560672073E+04  0.12560672073E+04  0.00000000000E+00 0. -1.
         23    2    1    2    0    0  0.69116372412E+03  0.37655980431E+03 -0.94930517738E+03  0.12364082940E+04  0.89557634774E+02 0.  0.
         11    1    3    3    0    0  0.22966984964E+03  0.13242556775E+03 -0.25629131162E+03  0.36874111140E+03  0.00000000000E+00 0.  1.
        -11    1    3    3    0    0  0.46149387448E+03  0.24413423656E+03 -0.69301386576E+03  0.86766718262E+03  0.00000000000E+00 0. -1.
         22    1    1    2    0    0 -0.69116372412E+03 -0.37655980431E+03  0.78572462678E+03  0.11121455700E+04  0.00000000000E+00 0.  1.
<mgrwt>
<rscale>  0 0.23428501E+04</rscale>
<asrwt>0</asrwt>
<pdfrwt beam="1">  1        2 0.19324111E+00 0.23428501E+04</pdfrwt>
<pdfrwt beam="2">  1       -2 0.16807487E+00 0.23428501E+04</pdfrwt>
<totfact> 0.34868184E+00</totfact>
</mgrwt>
</event>
<event>
 6    1  0.8968082E-007  0.2695144E+04  0.7818608E-02  0.8336582E-01
          2   -1    0    0  501    0  0.00000000000E+00  0.00000000000E+00  0.20066759012E+04  0.20066759012E+04  0.00000000000E+00 0. -1.
         -2   -1    0    0    0  501 -0.00000000000E+00 -0.00000000000E+00 -0.90495430387E+03  0.90495430387E+03  0.00000000000E+00 0.  1.
         23    2    1    2    0    0  0.54604821704E+03 -0.10607252138E+03 -0.77239215250E+03  0.95670760240E+03  0.96331532330E+02 0.  0.
         13    1    3    3    0    0  0.34654529966E+03 -0.49660252949E+02 -0.40933133745E+03  0.53862039439E+03  0.00000000000E+00 0.  1.
        -13    1    3    3    0    0  0.19950291738E+03 -0.56412268433E+02 -0.36306081505E+03  0.41808720801E+03  0.00000000000E+00 0. -1.
         22    1    1    2    0    0 -0.54604821704E+03  0.10607252138E+03  0.18741137498E+04  0.19549226027E+04  0.00000000000E+00 0. -1.
<mgrwt>
<rscale>  0 0.26951438E+04</rscale>
<asrwt>0</asrwt>
<pdfrwt beam="1">  1        2 0.30871937E+00 0.26951438E+04</pdfrwt>
<pdfrwt beam="2">  1       -2 0.13922374E+00 0.26951438E+04</pdfrwt>
<totfact> 0.21185823E+00</totfact>
</mgrwt>
</event>
<event>
 6    1  0.8968082E-007  0.2452564E+04  0.7818608E-02  0.8420082E-01
         -2   -1    0    0    0  501 -0.00000000000E+00  0.00000000000E+00  0.68131183446E+03  0.68131183446E+03  0.00000000000E+00 0.  1.
          2   -1    0    0  501    0  0.00000000000E+00 -0.00000000000E+00 -0.22071655927E+04  0.22071655927E+04  0.00000000000E+00 0. -1.
         23    2    1    2    0    0 -0.16394833203E+03 -0.47142258273E+02 -0.21921819273E+04  0.22006586452E+04  0.90196574040E+02 0.  0.
         13    1    3    3    0    0 -0.12696728129E+03 -0.47011266607E+02 -0.11699389222E+04  0.11777469301E+04  0.00000000000E+00 0. -1.
        -13    1    3    3    0    0 -0.36981050737E+02 -0.13099166613E+00 -0.10222430052E+04  0.10229117151E+04  0.00000000000E+00 0.  1.
         22    1    1    2    0    0  0.16394833203E+03  0.47142258273E+02  0.66632816903E+03  0.68781878205E+03  0.00000000000E+00 0.  1.
<mgrwt>
<rscale>  0 0.24525644E+04</rscale>
<asrwt>0</asrwt>
<pdfrwt beam="1">  1        2 0.33956394E+00 0.24525644E+04</pdfrwt>
<pdfrwt beam="2">  1       -2 0.10481721E+00 0.24525644E+04</pdfrwt>
<totfact> 0.33809095E+00</totfact>
</mgrwt>
</event>
<event>
 6    1  0.8968082E-007  0.5055404E+04  0.7818608E-02  0.7820017E-01
          1   -1    0    0  501    0  0.00000000000E+00  0.00000000000E+00  0.41257305817E+04  0.41257305817E+04  0.00000000000E+00 0. -1.
         -1   -1    0    0    0  501 -0.00000000000E+00 -0.00000000000E+00 -0.15486414175E+04  0.15486414175E+04  0.00000000000E+00 0.  1.
         23    2    1    2    0    0 -0.31919538825E+03  0.20093900125E+04 -0.39308979876E+03  0.20741640899E+04  0.90017572692E+02 0.  0.
         11    1    3    3    0    0 -0.20800216803E+03  0.12941617470E+04 -0.29696170314E+03  0.13439887583E+04  0.00000000000E+00 0.  1.
        -11    1    3    3    0    0 -0.11119322023E+03  0.71522826552E+03 -0.96128095618E+02  0.73017533154E+03  0.00000000000E+00 0. -1.
         22    1    1    2    0    0  0.31919538825E+03 -0.20093900125E+04  0.29701789629E+04  0.36002079093E+04  0.00000000000E+00 0. -1.
<mgrwt>
<rscale>  0 0.50554039E+04</rscale>
<asrwt>0</asrwt>
<pdfrwt beam="1">  1        1 0.63472777E+00 0.50554039E+04</pdfrwt>
<pdfrwt beam="2">  1       -1 0.23825253E+00 0.50554039E+04</pdfrwt>
<totfact> 0.44111884E-03</totfact>
</mgrwt>
</event>
<event>
 6    1  0.8968082E-007  0.3209683E+04  0.7818608E-02  0.8186265E-01
          1   -1    0    0  501    0  0.00000000000E+00  0.00000000000E+00  0.25291869905E+04  0.25291869905E+04  0.00000000000E+00 0. -1.
         -1   -1    0    0    0  501 -0.00000000000E+00 -0.00000000000E+00 -0.10183177192E+04  0.10183177192E+04  0.00000000000E+00 0.  1.
         23    2    1    2    0    0  0.13335861546E+04 -0.31217127886E+03  0.16777470368E+04  0.21677398284E+04  0.91421579486E+02 0.  0.
         13    1    3    3    0    0  0.46661993723E+03 -0.90765401087E+02  0.64562094966E+03  0.80174742563E+03  0.00000000000E+00 0.  1.
        -13    1    3    3    0    0  0.86696621738E+03 -0.22140587778E+03  0.10321260871E+04  0.13659924028E+04  0.00000000000E+00 0. -1.
         22    1    1    2    0    0 -0.13335861546E+04  0.31217127886E+03 -0.16687776544E+03  0.13797648813E+04  0.00000000000E+00 0.  1.
<mgrwt>
<rscale>  0 0.32096828E+04</rscale>
<asrwt>0</asrwt>
<pdfrwt beam="1">  1        1 0.38910569E+00 0.32096828E+04</pdfrwt>
<pdfrwt beam="2">  1       -1 0.15666427E+00 0.32096828E+04</pdfrwt>
<totfact> 0.33479354E-01</totfact>
</mgrwt>
</event>
<event>
 6    1  0.8968082E-007  0.2650297E+04  0.7818608E-02  0.8351315E-01
         -2   -1    0    0    0  501 -0.00000000000E+00  0.00000000000E+00  0.99169539400E+03  0.99169539400E+03  0.00000000000E+00 0.  1.
          2   -1    0    0  501    0  0.00000000000E+00 -0.00000000000E+00 -0.17707230866E+04  0.17707230866E+04  0.00000000000E+00 0. -1.
         23    2    1    2    0    0 -0.82531429841E+03 -0.88884087947E+03 -0.94218093429E+03  0.15385717661E+04  0.91194113626E+02 0.  0.
         11    1    3    3    0    0 -0.61132491320E+02 -0.53160463151E+02 -0.91701829970E+02  0.12236193018E+03  0.00000000000E+00 0.  1.
        -11    1    3    3    0    0 -0.76418180709E+03 -0.83568041632E+03 -0.85047910432E+03  0.14162098359E+04  0.00000000000E+00 0. -1.
         22    1    1    2    0    0  0.82531429841E+03  0.88884087947E+03  0.16315324173E+03  0.12238467144E+04  0.00000000000E+00 0.  1.
<mgrwt>
<rscale>  0 0.26502965E+04</rscale>
<asrwt>0</asrwt>
<pdfrwt beam="1">  1        2 0.27241893E+00 0.26502965E+04</pdfrwt>
<pdfrwt beam="2">  1       -2 0.15256852E+00 0.26502965E+04</pdfrwt>
<totfact> 0.22601918E+00</totfact>
</mgrwt>
</event>
<event>
 6    1  0.8968082E-007  0.2732294E+04  0.7818608E-02  0.8324602E-01
         -2   -1    0    0    0  501 -0.00000000000E+00  0.00000000000E+00  0.70016489115E+03  0.70016489115E+03  0.00000000000E+00 0.  1.
          2   -1    0    0  501    0  0.00000000000E+00 -0.00000000000E+00 -0.26655982099E+04  0.26655982099E+04  0.00000000000E+00 0. -1.
         23    2    1    2    0    0 -0.10948649105E+04 -0.23084085316E+03 -0.21539583133E+02  0.11228320885E+04  0.90946542998E+02 0.  0.
         13    1    3    3    0    0 -0.58869207761E+03 -0.13615310176E+03  0.32157596373E+02  0.60508688663E+03  0.00000000000E+00 0.  1.
        -13    1    3    3    0    0 -0.50617283286E+03 -0.94687751402E+02 -0.53697179506E+02  0.51774520188E+03  0.00000000000E+00 0. -1.
         22    1    1    2    0    0  0.10948649105E+04  0.23084085316E+03 -0.19438937357E+04  0.22429310126E+04  0.00000000000E+00 0. -1.
<mgrwt>
<rscale>  0 0.27322945E+04</rscale>
<asrwt>0</asrwt>
<pdfrwt beam="1">  1        2 0.41009203E+00 0.27322945E+04</pdfrwt>
<pdfrwt beam="2">  1       -2 0.10771768E+00 0.27322945E+04</pdfrwt>
<totfact> 0.16829779E+00</totfact>
</mgrwt>
</event>
<event>
 6    1  0.8968082E-007  0.6967022E+03  0.7818608E-02  0.9722889E-01
         -2   -1    0    0    0  501 -0.00000000000E+00  0.00000000000E+00  0.12423936219E+03  0.12423936219E+03  0.00000000000E+00 0.  1.
          2   -1    0    0  501    0  0.00000000000E+00 -0.00000000000E+00 -0.97673132919E+03  0.97673132919E+03  0.00000000000E+00 0. -1.
         23    2    1    2    0    0  0.97048228506E+02  0.96371367272E+01 -0.95210510267E+03  0.96156477379E+03  0.92690099767E+02 0.  0.
         13    1    3    3    0    0  0.97523148166E+02 -0.39559730324E+01 -0.51029630026E+03  0.51954665643E+03  0.00000000000E+00 0.  1.
        -13    1    3    3    0    0 -0.47491966038E+00  0.13593109760E+02 -0.44180880242E+03  0.44201811736E+03  0.00000000000E+00 0. -1.
         22    1    1    2    0    0 -0.97048228506E+02 -0.96371367272E+01  0.99613135678E+02  0.13940591759E+03  0.00000000000E+00 0.  1.
<mgrwt>
<rscale>  0 0.69670217E+03</rscale>
<asrwt>0</asrwt>
<pdfrwt beam="1">  1        2 0.15026635E+00 0.69670217E+03</pdfrwt>
<pdfrwt beam="2">  1       -2 0.19113749E-01 0.69670217E+03</pdfrwt>
<totfact> 0.60656311E+02</totfact>
</mgrwt>
</event>
<event>
 6    1  0.8968082E-007  0.2685012E+04  0.7818608E-02  0.8339884E-01
          2   -1    0    0  501    0  0.00000000000E+00  0.00000000000E+00  0.16349696158E+04  0.16349696158E+04  0.00000000000E+00 0. -1.
         -2   -1    0    0    0  501 -0.00000000000E+00 -0.00000000000E+00 -0.11023586791E+04  0.11023586791E+04  0.00000000000E+00 0.  1.
         23    2    1    2    0    0  0.28794476756E+03 -0.10611215386E+04 -0.51608882885E+03  0.12179000119E+04  0.89675252673E+02 0.  0.
         11    1    3    3    0    0  0.23267091558E+03 -0.72180743004E+03 -0.33116858989E+03  0.82753510859E+03  0.00000000000E+00 0.  1.
        -11    1    3    3    0    0  0.55273851978E+02 -0.33931410858E+03 -0.18492023897E+03  0.39036490336E+03  0.00000000000E+00 0. -1.
         22    1    1    2    0    0 -0.28794476756E+03  0.10611215386E+04  0.10486997655E+04  0.15194282830E+04  0.00000000000E+00 0. -1.
<mgrwt>
<rscale>  0 0.26850124E+04</rscale>
<asrwt>0</asrwt>
<pdfrwt beam="1">  1        2 0.25153379E+00 0.26850124E+04</pdfrwt>
<pdfrwt beam="2">  1       -2 0.16959364E+00 0.26850124E+04</pdfrwt>
<totfact> 0.20095079E+00</totfact>
</mgrwt>
</event>
<event>
 6    1  0.8968082E-007  0.2592832E+04  0.7818608E-02  0.8370640E-01
          2   -1    0    0  501    0  0.00000000000E+00  0.00000000000E+00  0.10854581018E+04  0.10854581018E+04  0.00000000000E+00 0. -1.
         -2   -1    0    0    0  501 -0.00000000000E+00 -0.00000000000E+00 -0.15483731031E+04  0.15483731031E+04  0.00000000000E+00 0.  1.
         23    2    1    2    0    0  0.65752186765E+03  0.10573535522E+04  0.12881430573E+03  0.12552539987E+04  0.93476922267E+02 0.  0.
         11    1    3    3    0    0  0.60231285281E+03  0.92789988131E+03  0.13457759427E+03  0.11144012254E+04  0.00000000000E+00 0.  1.
        -11    1    3    3    0    0  0.55209014844E+02  0.12945367090E+03 -0.57632885410E+01  0.14085277322E+03  0.00000000000E+00 0. -1.
         22    1    1    2    0    0 -0.65752186765E+03 -0.10573535522E+04 -0.59172930695E+03  0.13785772062E+04  0.00000000000E+00 0.  1.
<mgrwt>
<rscale>  0 0.25928318E+04</rscale>
<asrwt>0</asrwt>
<pdfrwt beam="1">  1        2 0.16699355E+00 0.25928318E+04</pdfrwt>
<pdfrwt beam="2">  1       -2 0.23821125E+00 0.25928318E+04</pdfrwt>
<totfact> 0.14959077E+00</totfact>
</mgrwt>
</event>
<event>
 6    1  0.8968082E-007  0.1424161E+04  0.7818608E-02  0.8936513E-01
          2   -1    0    0  501    0  0.00000000000E+00  0.00000000000E+00  0.15058077558E+04  0.15058077558E+04  0.00000000000E+00 0. -1.
         -2   -1    0    0    0  501 -0.00000000000E+00 -0.00000000000E+00 -0.33673517366E+03  0.33673517366E+03  0.00000000000E+00 0.  1.
         23    2    1    2    0    0  0.52146992642E+03  0.38912184031E+03  0.22165114046E+03  0.69321526561E+03  0.89841447211E+02 0.  0.
         11    1    3    3    0    0  0.28358426382E+03  0.18483073305E+03  0.15661060276E+03  0.37297361229E+03  0.00000000000E+00 0. -1.
        -11    1    3    3    0    0  0.23788566260E+03  0.20429110726E+03  0.65040537699E+02  0.32024165332E+03  0.00000000000E+00 0.  1.
         22    1    1    2    0    0 -0.52146992642E+03 -0.38912184031E+03  0.94742144171E+03  0.11493276639E+04  0.00000000000E+00 0. -1.
<mgrwt>
<rscale>  0 0.14241607E+04</rscale>
<asrwt>0</asrwt>
<pdfrwt beam="1">  1        2 0.23166273E+00 0.14241607E+04</pdfrwt>
<pdfrwt beam="2">  1       -2 0.51805412E-01 0.14241607E+04</pdfrwt>
<totfact> 0.43063526E+01</totfact>
</mgrwt>
</event>
<event>
 6    1  0.8968082E-007  0.1849271E+04  0.7818608E-02  0.8680528E-01
          3   -1    0    0  501    0  0.00000000000E+00  0.00000000000E+00  0.13939495805E+04  0.13939495805E+04  0.00000000000E+00 0. -1.
         -3   -1    0    0    0  501 -0.00000000000E+00 -0.00000000000E+00 -0.61333003346E+03  0.61333003346E+03  0.00000000000E+00 0.  1.
         23    2    1    2    0    0 -0.83061473423E+03  0.28555998755E+03  0.85289233724E+02  0.88703428913E+03  0.89945725241E+02 0.  0.
         11    1    3    3    0    0 -0.42778380604E+03  0.19442016255E+03  0.48400047718E+02  0.47237776084E+03  0.00000000000E+00 0.  1.
        -11    1    3    3    0    0 -0.40283092819E+03  0.91139824998E+02  0.36889186006E+02  0.41465652829E+03  0.00000000000E+00 0. -1.
         22    1    1    2    0    0  0.83061473423E+03 -0.28555998755E+03  0.69533031332E+03  0.11202453248E+04  0.00000000000E+00 0.  1.
<mgrwt>
<rscale>  0 0.18492714E+04</rscale>
<asrwt>0</asrwt>
<pdfrwt beam="1">  1        3 0.21445378E+00 0.18492714E+04</pdfrwt>
<pdfrwt beam="2">  1       -3 0.94358467E-01 0.18492714E+04</pdfrwt>
<totfact> 0.29477246E-01</totfact>
</mgrwt>
</event>
<event>
 6    1  0.1164548E-006  0.4333360E+04  0.7818608E-02  0.7940478E-01
          1   -1    0    0  501    0  0.00000000000E+00  0.00000000000E+00  0.30495406419E+04  0.30495406419E+04  0.00000000000E+00 0. -1.
         -1   -1    0    0    0  501 -0.00000000000E+00 -0.00000000000E+00 -0.15394129888E+04  0.15394129888E+04  0.00000000000E+00 0.  1.
         23    2    1    2    0    0 -0.17374663612E+04  0.83516410442E+03  0.18014098619E+04  0.26393039795E+04  0.67524576534E+02 0.  0.
         13    1    3    3    0    0 -0.47242342757E+03  0.24483337766E+03  0.46246515270E+03  0.70498318788E+03  0.00000000000E+00 0. -1.
        -13    1    3    3    0    0 -0.12650429336E+04  0.59033072676E+03  0.13389447092E+04  0.19343207916E+04  0.00000000000E+00 0.  1.
         22    1    1    2    0    0  0.17374663612E+04 -0.83516410442E+03 -0.29128220875E+03  0.19496496512E+04  0.00000000000E+00 0.  1.
<mgrwt>
<rscale>  0 0.43333601E+04</rscale>
<asrwt>0</asrwt>
<pdfrwt beam="1">  1        1 0.46916010E+00 0.43333601E+04</pdfrwt>
<pdfrwt beam="2">  1       -1 0.23683277E+00 0.43333601E+04</pdfrwt>
<totfact> 0.35607486E-02</totfact>
</mgrwt>
</event>
<event>
 6    1  0.8968082E-007  0.2925058E+04  0.7818608E-02  0.8265461E-01
          1   -1    0    0  501    0  0.00000000000E+00  0.00000000000E+00  0.22418203911E+04  0.22418203911E+04  0.00000000000E+00 0. -1.
         -1   -1    0    0    0  501 -0.00000000000E+00 -0.00000000000E+00 -0.95413136039E+03  0.95413136039E+03  0.00000000000E+00 0.  1.
         23    2    1    2    0    0  0.12393919637E+04 -0.55866615860E+03  0.59534815436E+02  0.13638592066E+04  0.91472534772E+02 0.  0.
         11    1    3    3    0    0  0.10835634737E+04 -0.52039034496E+03  0.56369502826E+02  0.12033675388E+04  0.00000000000E+00 0. -1.
        -11    1    3    3    0    0  0.15582849005E+03 -0.38275813648E+02  0.31653126096E+01  0.16049166777E+03  0.00000000000E+00 0.  1.
         22    1    1    2    0    0 -0.12393919637E+04  0.55866615860E+03  0.12281542153E+04  0.18320925449E+04  0.00000000000E+00 0. -1.
<mgrwt>
<rscale>  0 0.29250580E+04</rscale>
<asrwt>0</asrwt>
<pdfrwt beam="1">  1        1 0.34489544E+00 0.29250580E+04</pdfrwt>
<pdfrwt beam="2">  1       -1 0.14678944E+00 0.29250580E+04</pdfrwt>
<totfact> 0.64595330E-01</totfact>
</mgrwt>
</event>
<event>
 6    1  0.8968082E-007  0.3214958E+04  0.7818608E-02  0.8184878E-01
          1   -1    0    0  501    0  0.00000000000E+00  0.00000000000E+00  0.23414784890E+04  0.23414784890E+04  0.00000000000E+00 0. -1.
         -1   -1    0    0    0  501 -0.00000000000E+00 -0.00000000000E+00 -0.11035714394E+04  0.11035714394E+04  0.00000000000E+00 0.  1.
         23    2    1    2    0    0 -0.52341849266E+03 -0.12234989536E+04  0.15832290893E+04  0.20702176044E+04  0.90939389224E+02 0.  0.
         13    1    3    3    0    0 -0.40461104322E+03 -0.88732195512E+03  0.11068834968E+04  0.14752089425E+04  0.00000000000E+00 0.  1.
        -13    1    3    3    0    0 -0.11880744943E+03 -0.33617699853E+03  0.47634559247E+03  0.59500866199E+03  0.00000000000E+00 0. -1.
         22    1    1    2    0    0  0.52341849266E+03  0.12234989536E+04 -0.34532203973E+03  0.13748323240E+04  0.00000000000E+00 0.  1.
<mgrwt>
<rscale>  0 0.32149580E+04</rscale>
<asrwt>0</asrwt>
<pdfrwt beam="1">  1        1 0.36022746E+00 0.32149580E+04</pdfrwt>
<pdfrwt beam="2">  1       -1 0.16978022E+00 0.32149580E+04</pdfrwt>
<totfact> 0.35966642E-01</totfact>
</mgrwt>
</event>
<event>
 6    1  0.8968082E-007  0.1914563E+04  0.7818608E-02  0.8647641E-01
          1   -1    0    0  501    0  0.00000000000E+00  0.00000000000E+00  0.10304949607E+04  0.10304949607E+04  0.00000000000E+00 0. -1.
         -1   -1    0    0    0  501 -0.00000000000E+00 -0.00000000000E+00 -0.88926985770E+03  0.88926985770E+03  0.00000000000E+00 0.  1.
         23    2    1    2    0    0 -0.46737249242E+03  0.68295476678E+03 -0.40688171099E+03  0.92714941471E+03  0.95859534296E+02 0.  0.
         13    1    3    3    0    0 -0.98384914659E+02  0.17643101665E+03 -0.14130660760E+03  0.24652596703E+03  0.00000000000E+00 0.  1.
        -13    1    3    3    0    0 -0.36898757776E+03  0.50652375013E+03 -0.26557510339E+03  0.68062344767E+03  0.00000000000E+00 0. -1.
         22    1    1    2    0    0  0.46737249242E+03 -0.68295476678E+03  0.54810681400E+03  0.99261540371E+03  0.00000000000E+00 0. -1.
<mgrwt>
<rscale>  0 0.19145632E+04</rscale>
<asrwt>0</asrwt>
<pdfrwt beam="1">  1        1 0.15853769E+00 0.19145632E+04</pdfrwt>
<pdfrwt beam="2">  1       -1 0.13681075E+00 0.19145632E+04</pdfrwt>
<totfact> 0.59595384E+00</totfact>
</mgrwt>
</event>
<event>
 6    1  0.8968082E-007  0.2916193E+04  0.7818608E-02  0.8268076E-01
         -1   -1    0    0    0  501 -0.00000000000E+00  0.00000000000E+00  0.20512827363E+04  0.20512827363E+04  0.00000000000E+00 0.  1.
          1   -1    0    0  501    0  0.00000000000E+00 -0.00000000000E+00 -0.10364466892E+04  0.10364466892E+04  0.00000000000E+00 0. -1.
         23    2    1    2    0    0  0.13184703139E+04  0.34658130133E+03 -0.35491794714E+02  0.13667787748E+04  0.91334465273E+02 0.  0.
         11    1    3    3    0    0  0.22159649752E+03  0.67370828904E+02 -0.39286263434E+02  0.23491966030E+03  0.00000000000E+00 0.  1.
        -11    1    3    3    0    0  0.10968738164E+04  0.27921047242E+03  0.37944687200E+01  0.11318591144E+04  0.00000000000E+00 0. -1.
         22    1    1    2    0    0 -0.13184703139E+04 -0.34658130133E+03  0.10503278419E+04  0.17209506508E+04  0.00000000000E+00 0.  1.
<mgrwt>
<rscale>  0 0.29161929E+04</rscale>
<asrwt>0</asrwt>
<pdfrwt beam="1">  1        1 0.15945334E+00 0.29161929E+04</pdfrwt>
<pdfrwt beam="2">  1       -1 0.31558196E+00 0.29161929E+04</pdfrwt>
<totfact> 0.31775577E-01</totfact>
</mgrwt>
</event>
<event>
 6    1  0.8968082E-007  0.2881934E+04  0.7818608E-02  0.8278273E-01
         -2   -1    0    0    0  501 -0.00000000000E+00  0.00000000000E+00  0.82518089020E+03  0.82518089020E+03  0.00000000000E+00 0.  1.
          2   -1    0    0  501    0  0.00000000000E+00 -0.00000000000E+00 -0.25162804366E+04  0.25162804366E+04  0.00000000000E+00 0. -1.
         23    2    1    2    0    0 -0.13290674273E+04  0.49532383049E+03 -0.11313105002E+04  0.18166237290E+04  0.92154226257E+02 0.  0.
         11    1    3    3    0    0 -0.96486862751E+03  0.39614541402E+03 -0.80227745895E+03  0.13158844093E+04  0.00000000000E+00 0.  1.
        -11    1    3    3    0    0 -0.36419879983E+03  0.99178416476E+02 -0.32903304127E+03  0.50073931975E+03  0.00000000000E+00 0. -1.
         22    1    1    2    0    0  0.13290674273E+04 -0.49532383049E+03 -0.55978904621E+03  0.15248375978E+04  0.00000000000E+00 0.  1.
<mgrwt>
<rscale>  0 0.28819344E+04</rscale>
<asrwt>0</asrwt>
<pdfrwt beam="1">  1        2 0.38712006E+00 0.28819344E+04</pdfrwt>
<pdfrwt beam="2">  1       -2 0.12695091E+00 0.28819344E+04</pdfrwt>
<totfact> 0.13573553E+00</totfact>
</mgrwt>
</event>
<event>
 6    1  0.8968082E-007  0.1253187E+04  0.7818608E-02  0.9067535E-01
         -2   -1    0    0    0  501 -0.00000000000E+00  0.00000000000E+00  0.13508463074E+03  0.13508463074E+03  0.00000000000E+00 0.  1.
          2   -1    0    0  501    0  0.00000000000E+00 -0.00000000000E+00 -0.29064685588E+04  0.29064685588E+04  0.00000000000E+00 0. -1.
         23    2    1    2    0    0  0.79547277270E+02  0.55444459962E+03 -0.72887464289E+03  0.92363421956E+03  0.90029679087E+02 0.  0.
         11    1    3    3    0    0  0.29699717322E+02  0.44493073930E+03 -0.55003876055E+03  0.70808761752E+03  0.00000000000E+00 0.  1.
        -11    1    3    3    0    0  0.49847559948E+02  0.10951386032E+03 -0.17883588235E+03  0.21554660204E+03  0.00000000000E+00 0. -1.
         22    1    1    2    0    0 -0.79547277270E+02 -0.55444459962E+03 -0.20425092852E+04  0.21179189700E+04  0.00000000000E+00 0.  1.
<mgrwt>
<rscale>  0 0.12531867E+04</rscale>
<asrwt>0</asrwt>
<pdfrwt beam="1">  1        2 0.44714897E+00 0.12531867E+04</pdfrwt>
<pdfrwt beam="2">  1       -2 0.20782253E-01 0.12531867E+04</pdfrwt>
<totfact> 0.39541045E+01</totfact>
</mgrwt>
</event>
<event>
 6    1  0.8968082E-007  0.7179083E+03  0.7818608E-02  0.9687087E-01
          2   -1    0    0  501    0  0.00000000000E+00  0.00000000000E+00  0.30018360621E+03  0.30018360621E+03  0.00000000000E+00 0. -1.
         -2   -1    0    0    0  501 -0.00000000000E+00 -0.00000000000E+00 -0.42923095840E+03  0.42923095840E+03  0.00000000000E+00 0.  1.
         23    2    1    2    0    0 -0.20933926612E+02 -0.19749751224E+03  0.23057208663E+03  0.31859874530E+03  0.94330147613E+02 0.  0.
         13    1    3    3    0    0 -0.45102064327E+02 -0.18873966633E+03  0.20672078405E+03  0.28353190369E+03  0.00000000000E+00 0.  1.
        -13    1    3    3    0    0  0.24168137715E+02 -0.87578459135E+01  0.23851302578E+02  0.35066841607E+02  0.00000000000E+00 0. -1.
         22    1    1    2    0    0  0.20933926612E+02  0.19749751224E+03 -0.35961943881E+03  0.41081581931E+03  0.00000000000E+00 0.  1.
<mgrwt>
<rscale>  0 0.71790834E+03</rscale>
<asrwt>0</asrwt>
<pdfrwt beam="1">  1        2 0.46182093E-01 0.71790834E+03</pdfrwt>
<pdfrwt beam="2">  1       -2 0.66035532E-01 0.71790834E+03</pdfrwt>
<totfact> 0.23372583E+02</totfact>
</mgrwt>
</event>
<event>
 6    1  0.8968082E-007  0.2181181E+04  0.7818608E-02  0.8526302E-01
         -1   -1    0    0    0  501 -0.00000000000E+00  0.00000000000E+00  0.12034834420E+04  0.12034834420E+04  0.00000000000E+00 0.  1.
          1   -1    0    0  501    0  0.00000000000E+00 -0.00000000000E+00 -0.98828716081E+03  0.98828716081E+03  0.00000000000E+00 0. -1.
         23    2    1    2    0    0  0.37393958065E+03 -0.83282639175E+03  0.70379193174E+03  0.11563207882E+04  0.91236359117E+02 0.  0.
         13    1    3    3    0    0  0.34043986713E+03 -0.74580827783E+03  0.59473966304E+03  0.10128398478E+04  0.00000000000E+00 0. -1.
        -13    1    3    3    0    0  0.33499713522E+02 -0.87018113915E+02  0.10905226870E+03  0.14348094042E+03  0.00000000000E+00 0.  1.
         22    1    1    2    0    0 -0.37393958065E+03  0.83282639175E+03 -0.48859565059E+03  0.10354498146E+04  0.00000000000E+00 0. -1.
<mgrwt>
<rscale>  0 0.21811806E+04</rscale>
<asrwt>0</asrwt>
<pdfrwt beam="1">  1        1 0.15204418E+00 0.21811806E+04</pdfrwt>
<pdfrwt beam="2">  1       -1 0.18515130E+00 0.21811806E+04</pdfrwt>
<totfact> 0.26984676E+00</totfact>
</mgrwt>
</event>
<event>
 6    1  0.8968082E-007  0.2358870E+04  0.7818608E-02  0.8455065E-01
          1   -1    0    0  501    0  0.00000000000E+00  0.00000000000E+00  0.73166008567E+03  0.73166008567E+03  0.00000000000E+00 0. -1.
         -1   -1    0    0    0  501 -0.00000000000E+00 -0.00000000000E+00 -0.19012474843E+04  0.19012474843E+04  0.00000000000E+00 0.  1.
         23    2    1    2    0    0 -0.80359406376E+03  0.85845819956E+03 -0.51215104282E+03  0.12857117929E+04  0.89678448398E+02 0.  0.
         11    1    3    3    0    0 -0.26283785707E+03  0.26840526500E+03 -0.20877466948E+03  0.42978132580E+03  0.00000000000E+00 0.  1.
        -11    1    3    3    0    0 -0.54075620669E+03  0.59005293456E+03 -0.30337637334E+03  0.85593046713E+03  0.00000000000E+00 0. -1.
         22    1    1    2    0    0  0.80359406376E+03 -0.85845819956E+03 -0.65743635578E+03  0.13471957770E+04  0.00000000000E+00 0.  1.
<mgrwt>
<rscale>  0 0.23588700E+04</rscale>
<asrwt>0</asrwt>
<pdfrwt beam="1">  1        1 0.11256309E+00 0.23588700E+04</pdfrwt>
<pdfrwt beam="2">  1       -1 0.29249961E+00 0.23588700E+04</pdfrwt>
<totfact> 0.84567129E-01</totfact>
</mgrwt>
</event>
<event>
 6    1  0.8968082E-007  0.2779264E+04  0.7818608E-02  0.8309735E-01
         -2   -1    0    0    0  501 -0.00000000000E+00  0.00000000000E+00  0.10612788102E+04  0.10612788102E+04  0.00000000000E+00 0.  1.
          2   -1    0    0  501    0  0.00000000000E+00 -0.00000000000E+00 -0.18195755350E+04  0.18195755350E+04  0.00000000000E+00 0. -1.
         23    2    1    2    0    0 -0.45156802683E+03 -0.71991010465E+03  0.75797468928E+03  0.11426762062E+04  0.94863274804E+02 0.  0.
         11    1    3    3    0    0 -0.20596314803E+03 -0.24473328861E+03  0.26840265263E+03  0.41755860049E+03  0.00000000000E+00 0. -1.
        -11    1    3    3    0    0 -0.24560487880E+03 -0.47517681604E+03  0.48957203665E+03  0.72511760568E+03  0.00000000000E+00 0.  1.
         22    1    1    2    0    0  0.45156802683E+03  0.71991010465E+03 -0.15162714141E+04  0.17381781390E+04  0.00000000000E+00 0. -1.
<mgrwt>
<rscale>  0 0.27792639E+04</rscale>
<asrwt>0</asrwt>
<pdfrwt beam="1">  1        2 0.27993470E+00 0.27792639E+04</pdfrwt>
<pdfrwt beam="2">  1       -2 0.16327366E+00 0.27792639E+04</pdfrwt>
<totfact> 0.17483456E+00</totfact>
</mgrwt>
</event>
<event>
 6    1  0.8968082E-007  0.2416452E+04  0.7818608E-02  0.8433370E-01
          1   -1    0    0  501    0  0.00000000000E+00  0.00000000000E+00  0.34686190011E+04  0.34686190011E+04  0.00000000000E+00 0. -1.
         -1   -1    0    0    0  501 -0.00000000000E+00 -0.00000000000E+00 -0.42086212405E+03  0.42086212405E+03  0.00000000000E+00 0.  1.
         23    2    1    2    0    0  0.13109590168E+03 -0.11992085469E+04  0.15613718191E+04  0.19751593615E+04  0.89918137444E+02 0.  0.
         11    1    3    3    0    0  0.13787900669E+03 -0.96902007388E+03  0.12384245165E+04  0.15785137969E+04  0.00000000000E+00 0.  1.
        -11    1    3    3    0    0 -0.67831050079E+01 -0.23018847300E+03  0.32294730263E+03  0.39664556457E+03  0.00000000000E+00 0. -1.
         22    1    1    2    0    0 -0.13109590168E+03  0.11992085469E+04  0.14863850580E+04  0.19143217637E+04  0.00000000000E+00 0.  1.
<mgrwt>
<rscale>  0 0.24164522E+04</rscale>
<asrwt>0</asrwt>
<pdfrwt beam="1">  1        1 0.53363367E+00 0.24164522E+04</pdfrwt>
<pdfrwt beam="2">  1       -1 0.64748022E-01 0.24164522E+04</pdfrwt>
<totfact> 0.57320558E-01</totfact>
</mgrwt>
</event>
<event>
 6    1  0.8968082E-007  0.1743866E+04  0.7818608E-02  0.8736734E-01
          2   -1    0    0  501    0  0.00000000000E+00  0.00000000000E+00  0.18181614157E+04  0.18181614157E+04  0.00000000000E+00 0. -1.
         -2   -1    0    0    0  501 -0.00000000000E+00 -0.00000000000E+00 -0.41815146713E+03  0.41815146713E+03  0.00000000000E+00 0.  1.
         23    2    1    2    0    0  0.72480993000E+03  0.47977088920E+03  0.73310527664E+03  0.11407347787E+04  0.91120513641E+02 0.  0.
         13    1    3    3    0    0  0.35351117415E+03  0.18798568979E+03  0.30477833491E+03  0.50318843712E+03  0.00000000000E+00 0. -1.
        -13    1    3    3    0    0  0.37129875585E+03  0.29178519941E+03  0.42832694172E+03  0.63754634161E+03  0.00000000000E+00 0.  1.
         22    1    1    2    0    0 -0.72480993000E+03 -0.47977088920E+03  0.66690467195E+03  0.10955781041E+04  0.00000000000E+00 0.  1.
<mgrwt>
<rscale>  0 0.17438657E+04</rscale>
<asrwt>0</asrwt>
<pdfrwt beam="1">  1        2 0.27971714E+00 0.17438657E+04</pdfrwt>
<pdfrwt beam="2">  1       -2 0.64330996E-01 0.17438657E+04</pdfrwt>
<totfact> 0.17844663E+01</totfact>
</mgrwt>
</event>
<event>
 6    1  0.8968082E-007  0.2536808E+04  0.7818608E-02  0.8389989E-01
          2   -1    0    0  501    0  0.00000000000E+00  0.00000000000E+00  0.26484091084E+04  0.26484091084E+04  0.00000000000E+00 0. -1.
         -2   -1    0    0    0  501 -0.00000000000E+00 -0.00000000000E+00 -0.60747729622E+03  0.60747729622E+03  0.00000000000E+00 0.  1.
         23    2    1    2    0    0 -0.35876096699E+03  0.85841593215E+03  0.21251113967E+04  0.23217164274E+04  0.93173905553E+02 0.  0.
         13    1    3    3    0    0 -0.16189089986E+03  0.45589202504E+03  0.10078191397E+04  0.11179202209E+04  0.00000000000E+00 0. -1.
        -13    1    3    3    0    0 -0.19687006713E+03  0.40252390711E+03  0.11172922571E+04  0.12037962065E+04  0.00000000000E+00 0.  1.
         22    1    1    2    0    0  0.35876096699E+03 -0.85841593215E+03 -0.84179584510E+02  0.93416997728E+03  0.00000000000E+00 0.  1.
<mgrwt>
<rscale>  0 0.25368078E+04</rscale>
<asrwt>0</asrwt>
<pdfrwt beam="1">  1        2 0.40744755E+00 0.25368078E+04</pdfrwt>
<pdfrwt beam="2">  1       -2 0.93458047E-01 0.25368078E+04</pdfrwt>
<totfact> 0.24531024E+00</totfact>
</mgrwt>
</event>
<event>
 6    1  0.8968082E-007  0.1137776E+04  0.7818608E-02  0.9169136E-01
          1   -1    0    0  501    0  0.00000000000E+00  0.00000000000E+00  0.90776741111E+03  0.90776741111E+03  0.00000000000E+00 0. -1.
         -1   -1    0    0    0  501 -0.00000000000E+00 -0.00000000000E+00 -0.35651569990E+03  0.35651569990E+03  0.00000000000E+00 0.  1.
         23    2    1    2    0    0 -0.84853733081E+02 -0.34042829757E+03  0.76974850789E+03  0.85096430916E+03  0.92389979255E+02 0.  0.
         11    1    3    3    0    0 -0.65020122808E+02 -0.10106880113E+03  0.21186270330E+03  0.24357406262E+03  0.00000000000E+00 0. -1.
        -11    1    3    3    0    0 -0.19833610272E+02 -0.23935949644E+03  0.55788580458E+03  0.60739024654E+03  0.00000000000E+00 0.  1.
         22    1    1    2    0    0  0.84853733081E+02  0.34042829757E+03 -0.21849679668E+03  0.41331880185E+03  0.00000000000E+00 0.  1.
<mgrwt>
<rscale>  0 0.11377756E+04</rscale>
<asrwt>0</asrwt>
<pdfrwt beam="1">  1        1 0.13965652E+00 0.11377756E+04</pdfrwt>
<pdfrwt beam="2">  1       -1 0.54848570E-01 0.11377756E+04</pdfrwt>
<totfact> 0.59863477E+01</totfact>
</mgrwt>
</event>
<event>
 6    1  0.8968082E-007  0.2927671E+04  0.7818608E-02  0.8264692E-01
          2   -1    0    0  501    0  0.00000000000E+00  0.00000000000E+00  0.82772681722E+03  0.82772681722E+03  0.00000000000E+00 0. -1.
         -2   -1    0    0    0  501 -0.00000000000E+00 -0.00000000000E+00 -0.25887937782E+04  0.25887937782E+04  0.00000000000E+00 0.  1.
         23    2    1    2    0    0 -0.22118308260E+02  0.50665830988E+03 -0.24820877952E+04  0.25350088791E+04  0.91204889891E+02 0.  0.
         11    1    3    3    0    0 -0.52398637104E+02  0.30155033211E+03 -0.15840664284E+04  0.16133643945E+04  0.00000000000E+00 0. -1.
        -11    1    3    3    0    0  0.30280328843E+02  0.20510797777E+03 -0.89802136676E+03  0.92164448461E+03  0.00000000000E+00 0.  1.
         22    1    1    2    0    0  0.22118308260E+02 -0.50665830988E+03  0.72102083420E+03  0.88151171625E+03  0.00000000000E+00 0. -1.
<mgrwt>
<rscale>  0 0.29276708E+04</rscale>
<asrwt>0</asrwt>
<pdfrwt beam="1">  1        2 0.12734259E+00 0.29276708E+04</pdfrwt>
<pdfrwt beam="2">  1       -2 0.39827596E+00 0.29276708E+04</pdfrwt>
<totfact> 0.21571904E-01</totfact>
</mgrwt>
</event>
<event>
 6    1  0.8968082E-007  0.1134488E+04  0.7818608E-02  0.9172214E-01
          2   -1    0    0  501    0  0.00000000000E+00  0.00000000000E+00  0.55780941778E+03  0.55780941778E+03  0.00000000000E+00 0. -1.
         -2   -1    0    0    0  501 -0.00000000000E+00 -0.00000000000E+00 -0.57683840337E+03  0.57683840337E+03  0.00000000000E+00 0.  1.
         23    2    1    2    0    0 -0.28211822999E+03 -0.35477172741E+03  0.32537790266E+03  0.56537655108E+03  0.91247962786E+02 0.  0.
         11    1    3    3    0    0 -0.21625742655E+03 -0.22628044841E+03  0.25988722115E+03  0.40683102584E+03  0.00000000000E+00 0.  1.
        -11    1    3    3    0    0 -0.65860803434E+02 -0.12849127900E+03  0.65490681507E+02  0.15854552524E+03  0.00000000000E+00 0. -1.
         22    1    1    2    0    0  0.28211822999E+03  0.35477172741E+03 -0.34440688824E+03  0.56927127007E+03  0.00000000000E+00 0.  1.
<mgrwt>
<rscale>  0 0.11344882E+04</rscale>
<asrwt>0</asrwt>
<pdfrwt beam="1">  1        2 0.85816834E-01 0.11344882E+04</pdfrwt>
<pdfrwt beam="2">  1       -2 0.88744369E-01 0.11344882E+04</pdfrwt>
<totfact> 0.58581434E+01</totfact>
</mgrwt>
</event>
<event>
 6    1  0.8968082E-007  0.3482806E+04  0.7818608E-02  0.8117877E-01
          2   -1    0    0  501    0  0.00000000000E+00  0.00000000000E+00  0.10087699120E+04  0.10087699120E+04  0.00000000000E+00 0. -1.
         -2   -1    0    0    0  501 -0.00000000000E+00 -0.00000000000E+00 -0.30061203123E+04  0.30061203123E+04  0.00000000000E+00 0.  1.
         23    2    1    2    0    0  0.84937241236E+03 -0.14860309018E+04 -0.13616699240E+04  0.21890175552E+04  0.89059187799E+02 0.  0.
         13    1    3    3    0    0  0.45606851280E+03 -0.77278080616E+03 -0.76821815318E+03  0.11812484047E+04  0.00000000000E+00 0. -1.
        -13    1    3    3    0    0  0.39330389956E+03 -0.71325009567E+03 -0.59345177078E+03  0.10077691505E+04  0.00000000000E+00 0.  1.
         22    1    1    2    0    0 -0.84937241236E+03  0.14860309018E+04 -0.63568047634E+03  0.18258726692E+04  0.00000000000E+00 0. -1.
<mgrwt>
<rscale>  0 0.34828056E+04</rscale>
<asrwt>0</asrwt>
<pdfrwt beam="1">  1        2 0.15519537E+00 0.34828056E+04</pdfrwt>
<pdfrwt beam="2">  1       -2 0.46248005E+00 0.34828056E+04</pdfrwt>
<totfact> 0.58688556E-02</totfact>
</mgrwt>
</event>
<event>
 6    1  0.8968082E-007  0.2198453E+04  0.7818608E-02  0.8519072E-01
         -2   -1    0    0    0  501 -0.00000000000E+00  0.00000000000E+00  0.54128093861E+03  0.54128093861E+03  0.00000000000E+00 0.  1.
          2   -1    0    0  501    0  0.00000000000E+00 -0.00000000000E+00 -0.22322958501E+04  0.22322958501E+04  0.00000000000E+00 0. -1.
         23    2    1    2    0    0 -0.63655945637E+03  0.74907897291E+03 -0.14621257718E+04  0.17642614329E+04  0.92083560421E+02 0.  0.
         13    1    3    3    0    0 -0.38946468940E+03  0.39759051241E+03 -0.78345291226E+03  0.96101999228E+03  0.00000000000E+00 0.  1.
        -13    1    3    3    0    0 -0.24709476696E+03  0.35148846050E+03 -0.67867285951E+03  0.80324144064E+03  0.00000000000E+00 0. -1.
         22    1    1    2    0    0  0.63655945637E+03 -0.74907897291E+03 -0.22888913973E+03  0.10093153558E+04  0.00000000000E+00 0.  1.
<mgrwt>
<rscale>  0 0.21984533E+04</rscale>
<asrwt>0</asrwt>
<pdfrwt beam="1">  1        2 0.34343014E+00 0.21984533E+04</pdfrwt>
<pdfrwt beam="2">  1       -2 0.83273989E-01 0.21984533E+04</pdfrwt>
<totfact> 0.57142339E+00</totfact>
</mgrwt>
</event>
<event>
 6    1  0.8968082E-007  0.3578380E+04  0.7818608E-02  0.8095462E-01
          1   -1    0    0  501    0  0.00000000000E+00  0.00000000000E+00  0.23294932529E+04  0.23294932529E+04  0.00000000000E+00 0. -1.
         -1   -1    0    0    0  501 -0.00000000000E+00 -0.00000000000E+00 -0.13742050998E+04  0.13742050998E+04  0.00000000000E+00 0.  1.
         23    2    1    2    0    0 -0.12548515177E+04  0.11886775518E+04  0.49624155705E+01  0.17312061065E+04  0.97176664419E+02 0.  0.
         13    1    3    3    0    0 -0.71575565431E+03  0.74089923806E+03 -0.10853188494E+02  0.10302211555E+04  0.00000000000E+00 0.  1.
        -13    1    3    3    0    0 -0.53909586339E+03  0.44777831374E+03  0.15815604064E+02  0.70098495099E+03  0.00000000000E+00 0. -1.
         22    1    1    2    0    0  0.12548515177E+04 -0.11886775518E+04  0.95032573749E+03  0.19724922461E+04  0.00000000000E+00 0. -1.
<mgrwt>
<rscale>  0 0.35783804E+04</rscale>
<asrwt>0</asrwt>
<pdfrwt beam="1">  1        1 0.35838358E+00 0.35783804E+04</pdfrwt>
<pdfrwt beam="2">  1       -1 0.21141617E+00 0.35783804E+04</pdfrwt>
<totfact> 0.18105007E-01</totfact>
</mgrwt>
</event>
<event>
 6    1  0.8968082E-007  0.6856614E+03  0.7818608E-02  0.9742072E-01
          2   -1    0    0  501    0  0.00000000000E+00  0.00000000000E+00  0.17464602106E+03  0.17464602106E+03  0.00000000000E+00 0. -1.
         -2   -1    0    0    0  501 -0.00000000000E+00 -0.00000000000E+00 -0.67297785863E+03  0.67297785863E+03  0.00000000000E+00 0.  1.
         23    2    1    2    0    0  0.18988758482E+03  0.24274796084E+03 -0.85453862270E+02  0.33240345128E+03  0.90586005991E+02 0.  0.
         11    1    3    3    0    0  0.58320015076E+02  0.18848900817E+02 -0.11227638688E+02  0.62310232634E+02  0.00000000000E+00 0. -1.
        -11    1    3    3    0    0  0.13156756974E+03  0.22389906003E+03 -0.74226223583E+02  0.27009321864E+03  0.00000000000E+00 0.  1.
         22    1    1    2    0    0 -0.18988758482E+03 -0.24274796084E+03 -0.41287797531E+03  0.51522042841E+03  0.00000000000E+00 0.  1.
<mgrwt>
<rscale>  0 0.68566145E+03</rscale>
<asrwt>0</asrwt>
<pdfrwt beam="1">  1        2 0.26868619E-01 0.68566145E+03</pdfrwt>
<pdfrwt beam="2">  1       -2 0.10353505E+00 0.68566145E+03</pdfrwt>
<totfact> 0.15504687E+02</totfact>
</mgrwt>
</event>
<event>
 6    1  0.8968082E-007  0.7696145E+03  0.7818608E-02  0.9605071E-01
          2   -1    0    0  501    0  0.00000000000E+00  0.00000000000E+00  0.94507943866E+03  0.94507943866E+03  0.00000000000E+00 0. -1.
         -2   -1    0    0    0  501 -0.00000000000E+00 -0.00000000000E+00 -0.15668167402E+03  0.15668167402E+03  0.00000000000E+00 0.  1.
         23    2    1    2    0    0  0.15654844016E+03 -0.27365633205E+03  0.98770884968E+02  0.34348646893E+03  0.93979063797E+02 0.  0.
         13    1    3    3    0    0  0.19500069546E+02 -0.10566057890E+03  0.60567518433E+02  0.12334032161E+03  0.00000000000E+00 0. -1.
        -13    1    3    3    0    0  0.13704837061E+03 -0.16799575314E+03  0.38203366536E+02  0.22014614731E+03  0.00000000000E+00 0.  1.
         22    1    1    2    0    0 -0.15654844016E+03  0.27365633205E+03  0.68962687967E+03  0.75827464375E+03  0.00000000000E+00 0. -1.
<mgrwt>
<rscale>  0 0.76961452E+03</rscale>
<asrwt>0</asrwt>
<pdfrwt beam="1">  1        2 0.14539683E+00 0.76961452E+03</pdfrwt>
<pdfrwt beam="2">  1       -2 0.24104874E-01 0.76961452E+03</pdfrwt>
<totfact> 0.42100065E+02</totfact>
</mgrwt>
</event>
<event>
 6    1  0.8968082E-007  0.3030941E+04  0.7818608E-02  0.8234950E-01
         -1   -1    0    0    0  501 -0.00000000000E+00  0.00000000000E+00  0.19880537323E+04  0.19880537323E+04  0.00000000000E+00 0.  1.
          1   -1    0    0  501    0  0.00000000000E+00 -0.00000000000E+00 -0.11552257918E+04  0.11552257918E+04  0.00000000000E+00 0. -1.
         23    2    1    2    0    0  0.74463806549E+03  0.11056498320E+04 -0.32932685914E+03  0.13747911362E+04  0.68169557467E+02 0.  0.
         11    1    3    3    0    0  0.36525586052E+03  0.48608919355E+03 -0.16329574860E+03  0.62957132181E+03  0.00000000000E+00 0. -1.
        -11    1    3    3    0    0  0.37938220497E+03  0.61956063841E+03 -0.16603111053E+03  0.74521981441E+03  0.00000000000E+00 0.  1.
         22    1    1    2    0    0 -0.74463806549E+03 -0.11056498320E+04  0.11621547997E+04  0.17684883878E+04  0.00000000000E+00 0.  1.
<mgrwt>
<rscale>  0 0.30309411E+04</rscale>
<asrwt>0</asrwt>
<pdfrwt beam="1">  1        1 0.17772704E+00 0.30309411E+04</pdfrwt>
<pdfrwt beam="2">  1       -1 0.30585442E+00 0.30309411E+04</pdfrwt>
<totfact> 0.29605577E-01</totfact>
</mgrwt>
</event>
<event>
 6    1  0.8968082E-007  0.8964480E+03  0.7818608E-02  0.9430033E-01
         -1   -1    0    0    0  501 -0.00000000000E+00  0.00000000000E+00  0.60965104106E+03  0.60965104106E+03  0.00000000000E+00 0.  1.
          1   -1    0    0  501    0  0.00000000000E+00 -0.00000000000E+00 -0.32954054071E+03  0.32954054071E+03  0.00000000000E+00 0. -1.
         23    2    1    2    0    0 -0.49091567143E+02  0.18360963205E+03  0.56137476735E+03  0.59973309117E+03  0.91736973360E+02 0.  0.
         11    1    3    3    0    0 -0.64979633143E+02  0.15293274928E+03  0.37474039630E+03  0.40992821706E+03  0.00000000000E+00 0.  1.
        -11    1    3    3    0    0  0.15888066000E+02  0.30676882775E+02  0.18663437105E+03  0.18980487411E+03  0.00000000000E+00 0. -1.
         22    1    1    2    0    0  0.49091567143E+02 -0.18360963205E+03 -0.28126426700E+03  0.33945849059E+03  0.00000000000E+00 0. -1.
<mgrwt>
<rscale>  0 0.89644795E+03</rscale>
<asrwt>0</asrwt>
<pdfrwt beam="1">  1        1 0.50698545E-01 0.89644795E+03</pdfrwt>
<pdfrwt beam="2">  1       -1 0.93792468E-01 0.89644795E+03</pdfrwt>
<totfact> 0.86172067E+01</totfact>
</mgrwt>
</event>
<event>
 6    1  0.8968082E-007  0.2249447E+04  0.7818608E-02  0.8498124E-01
         -2   -1    0    0    0  501 -0.00000000000E+00  0.00000000000E+00  0.14911813963E+04  0.14911813963E+04  0.00000000000E+00 0.  1.
          2   -1    0    0  501    0  0.00000000000E+00 -0.00000000000E+00 -0.84832286637E+03  0.84832286637E+03  0.00000000000E+00 0. -1.
         23    2    1    2    0    0  0.75058410297E+03 -0.83114830604E+03  0.40705141752E+03  0.11950441295E+04  0.90860402031E+02 0.  0.
         11    1    3    3    0    0  0.56020172133E+02 -0.57747575275E+02  0.53795928783E+01  0.80634869353E+02  0.00000000000E+00 0. -1.
        -11    1    3    3    0    0  0.69456393083E+03 -0.77340073076E+03  0.40167182464E+03  0.11144092601E+04  0.00000000000E+00 0.  1.
         22    1    1    2    0    0 -0.75058410297E+03  0.83114830604E+03  0.23580711245E+03  0.11444601332E+04  0.00000000000E+00 0.  1.
<mgrwt>
<rscale>  0 0.22494473E+04</rscale>
<asrwt>0</asrwt>
<pdfrwt beam="1">  1        2 0.13051121E+00 0.22494473E+04</pdfrwt>
<pdfrwt beam="2">  1       -2 0.22941252E+00 0.22494473E+04</pdfrwt>
<totfact> 0.24973627E+00</totfact>
</mgrwt>
</event>
<event>
 6    1  0.8968082E-007  0.6791335E+03  0.7818608E-02  0.9753597E-01
         -2   -1    0    0    0  501 -0.00000000000E+00  0.00000000000E+00  0.72509113748E+02  0.72509113748E+02  0.00000000000E+00 0.  1.
          2   -1    0    0  501    0  0.00000000000E+00 -0.00000000000E+00 -0.15902218584E+04  0.15902218584E+04  0.00000000000E+00 0. -1.
         23    2    1    2    0    0  0.30804942127E+03  0.12634458152E+03 -0.82403265085E+03  0.89328346143E+03  0.89822789827E+02 0.  0.
         11    1    3    3    0    0  0.15545670872E+03  0.56331653159E+02 -0.52404547640E+03  0.54951224260E+03  0.00000000000E+00 0. -1.
        -11    1    3    3    0    0  0.15259271254E+03  0.70012928359E+02 -0.29998717446E+03  0.34377121883E+03  0.00000000000E+00 0.  1.
         22    1    1    2    0    0 -0.30804942127E+03 -0.12634458152E+03 -0.69368009382E+03  0.76944751074E+03  0.00000000000E+00 0.  1.
<mgrwt>
<rscale>  0 0.67913350E+03</rscale>
<asrwt>0</asrwt>
<pdfrwt beam="1">  1        2 0.24464948E+00 0.67913350E+03</pdfrwt>
<pdfrwt beam="2">  1       -2 0.11155250E-01 0.67913350E+03</pdfrwt>
<totfact> 0.65988123E+02</totfact>
</mgrwt>
</event>
<event>
 6    1  0.8968082E-007  0.2440423E+04  0.7818608E-02  0.8424523E-01
          1   -1    0    0  501    0  0.00000000000E+00  0.00000000000E+00  0.11079293850E+04  0.11079293850E+04  0.00000000000E+00 0. -1.
         -1   -1    0    0    0  501 -0.00000000000E+00 -0.00000000000E+00 -0.13438732596E+04  0.13438732596E+04  0.00000000000E+00 0.  1.
         23    2    1    2    0    0 -0.16530979248E+03 -0.39092599039E+03 -0.12656106912E+04  0.13380862486E+04  0.92487455352E+02 0.  0.
         11    1    3    3    0    0 -0.13319668415E+03 -0.27263287479E+03 -0.77215105033E+03  0.82963081284E+03  0.00000000000E+00 0. -1.
        -11    1    3    3    0    0 -0.32113108332E+02 -0.11829311560E+03 -0.49345964092E+03  0.50845543575E+03  0.00000000000E+00 0.  1.
         22    1    1    2    0    0  0.16530979248E+03  0.39092599039E+03  0.10296668167E+04  0.11137163960E+04  0.00000000000E+00 0. -1.
<mgrwt>
<rscale>  0 0.24404235E+04</rscale>
<asrwt>0</asrwt>
<pdfrwt beam="1">  1        1 0.17045067E+00 0.24404235E+04</pdfrwt>
<pdfrwt beam="2">  1       -1 0.20674973E+00 0.24404235E+04</pdfrwt>
<totfact> 0.15106896E+00</totfact>
</mgrwt>
</event>
<event>
 6    1  0.8968082E-007  0.3424026E+04  0.7818608E-02  0.8132035E-01
         -2   -1    0    0    0  501 -0.00000000000E+00  0.00000000000E+00  0.10306720087E+04  0.10306720087E+04  0.00000000000E+00 0.  1.
          2   -1    0    0  501    0  0.00000000000E+00 -0.00000000000E+00 -0.28437647097E+04  0.28437647097E+04  0.00000000000E+00 0. -1.
         23    2    1    2    0    0 -0.22524507658E+03  0.16781710070E+04 -0.63024029444E+03  0.18089747630E+04  0.90518455994E+02 0.  0.
         13    1    3    3    0    0 -0.21010470226E+03  0.13043125481E+04 -0.50622989891E+03  0.14147946564E+04  0.00000000000E+00 0. -1.
        -13    1    3    3    0    0 -0.15140374318E+02  0.37385845890E+03 -0.12401039553E+03  0.39418010658E+03  0.00000000000E+00 0.  1.
         22    1    1    2    0    0  0.22524507658E+03 -0.16781710070E+04 -0.11828524066E+04  0.20654619554E+04  0.00000000000E+00 0.  1.
<mgrwt>
<rscale>  0 0.34240261E+04</rscale>
<asrwt>0</asrwt>
<pdfrwt beam="1">  1        2 0.43750226E+00 0.34240261E+04</pdfrwt>
<pdfrwt beam="2">  1       -2 0.15856493E+00 0.34240261E+04</pdfrwt>
<totfact> 0.46400103E-01</totfact>
</mgrwt>
</event>
<event>
 6    1  0.8968082E-007  0.1630746E+04  0.7818608E-02  0.8801879E-01
         -1   -1    0    0    0  501 -0.00000000000E+00  0.00000000000E+00  0.30661273045E+03  0.30661273045E+03  0.00000000000E+00 0.  1.
          1   -1    0    0  501    0  0.00000000000E+00 -0.00000000000E+00 -0.21683160913E+04  0.21683160913E+04  0.00000000000E+00 0. -1.
         23    2    1    2    0    0 -0.16559876172E+02 -0.77835402837E+03 -0.12875878331E+04  0.15076037150E+04  0.94219480507E+02 0.  0.
         13    1    3    3    0    0  0.23880943353E+02 -0.62133521569E+03 -0.10371462611E+04  0.12092560178E+04  0.00000000000E+00 0.  1.
        -13    1    3    3    0    0 -0.40440819526E+02 -0.15701881268E+03 -0.25044157202E+03  0.29834769718E+03  0.00000000000E+00 0. -1.
         22    1    1    2    0    0  0.16559876172E+02  0.77835402837E+03 -0.57411552775E+03  0.96732510676E+03  0.00000000000E+00 0.  1.
<mgrwt>
<rscale>  0 0.16307462E+04</rscale>
<asrwt>0</asrwt>
<pdfrwt beam="1">  1        1 0.33358709E+00 0.16307462E+04</pdfrwt>
<pdfrwt beam="2">  1       -1 0.47171189E-01 0.16307462E+04</pdfrwt>
<totfact> 0.98308025E+00</totfact>
</mgrwt>
</event>
<event>
 6    1  0.8968082E-007  0.1092803E+04  0.7818608E-02  0.9212235E-01
         -2   -1    0    0    0  501 -0.00000000000E+00  0.00000000000E+00  0.47757956938E+03  0.47757956938E+03  0.00000000000E+00 0.  1.
          2   -1    0    0  501    0  0.00000000000E+00 -0.00000000000E+00 -0.62514133344E+03  0.62514133344E+03  0.00000000000E+00 0. -1.
         23    2    1    2    0    0 -0.37714312928E+03 -0.32276784492E+03 -0.29541816344E+03  0.58476575368E+03  0.90901450522E+02 0.  0.
         11    1    3    3    0    0 -0.30124843201E+03 -0.20499293596E+03 -0.20659032905E+03  0.41887024916E+03  0.00000000000E+00 0.  1.
        -11    1    3    3    0    0 -0.75894697277E+02 -0.11777490896E+03 -0.88827834396E+02  0.16589550452E+03  0.00000000000E+00 0. -1.
         22    1    1    2    0    0  0.37714312928E+03  0.32276784492E+03  0.14785639938E+03  0.51795514914E+03  0.00000000000E+00 0.  1.
<mgrwt>
<rscale>  0 0.10928032E+04</rscale>
<asrwt>0</asrwt>
<pdfrwt beam="1">  1        2 0.96175590E-01 0.10928032E+04</pdfrwt>
<pdfrwt beam="2">  1       -2 0.73473780E-01 0.10928032E+04</pdfrwt>
<totfact> 0.78361959E+01</totfact>
</mgrwt>
</event>
<event>
 6    1  0.8968082E-007  0.1077790E+04  0.7818608E-02  0.9227114E-01
          2   -1    0    0  501    0  0.00000000000E+00  0.00000000000E+00  0.12379215823E+04  0.12379215823E+04  0.00000000000E+00 0. -1.
         -2   -1    0    0    0  501 -0.00000000000E+00 -0.00000000000E+00 -0.23459296760E+03  0.23459296760E+03  0.00000000000E+00 0.  1.
         23    2    1    2    0    0 -0.16014343297E+03  0.50902099693E+03  0.45879864093E+03  0.71010967926E+03  0.94927705250E+02 0.  0.
         11    1    3    3    0    0 -0.17697523793E+02  0.15176115732E+03  0.17381802315E+03  0.23142462357E+03  0.00000000000E+00 0. -1.
        -11    1    3    3    0    0 -0.14244590917E+03  0.35725983961E+03  0.28498061778E+03  0.47868505570E+03  0.00000000000E+00 0.  1.
         22    1    1    2    0    0  0.16014343297E+03 -0.50902099693E+03  0.54452997375E+03  0.76240487063E+03  0.00000000000E+00 0. -1.
<mgrwt>
<rscale>  0 0.10777898E+04</rscale>
<asrwt>0</asrwt>
<pdfrwt beam="1">  1        2 0.19044947E+00 0.10777898E+04</pdfrwt>
<pdfrwt beam="2">  1       -2 0.36091226E-01 0.10777898E+04</pdfrwt>
<totfact> 0.12897141E+02</totfact>
</mgrwt>
</event>
<event>
 6    1  0.8968082E-007  0.4383594E+04  0.7818608E-02  0.7931339E-01
          1   -1    0    0  501    0  0.00000000000E+00  0.00000000000E+00  0.30822823364E+04  0.30822823364E+04  0.00000000000E+00 0. -1.
         -1   -1    0    0    0  501 -0.00000000000E+00 -0.00000000000E+00 -0.15585767972E+04  0.15585767972E+04  0.00000000000E+00 0.  1.
         23    2    1    2    0    0 -0.31676429601E+01  0.57663784240E+03  0.29999367185E+04  0.30559996036E+04  0.83618341782E+02 0.  0.
         11    1    3    3    0    0 -0.74153541507E+01  0.98528681858E+02  0.37068221908E+03  0.38362507239E+03  0.00000000000E+00 0.  1.
        -11    1    3    3    0    0  0.42477111906E+01  0.47810916054E+03  0.26292544994E+04  0.26723745312E+04  0.00000000000E+00 0. -1.
         22    1    1    2    0    0  0.31676429601E+01 -0.57663784240E+03 -0.14762311793E+04  0.15848595300E+04  0.00000000000E+00 0.  1.
<mgrwt>
<rscale>  0 0.43835938E+04</rscale>
<asrwt>0</asrwt>
<pdfrwt beam="1">  1        1 0.47419728E+00 0.43835938E+04</pdfrwt>
<pdfrwt beam="2">  1       -1 0.23978105E+00 0.43835938E+04</pdfrwt>
<totfact> 0.32078918E-02</totfact>
</mgrwt>
</event>
<event>
 6    1  0.8968082E-007  0.3209407E+04  0.7818608E-02  0.8186337E-01
          2   -1    0    0  501    0  0.00000000000E+00  0.00000000000E+00  0.10198277996E+04  0.10198277996E+04  0.00000000000E+00 0. -1.
         -2   -1    0    0    0  501 -0.00000000000E+00 -0.00000000000E+00 -0.25250079710E+04  0.25250079710E+04  0.00000000000E+00 0.  1.
         23    2    1    2    0    0 -0.44103390244E+03 -0.48345231579E+02 -0.24550487403E+04  0.24964568016E+04  0.90465908161E+02 0.  0.
         13    1    3    3    0    0 -0.39900617704E+03 -0.70382175233E+02 -0.21750490250E+04  0.22124642011E+04  0.00000000000E+00 0.  1.
        -13    1    3    3    0    0 -0.42027725395E+02  0.22036943654E+02 -0.27999971524E+03  0.28399260047E+03  0.00000000000E+00 0. -1.
         22    1    1    2    0    0  0.44103390244E+03  0.48345231579E+02  0.94986856893E+03  0.10483789691E+04  0.00000000000E+00 0. -1.
<mgrwt>
<rscale>  0 0.32094070E+04</rscale>
<asrwt>0</asrwt>
<pdfrwt beam="1">  1        2 0.15689659E+00 0.32094070E+04</pdfrwt>
<pdfrwt beam="2">  1       -2 0.38846276E+00 0.32094070E+04</pdfrwt>
<totfact> 0.18151554E-01</totfact>
</mgrwt>
</event>
<event>
 6    1  0.8968082E-007  0.8336537E+03  0.7818608E-02  0.9512543E-01
          2   -1    0    0  501    0  0.00000000000E+00  0.00000000000E+00  0.20351793901E+04  0.20351793901E+04  0.00000000000E+00 0. -1.
         -2   -1    0    0    0  501 -0.00000000000E+00 -0.00000000000E+00 -0.85370669752E+02  0.85370669752E+02  0.00000000000E+00 0.  1.
         23    2    1    2    0    0 -0.28661209340E+02  0.19955640422E+03  0.18995874148E+04  0.19127848007E+04  0.98331703080E+02 0.  0.
         11    1    3    3    0    0  0.30328922212E+02  0.12439623096E+03  0.11627626254E+04  0.11697910876E+04  0.00000000000E+00 0. -1.
        -11    1    3    3    0    0 -0.58990131551E+02  0.75160173258E+02  0.73682478946E+03  0.74299371305E+03  0.00000000000E+00 0.  1.
         22    1    1    2    0    0  0.28661209340E+02 -0.19955640422E+03  0.50221305526E+02  0.20776525916E+03  0.00000000000E+00 0.  1.
<mgrwt>
<rscale>  0 0.83365371E+03</rscale>
<asrwt>0</asrwt>
<pdfrwt beam="1">  1        2 0.31310448E+00 0.83365371E+03</pdfrwt>
<pdfrwt beam="2">  1       -2 0.13133951E-01 0.83365371E+03</pdfrwt>
<totfact> 0.28474325E+02</totfact>
</mgrwt>
</event>
<event>
 6    1  0.9189514E-007  0.3192929E+04  0.7818608E-02  0.8190687E-01
          2   -1    0    0  501    0  0.00000000000E+00  0.00000000000E+00  0.14105262558E+04  0.14105262558E+04  0.00000000000E+00 0. -1.
         -2   -1    0    0    0  501 -0.00000000000E+00 -0.00000000000E+00 -0.18069138632E+04  0.18069138632E+04  0.00000000000E+00 0.  1.
         23    2    1    2    0    0 -0.14666552111E+04  0.61090307989E+03 -0.56303167553E+02  0.15926516689E+04  0.95337351957E+02 0.  0.
         11    1    3    3    0    0 -0.61793821545E+03  0.30710875056E+03 -0.35621466406E+02  0.69096476875E+03  0.00000000000E+00 0. -1.
        -11    1    3    3    0    0 -0.84871699563E+03  0.30379432933E+03 -0.20681701147E+02  0.90168690019E+03  0.00000000000E+00 0.  1.
         22    1    1    2    0    0  0.14666552111E+04 -0.61090307989E+03 -0.34008443991E+03  0.16247884501E+04  0.00000000000E+00 0. -1.
<mgrwt>
<rscale>  0 0.31929293E+04</rscale>
<asrwt>0</asrwt>
<pdfrwt beam="1">  1        2 0.21700404E+00 0.31929293E+04</pdfrwt>
<pdfrwt beam="2">  1       -2 0.27798675E+00 0.31929293E+04</pdfrwt>
<totfact> 0.52087393E-01</totfact>
</mgrwt>
</event>
<event>
 6    1  0.8968082E-007  0.1353943E+04  0.7818608E-02  0.8987849E-01
          2   -1    0    0  501    0  0.00000000000E+00  0.00000000000E+00  0.89549882763E+03  0.89549882763E+03  0.00000000000E+00 0. -1.
         -2   -1    0    0    0  501 -0.00000000000E+00 -0.00000000000E+00 -0.51177081976E+03  0.51177081976E+03  0.00000000000E+00 0.  1.
         23    2    1    2    0    0  0.43068012847E+03 -0.45914578027E+03 -0.57820673006E+02  0.63833177072E+03  0.88453370131E+02 0.  0.
         11    1    3    3    0    0  0.23419347697E+03 -0.22340358481E+03 -0.70227367337E+02  0.33119122797E+03  0.00000000000E+00 0. -1.
        -11    1    3    3    0    0  0.19648665150E+03 -0.23574219546E+03  0.12406694331E+02  0.30714054275E+03  0.00000000000E+00 0.  1.
         22    1    1    2    0    0 -0.43068012847E+03  0.45914578027E+03  0.44154868088E+03  0.76893787667E+03  0.00000000000E+00 0. -1.
<mgrwt>
<rscale>  0 0.13539426E+04</rscale>
<asrwt>0</asrwt>
<pdfrwt beam="1">  1        2 0.13776905E+00 0.13539426E+04</pdfrwt>
<pdfrwt beam="2">  1       -2 0.78733972E-01 0.13539426E+04</pdfrwt>
<totfact> 0.41327007E+01</totfact>
</mgrwt>
</event>
<event>
 6    1  0.8968082E-007  0.1227241E+04  0.7818608E-02  0.9089341E-01
         -2   -1    0    0    0  501 -0.00000000000E+00  0.00000000000E+00  0.23228594703E+03  0.23228594703E+03  0.00000000000E+00 0.  1.
          2   -1    0    0  501    0  0.00000000000E+00 -0.00000000000E+00 -0.16209775234E+04  0.16209775234E+04  0.00000000000E+00 0. -1.
         23    2    1    2    0    0  0.56525097805E+03  0.17689189396E+03 -0.47633554137E+03  0.76551674214E+03  0.91219099898E+02 0.  0.
         13    1    3    3    0    0  0.26639442749E+03  0.50142935643E+02 -0.25856376289E+03  0.37461383380E+03  0.00000000000E+00 0. -1.
        -13    1    3    3    0    0  0.29885655056E+03  0.12674895831E+03 -0.21777177849E+03  0.39090290835E+03  0.00000000000E+00 0.  1.
         22    1    1    2    0    0 -0.56525097805E+03 -0.17689189396E+03 -0.91235603503E+03  0.10877467283E+04  0.00000000000E+00 0. -1.
<mgrwt>
<rscale>  0 0.12272413E+04</rscale>
<asrwt>0</asrwt>
<pdfrwt beam="1">  1        2 0.24938116E+00 0.12272413E+04</pdfrwt>
<pdfrwt beam="2">  1       -2 0.35736300E-01 0.12272413E+04</pdfrwt>
<totfact> 0.78670761E+01</totfact>
</mgrwt>
</event>
<event>
 6    1  0.1006626E-006  0.3861217E+04  0.7818608E-02  0.8033144E-01
         -1   -1    0    0    0  501 -0.00000000000E+00  0.00000000000E+00  0.19181266456E+04  0.19181266456E+04  0.00000000000E+00 0.  1.
          1   -1    0    0  501    0  0.00000000000E+00 -0.00000000000E+00 -0.19431715438E+04  0.19431715438E+04  0.00000000000E+00 0. -1.
         23    2    1    2    0    0  0.13336878538E+04 -0.12709881570E+04 -0.58724978567E+03  0.19351080321E+04  0.75143854071E+02 0.  0.
         13    1    3    3    0    0  0.50123662488E+03 -0.50374134103E+03 -0.19366587341E+03  0.73654596822E+03  0.00000000000E+00 0. -1.
        -13    1    3    3    0    0  0.83245122893E+03 -0.76724681592E+03 -0.39358391226E+03  0.11985620639E+04  0.00000000000E+00 0.  1.
         22    1    1    2    0    0 -0.13336878538E+04  0.12709881570E+04  0.56220488742E+03  0.19261901573E+04  0.00000000000E+00 0. -1.
<mgrwt>
<rscale>  0 0.38612170E+04</rscale>
<asrwt>0</asrwt>
<pdfrwt beam="1">  1        1 0.29894947E+00 0.38612170E+04</pdfrwt>
<pdfrwt beam="2">  1       -1 0.29509641E+00 0.38612170E+04</pdfrwt>
<totfact> 0.91607267E-02</totfact>
</mgrwt>
</event>
<event>
 6    1  0.8968082E-007  0.1855879E+04  0.7818608E-02  0.8677135E-01
         -1   -1    0    0    0  501 -0.00000000000E+00  0.00000000000E+00  0.11716996569E+04  0.11716996569E+04  0.00000000000E+00 0.  1.
          1   -1    0    0  501    0  0.00000000000E+00 -0.00000000000E+00 -0.73489135131E+03  0.73489135131E+03  0.00000000000E+00 0. -1.
         23    2    1    2    0    0  0.92288423285E+03  0.71930950224E+02  0.20903860020E+03  0.95329755517E+03  0.90497090993E+02 0.  0.
         13    1    3    3    0    0  0.32368806055E+03  0.68220989121E+02  0.68029110562E+02  0.33772181420E+03  0.00000000000E+00 0. -1.
        -13    1    3    3    0    0  0.59919617230E+03  0.37099611028E+01  0.14100948964E+03  0.61557574097E+03  0.00000000000E+00 0.  1.
         22    1    1    2    0    0 -0.92288423285E+03 -0.71930950224E+02  0.22776970535E+03  0.95329345299E+03  0.00000000000E+00 0. -1.
<mgrwt>
<rscale>  0 0.18558792E+04</rscale>
<asrwt>0</asrwt>
<pdfrwt beam="1">  1        1 0.11306021E+00 0.18558792E+04</pdfrwt>
<pdfrwt beam="2">  1       -1 0.18026149E+00 0.18558792E+04</pdfrwt>
<totfact> 0.49192801E+00</totfact>
</mgrwt>
</event>
<event>
 6    1  0.8968082E-007  0.2277365E+04  0.7818608E-02  0.8486900E-01
          2   -1    0    0  501    0  0.00000000000E+00  0.00000000000E+00  0.37019151796E+04  0.37019151796E+04  0.00000000000E+00 0. -1.
         -2   -1    0    0    0  501 -0.00000000000E+00 -0.00000000000E+00 -0.35025048236E+03  0.35025048236E+03  0.00000000000E+00 0.  1.
         23    2    1    2    0    0 -0.56867124713E+03 -0.15436354804E+03 -0.51208643688E+02  0.59865121046E+03  0.92443790063E+02 0.  0.
         13    1    3    3    0    0 -0.30228190266E+03 -0.35103150675E+02 -0.35253397509E+02  0.30634846482E+03  0.00000000000E+00 0. -1.
        -13    1    3    3    0    0 -0.26638934447E+03 -0.11926039736E+03 -0.15955246179E+02  0.29230274564E+03  0.00000000000E+00 0.  1.
         22    1    1    2    0    0  0.56867124713E+03  0.15436354804E+03  0.34028733410E+04  0.34535144515E+04  0.00000000000E+00 0. -1.
<mgrwt>
<rscale>  0 0.22773648E+04</rscale>
<asrwt>0</asrwt>
<pdfrwt beam="1">  1        2 0.56952539E+00 0.22773648E+04</pdfrwt>
<pdfrwt beam="2">  1       -2 0.53884692E-01 0.22773648E+04</pdfrwt>
<totfact> 0.17212382E+00</totfact>
</mgrwt>
</event>
<event>
 6    1  0.8968082E-007  0.2391183E+04  0.7818608E-02  0.8442812E-01
         -1   -1    0    0    0  501 -0.00000000000E+00  0.00000000000E+00  0.35335156610E+04  0.35335156610E+04  0.00000000000E+00 0.  1.
          1   -1    0    0  501    0  0.00000000000E+00 -0.00000000000E+00 -0.40453725092E+03  0.40453725092E+03  0.00000000000E+00 0. -1.
         23    2    1    2    0    0  0.12050168354E+03 -0.11488852283E+04  0.10675153715E+04  0.15749854599E+04  0.80822068652E+02 0.  0.
         13    1    3    3    0    0  0.63323248553E+02 -0.51350640003E+03  0.42517751820E+03  0.66968244614E+03  0.00000000000E+00 0.  1.
        -13    1    3    3    0    0  0.57178434986E+02 -0.63537882829E+03  0.64233785335E+03  0.90530301376E+03  0.00000000000E+00 0. -1.
         22    1    1    2    0    0 -0.12050168354E+03  0.11488852283E+04  0.20614630386E+04  0.23630674521E+04  0.00000000000E+00 0.  1.
<mgrwt>
<rscale>  0 0.23911827E+04</rscale>
<asrwt>0</asrwt>
<pdfrwt beam="1">  1        1 0.62236502E-01 0.23911827E+04</pdfrwt>
<pdfrwt beam="2">  1       -1 0.54361778E+00 0.23911827E+04</pdfrwt>
<totfact> 0.42657794E-02</totfact>
</mgrwt>
</event>
<event>
 6    1  0.8968082E-007  0.1205780E+04  0.7818608E-02  0.9107812E-01
          2   -1    0    0  501    0  0.00000000000E+00  0.00000000000E+00  0.15417149608E+04  0.15417149608E+04  0.00000000000E+00 0. -1.
         -2   -1    0    0    0  501 -0.00000000000E+00 -0.00000000000E+00 -0.23576124518E+03  0.23576124518E+03  0.00000000000E+00 0.  1.
         23    2    1    2    0    0  0.26814432611E+03  0.42417204902E+03  0.17325233682E+03  0.53859133629E+03  0.90779670180E+02 0.  0.
         13    1    3    3    0    0  0.20713296515E+03  0.26883327018E+03  0.14618202650E+03  0.36951938688E+03  0.00000000000E+00 0. -1.
        -13    1    3    3    0    0  0.61011360966E+02  0.15533877884E+03  0.27070310322E+02  0.16907194941E+03  0.00000000000E+00 0.  1.
         22    1    1    2    0    0 -0.26814432611E+03 -0.42417204902E+03  0.11327013788E+04  0.12388848697E+04  0.00000000000E+00 0. -1.
<mgrwt>
<rscale>  0 0.12057805E+04</rscale>
<asrwt>0</asrwt>
<pdfrwt beam="1">  1        2 0.23718691E+00 0.12057805E+04</pdfrwt>
<pdfrwt beam="2">  1       -2 0.36270962E-01 0.12057805E+04</pdfrwt>
<totfact> 0.84799842E+01</totfact>
</mgrwt>
</event>
<event>
 6    1  0.1445027E-006  0.2572503E+04  0.7818608E-02  0.8377602E-01
          1   -1    0    0  501    0  0.00000000000E+00  0.00000000000E+00  0.16373268516E+04  0.16373268516E+04  0.00000000000E+00 0. -1.
         -1   -1    0    0    0  501 -0.00000000000E+00 -0.00000000000E+00 -0.10104534382E+04  0.10104534382E+04  0.00000000000E+00 0.  1.
         23    2    1    2    0    0 -0.21656414862E+03 -0.20504382752E+03 -0.97233281156E+03  0.10210032455E+04  0.89852820252E+02 0.  0.
         11    1    3    3    0    0 -0.13621783276E+03 -0.17044193098E+03 -0.59731815650E+03  0.63592038014E+03  0.00000000000E+00 0. -1.
        -11    1    3    3    0    0 -0.80346315853E+02 -0.34601896543E+02 -0.37501465506E+03  0.38508286540E+03  0.00000000000E+00 0.  1.
         22    1    1    2    0    0  0.21656414862E+03  0.20504382752E+03  0.15992062249E+04  0.16267770442E+04  0.00000000000E+00 0. -1.
<mgrwt>
<rscale>  0 0.25725027E+04</rscale>
<asrwt>0</asrwt>
<pdfrwt beam="1">  1        1 0.25189644E+00 0.25725027E+04</pdfrwt>
<pdfrwt beam="2">  1       -1 0.15545438E+00 0.25725027E+04</pdfrwt>
<totfact> 0.14702204E+00</totfact>
</mgrwt>
</event>
<event>
 6    1  0.8968082E-007  0.2033973E+04  0.7818608E-02  0.8590900E-01
         -1   -1    0    0    0  501 -0.00000000000E+00  0.00000000000E+00  0.11384629879E+04  0.11384629879E+04  0.00000000000E+00 0.  1.
          1   -1    0    0  501    0  0.00000000000E+00 -0.00000000000E+00 -0.90847184493E+03  0.90847184493E+03  0.00000000000E+00 0. -1.
         23    2    1    2    0    0 -0.26161992291E+03  0.96390406686E+03  0.29513356231E+03  0.10460354528E+04  0.97623331079E+02 0.  0.
         11    1    3    3    0    0 -0.20552546786E+03  0.57562744141E+03  0.17736204508E+03  0.63643142936E+03  0.00000000000E+00 0.  1.
        -11    1    3    3    0    0 -0.56094455044E+02  0.38827662545E+03  0.11777151723E+03  0.40960402345E+03  0.00000000000E+00 0. -1.
         22    1    1    2    0    0  0.26161992291E+03 -0.96390406686E+03 -0.65142419317E+02  0.10008993800E+04  0.00000000000E+00 0. -1.
<mgrwt>
<rscale>  0 0.20339730E+04</rscale>
<asrwt>0</asrwt>
<pdfrwt beam="1">  1        1 0.13976490E+00 0.20339730E+04</pdfrwt>
<pdfrwt beam="2">  1       -1 0.17514815E+00 0.20339730E+04</pdfrwt>
<totfact> 0.37372176E+00</totfact>
</mgrwt>
</event>
<event>
 6    1  0.8968082E-007  0.4340375E+04  0.7818608E-02  0.7939194E-01
         -1   -1    0    0    0  501 -0.00000000000E+00  0.00000000000E+00  0.25394964009E+04  0.25394964009E+04  0.00000000000E+00 0.  1.
          1   -1    0    0  501    0  0.00000000000E+00 -0.00000000000E+00 -0.18545855966E+04  0.18545855966E+04  0.00000000000E+00 0. -1.
         23    2    1    2    0    0 -0.67372795092E+03  0.11216103345E+04  0.20942119161E+04  0.24710508698E+04  0.91922561439E+02 0.  0.
         11    1    3    3    0    0 -0.17512282079E+03  0.22556330261E+03  0.48845349409E+03  0.56580351867E+03  0.00000000000E+00 0. -1.
        -11    1    3    3    0    0 -0.49860513013E+03  0.89604703193E+03  0.16057584220E+04  0.19052473512E+04  0.00000000000E+00 0.  1.
         22    1    1    2    0    0  0.67372795092E+03 -0.11216103345E+04 -0.14093011118E+04  0.19230311277E+04  0.00000000000E+00 0. -1.
<mgrwt>
<rscale>  0 0.43403748E+04</rscale>
<asrwt>0</asrwt>
<pdfrwt beam="1">  1        1 0.28532086E+00 0.43403748E+04</pdfrwt>
<pdfrwt beam="2">  1       -1 0.39069175E+00 0.43403748E+04</pdfrwt>
<totfact> 0.23567480E-02</totfact>
</mgrwt>
</event>
<event>
 6    1  0.8968082E-007  0.2544322E+04  0.7818608E-02  0.8387363E-01
          2   -1    0    0  501    0  0.00000000000E+00  0.00000000000E+00  0.13465980217E+04  0.13465980217E+04  0.00000000000E+00 0. -1.
         -2   -1    0    0    0  501 -0.00000000000E+00 -0.00000000000E+00 -0.12018391657E+04  0.12018391657E+04  0.00000000000E+00 0.  1.
         23    2    1    2    0    0  0.90705537367E+03 -0.15120838655E+03  0.95049226154E+03  0.13258089742E+04  0.93383455122E+02 0.  0.
         13    1    3    3    0    0  0.35860574585E+03 -0.14524162322E+02  0.38182041384E+03  0.52401895068E+03  0.00000000000E+00 0. -1.
        -13    1    3    3    0    0  0.54844962782E+03 -0.13668422423E+03  0.56867184769E+03  0.80179002349E+03  0.00000000000E+00 0.  1.
         22    1    1    2    0    0 -0.90705537367E+03  0.15120838655E+03 -0.80573340546E+03  0.12226282132E+04  0.00000000000E+00 0.  1.
<mgrwt>
<rscale>  0 0.25443225E+04</rscale>
<asrwt>0</asrwt>
<pdfrwt beam="1">  1        2 0.20716892E+00 0.25443225E+04</pdfrwt>
<pdfrwt beam="2">  1       -2 0.18489833E+00 0.25443225E+04</pdfrwt>
<totfact> 0.23164867E+00</totfact>
</mgrwt>
</event>
<event>
 6    1  0.1260955E-006  0.3744102E+04  0.7818608E-02  0.8058258E-01
         -1   -1    0    0    0  501 -0.00000000000E+00  0.00000000000E+00  0.10765053438E+04  0.10765053438E+04  0.00000000000E+00 0.  1.
          1   -1    0    0  501    0  0.00000000000E+00 -0.00000000000E+00 -0.32555102042E+04  0.32555102042E+04  0.00000000000E+00 0. -1.
         23    2    1    2    0    0 -0.14610642799E+04  0.10088137805E+04 -0.40644754677E+03  0.18231565437E+04  0.79284935617E+02 0.  0.
         11    1    3    3    0    0 -0.34356434696E+03  0.21742745358E+03 -0.63402330118E+02  0.41149849761E+03  0.00000000000E+00 0. -1.
        -11    1    3    3    0    0 -0.11174999329E+04  0.79138632690E+03 -0.34304521666E+03  0.14116580461E+04  0.00000000000E+00 0.  1.
         22    1    1    2    0    0  0.14610642799E+04 -0.10088137805E+04 -0.17725573135E+04  0.25088590043E+04  0.00000000000E+00 0. -1.
<mgrwt>
<rscale>  0 0.37441016E+04</rscale>
<asrwt>0</asrwt>
<pdfrwt beam="1">  1        1 0.50084772E+00 0.37441016E+04</pdfrwt>
<pdfrwt beam="2">  1       -1 0.16561621E+00 0.37441016E+04</pdfrwt>
<totfact> 0.81736399E-02</totfact>
</mgrwt>
</event>
<event>
 6    1  0.8968082E-007  0.3843879E+04  0.7818608E-02  0.8036804E-01
         -2   -1    0    0    0  501 -0.00000000000E+00  0.00000000000E+00  0.11846761713E+04  0.11846761713E+04  0.00000000000E+00 0.  1.
          2   -1    0    0  501    0  0.00000000000E+00 -0.00000000000E+00 -0.31180265367E+04  0.31180265367E+04  0.00000000000E+00 0. -1.
         23    2    1    2    0    0 -0.62227575363E+03  0.18236117862E+03 -0.29911415415E+04  0.30619751452E+04  0.91001953479E+02 0.  0.
         11    1    3    3    0    0 -0.36372262831E+03  0.87170375641E+02 -0.19101843830E+04  0.19464576034E+04  0.00000000000E+00 0.  1.
        -11    1    3    3    0    0 -0.25855312531E+03  0.95190802976E+02 -0.10809571585E+04  0.11155175418E+04  0.00000000000E+00 0. -1.
         22    1    1    2    0    0  0.62227575363E+03 -0.18236117862E+03  0.10577911760E+04  0.12407275628E+04  0.00000000000E+00 0.  1.
<mgrwt>
<rscale>  0 0.38438792E+04</rscale>
<asrwt>0</asrwt>
<pdfrwt beam="1">  1        2 0.47969638E+00 0.38438792E+04</pdfrwt>
<pdfrwt beam="2">  1       -2 0.18225788E+00 0.38438792E+04</pdfrwt>
<totfact> 0.20463693E-01</totfact>
</mgrwt>
</event>
<event>
 6    1  0.8968082E-007  0.2389685E+04  0.7818608E-02  0.8443376E-01
          2   -1    0    0  501    0  0.00000000000E+00  0.00000000000E+00  0.14420613663E+04  0.14420613663E+04  0.00000000000E+00 0. -1.
         -2   -1    0    0    0  501 -0.00000000000E+00 -0.00000000000E+00 -0.99000515930E+03  0.99000515930E+03  0.00000000000E+00 0.  1.
         23    2    1    2    0    0 -0.17336410325E+03  0.10273055412E+04  0.81801177340E+03  0.13278313768E+04  0.92634316831E+02 0.  0.
         11    1    3    3    0    0 -0.39861265150E+02  0.81146898866E+02  0.70059317910E+02  0.11437677947E+03  0.00000000000E+00 0.  1.
        -11    1    3    3    0    0 -0.13350283810E+03  0.94615864233E+03  0.74795245549E+03  0.12134545974E+04  0.00000000000E+00 0. -1.
         22    1    1    2    0    0  0.17336410325E+03 -0.10273055412E+04 -0.36595556637E+03  0.11042351488E+04  0.00000000000E+00 0.  1.
<mgrwt>
<rscale>  0 0.23896847E+04</rscale>
<asrwt>0</asrwt>
<pdfrwt beam="1">  1        2 0.22185560E+00 0.23896847E+04</pdfrwt>
<pdfrwt beam="2">  1       -2 0.15230849E+00 0.23896847E+04</pdfrwt>
<totfact> 0.35456307E+00</totfact>
</mgrwt>
</event>
<event>
 6    1  0.8968082E-007  0.4045529E+04  0.7818608E-02  0.7995424E-01
          2   -1    0    0  501    0  0.00000000000E+00  0.00000000000E+00  0.18133897823E+04  0.18133897823E+04  0.00000000000E+00 0. -1.
         -2   -1    0    0    0  501 -0.00000000000E+00 -0.00000000000E+00 -0.22563138097E+04  0.22563138097E+04  0.00000000000E+00 0.  1.
         23    2    1    2    0    0 -0.18929166925E+04  0.69402196655E+03 -0.37263704349E+03  0.20523438436E+04  0.91960813547E+02 0.  0.
         13    1    3    3    0    0 -0.13109053917E+04  0.47250044825E+03 -0.21488727886E+03  0.14099312616E+04  0.00000000000E+00 0.  1.
        -13    1    3    3    0    0 -0.58201130077E+03  0.22152151831E+03 -0.15774976463E+03  0.64241258202E+03  0.00000000000E+00 0. -1.
         22    1    1    2    0    0  0.18929166925E+04 -0.69402196655E+03 -0.70286983909E+02  0.20173597485E+04  0.00000000000E+00 0.  1.
<mgrwt>
<rscale>  0 0.40455291E+04</rscale>
<asrwt>0</asrwt>
<pdfrwt beam="1">  1        2 0.27898304E+00 0.40455291E+04</pdfrwt>
<pdfrwt beam="2">  1       -2 0.34712520E+00 0.40455291E+04</pdfrwt>
<totfact> 0.10812234E-01</totfact>
</mgrwt>
</event>
<event>
 6    1  0.8968082E-007  0.1867197E+04  0.7818608E-02  0.8671359E-01
         -4   -1    0    0    0  501 -0.00000000000E+00  0.00000000000E+00  0.82002645363E+03  0.82002645363E+03  0.00000000000E+00 0.  1.
          4   -1    0    0  501    0  0.00000000000E+00 -0.00000000000E+00 -0.10629002444E+04  0.10629002444E+04  0.00000000000E+00 0. -1.
         23    2    1    2    0    0  0.26292532955E+03  0.89299391014E+03 -0.15077145970E+03  0.94748525575E+03  0.91806450372E+02 0.  0.
         11    1    3    3    0    0  0.11079045762E+03  0.44234123899E+03 -0.11628061124E+03  0.47059693769E+03  0.00000000000E+00 0. -1.
        -11    1    3    3    0    0  0.15213487193E+03  0.45065267116E+03 -0.34490848454E+02  0.47688831806E+03  0.00000000000E+00 0.  1.
         22    1    1    2    0    0 -0.26292532955E+03 -0.89299391014E+03 -0.92102331037E+02  0.93544144224E+03  0.00000000000E+00 0.  1.
<mgrwt>
<rscale>  0 0.18671972E+04</rscale>
<asrwt>0</asrwt>
<pdfrwt beam="1">  1        4 0.16352311E+00 0.18671972E+04</pdfrwt>
<pdfrwt beam="2">  1       -4 0.12615792E+00 0.18671972E+04</pdfrwt>
<totfact> 0.20666820E-01</totfact>
</mgrwt>
</event>
<event>
 6    1  0.8968082E-007  0.2373262E+04  0.7818608E-02  0.8449582E-01
          2   -1    0    0  501    0  0.00000000000E+00  0.00000000000E+00  0.57058141376E+03  0.57058141376E+03  0.00000000000E+00 0. -1.
         -2   -1    0    0    0  501 -0.00000000000E+00 -0.00000000000E+00 -0.24678207001E+04  0.24678207001E+04  0.00000000000E+00 0.  1.
         23    2    1    2    0    0  0.10805940588E+03  0.62545501977E+03 -0.22308930459E+04  0.23213277465E+04  0.93850451897E+02 0.  0.
         11    1    3    3    0    0  0.42962566078E+02  0.44926039187E+03 -0.16646172421E+04  0.17247119309E+04  0.00000000000E+00 0. -1.
        -11    1    3    3    0    0  0.65096839799E+02  0.17619462791E+03 -0.56627580383E+03  0.59661581563E+03  0.00000000000E+00 0.  1.
         22    1    1    2    0    0 -0.10805940588E+03 -0.62545501977E+03  0.33365375963E+03  0.71707436732E+03  0.00000000000E+00 0. -1.
<mgrwt>
<rscale>  0 0.23732616E+04</rscale>
<asrwt>0</asrwt>
<pdfrwt beam="1">  1        2 0.87781757E-01 0.23732616E+04</pdfrwt>
<pdfrwt beam="2">  1       -2 0.37966472E+00 0.23732616E+04</pdfrwt>
<totfact> 0.47826268E-01</totfact>
</mgrwt>
</event>
<event>
 6    1  0.8968082E-007  0.6153225E+03  0.7818608E-02  0.9874117E-01
          2   -1    0    0  501    0  0.00000000000E+00  0.00000000000E+00  0.17230279909E+04  0.17230279909E+04  0.00000000000E+00 0. -1.
         -2   -1    0    0    0  501 -0.00000000000E+00 -0.00000000000E+00 -0.54935525484E+02  0.54935525484E+02  0.00000000000E+00 0.  1.
         23    2    1    2    0    0  0.50461832435E+02  0.13569741372E+03  0.16145105347E+04  0.16235899179E+04  0.91868220716E+02 0.  0.
         11    1    3    3    0    0  0.55298161328E+02  0.43926122586E+02  0.96907088224E+03  0.97164075959E+03  0.00000000000E+00 0.  1.
        -11    1    3    3    0    0 -0.48363288923E+01  0.91771291134E+02  0.64543965250E+03  0.65194915827E+03  0.00000000000E+00 0. -1.
         22    1    1    2    0    0 -0.50461832435E+02 -0.13569741372E+03  0.53581930664E+02  0.15437359851E+03  0.00000000000E+00 0.  1.
<mgrwt>
<rscale>  0 0.61532251E+03</rscale>
<asrwt>0</asrwt>
<pdfrwt beam="1">  1        2 0.26508119E+00 0.61532251E+03</pdfrwt>
<pdfrwt beam="2">  1       -2 0.84516206E-02 0.61532251E+03</pdfrwt>
<totfact> 0.87865457E+02</totfact>
</mgrwt>
</event>
<event>
 6    1  0.8968082E-007  0.1126298E+04  0.7818608E-02  0.9179932E-01
          2   -1    0    0  501    0  0.00000000000E+00  0.00000000000E+00  0.37785970101E+03  0.37785970101E+03  0.00000000000E+00 0. -1.
         -2   -1    0    0    0  501 -0.00000000000E+00 -0.00000000000E+00 -0.83929847360E+03  0.83929847360E+03  0.00000000000E+00 0.  1.
         23    2    1    2    0    0  0.11369772367E+03  0.33199270600E+03 -0.70302433641E+03  0.79111837148E+03  0.92080024401E+02 0.  0.
         13    1    3    3    0    0  0.10805662839E+03  0.20875525968E+03 -0.51667560382E+03  0.56763427747E+03  0.00000000000E+00 0. -1.
        -13    1    3    3    0    0  0.56410952729E+01  0.12323744632E+03 -0.18634873260E+03  0.22348409400E+03  0.00000000000E+00 0.  1.
         22    1    1    2    0    0 -0.11369772367E+03 -0.33199270600E+03  0.24158556382E+03  0.42603980313E+03  0.00000000000E+00 0. -1.
<mgrwt>
<rscale>  0 0.11262985E+04</rscale>
<asrwt>0</asrwt>
<pdfrwt beam="1">  1        2 0.58132262E-01 0.11262985E+04</pdfrwt>
<pdfrwt beam="2">  1       -2 0.12912284E+00 0.11262985E+04</pdfrwt>
<totfact> 0.37112196E+01</totfact>
</mgrwt>
</event>
<event>
 6    1  0.8968082E-007  0.1168010E+04  0.7818608E-02  0.9141328E-01
          2   -1    0    0  501    0  0.00000000000E+00  0.00000000000E+00  0.14758196527E+04  0.14758196527E+04  0.00000000000E+00 0. -1.
         -2   -1    0    0    0  501 -0.00000000000E+00 -0.00000000000E+00 -0.23109990802E+03  0.23109990802E+03  0.00000000000E+00 0.  1.
         23    2    1    2    0    0 -0.28085826402E+03  0.49212602503E+03  0.80940296652E+03  0.99237768906E+03  0.92795078290E+02 0.  0.
         11    1    3    3    0    0 -0.24330445598E+03  0.37740595622E+03  0.58384625596E+03  0.73655194297E+03  0.00000000000E+00 0.  1.
        -11    1    3    3    0    0 -0.37553808045E+02  0.11472006880E+03  0.22555671056E+03  0.25582574609E+03  0.00000000000E+00 0. -1.
         22    1    1    2    0    0  0.28085826402E+03 -0.49212602503E+03  0.43531677812E+03  0.71454187162E+03  0.00000000000E+00 0.  1.
<mgrwt>
<rscale>  0 0.11680099E+04</rscale>
<asrwt>0</asrwt>
<pdfrwt beam="1">  1        2 0.22704917E+00 0.11680099E+04</pdfrwt>
<pdfrwt beam="2">  1       -2 0.35553833E-01 0.11680099E+04</pdfrwt>
<totfact> 0.96222975E+01</totfact>
</mgrwt>
</event>
<event>
 6    1  0.8968082E-007  0.4843155E+04  0.7818608E-02  0.7853168E-01
         -2   -1    0    0    0  501 -0.00000000000E+00  0.00000000000E+00  0.18369794944E+04  0.18369794944E+04  0.00000000000E+00 0.  1.
          2   -1    0    0  501    0  0.00000000000E+00 -0.00000000000E+00 -0.31922166268E+04  0.31922166268E+04  0.00000000000E+00 0. -1.
         23    2    1    2    0    0  0.97933182657E+03  0.21849071331E+04 -0.10477178395E+04  0.26151791117E+04  0.92407296128E+02 0.  0.
         13    1    3    3    0    0  0.15179009391E+03  0.37397845954E+03 -0.14269590348E+03  0.42809139407E+03  0.00000000000E+00 0. -1.
        -13    1    3    3    0    0  0.82754173265E+03  0.18109286735E+04 -0.90502193599E+03  0.21870877176E+04  0.00000000000E+00 0.  1.
         22    1    1    2    0    0 -0.97933182657E+03 -0.21849071331E+04 -0.30751929296E+03  0.24140170095E+04  0.00000000000E+00 0.  1.
<mgrwt>
<rscale>  0 0.48431545E+04</rscale>
<asrwt>0</asrwt>
<pdfrwt beam="1">  1        2 0.49111024E+00 0.48431545E+04</pdfrwt>
<pdfrwt beam="2">  1       -2 0.28261223E+00 0.48431545E+04</pdfrwt>
<totfact> 0.39224155E-02</totfact>
</mgrwt>
</event>
<event>
 6    1  0.8968082E-007  0.3918289E+04  0.7818608E-02  0.8021236E-01
         -2   -1    0    0    0  501 -0.00000000000E+00  0.00000000000E+00  0.12609270852E+04  0.12609270852E+04  0.00000000000E+00 0.  1.
          2   -1    0    0  501    0  0.00000000000E+00 -0.00000000000E+00 -0.30439876528E+04  0.30439876528E+04  0.00000000000E+00 0. -1.
         23    2    1    2    0    0  0.50946427954E+03 -0.18534768802E+04 -0.13018182204E+04  0.23233687269E+04  0.91548700049E+02 0.  0.
         13    1    3    3    0    0  0.32345588476E+03 -0.12929506041E+04 -0.93670776747E+03  0.16290384942E+04  0.00000000000E+00 0. -1.
        -13    1    3    3    0    0  0.18600839477E+03 -0.56052627616E+03 -0.36511045289E+03  0.69433023267E+03  0.00000000000E+00 0.  1.
         22    1    1    2    0    0 -0.50946427954E+03  0.18534768802E+04 -0.48124234728E+03  0.19815460112E+04  0.00000000000E+00 0.  1.
<mgrwt>
<rscale>  0 0.39182886E+04</rscale>
<asrwt>0</asrwt>
<pdfrwt beam="1">  1        2 0.46830579E+00 0.39182886E+04</pdfrwt>
<pdfrwt beam="2">  1       -2 0.19398878E+00 0.39182886E+04</pdfrwt>
<totfact> 0.18894496E-01</totfact>
</mgrwt>
</event>
<event>
 6    1  0.8968082E-007  0.1689987E+04  0.7818608E-02  0.8767096E-01
          1   -1    0    0  501    0  0.00000000000E+00  0.00000000000E+00  0.14490559894E+04  0.14490559894E+04  0.00000000000E+00 0. -1.
         -1   -1    0    0    0  501 -0.00000000000E+00 -0.00000000000E+00 -0.49274428435E+03  0.49274428435E+03  0.00000000000E+00 0.  1.
         23    2    1    2    0    0 -0.59747407594E+03 -0.43179681800E+03  0.94835041382E+03  0.12045844671E+04  0.90727434808E+02 0.  0.
         11    1    3    3    0    0 -0.13806950568E+03 -0.60645539289E+02  0.22300080139E+03  0.26920331955E+03  0.00000000000E+00 0.  1.
        -11    1    3    3    0    0 -0.45940457025E+03 -0.37115127872E+03  0.72534961243E+03  0.93538114751E+03  0.00000000000E+00 0. -1.
         22    1    1    2    0    0  0.59747407594E+03  0.43179681800E+03  0.79612912109E+01  0.73721580668E+03  0.00000000000E+00 0.  1.
<mgrwt>
<rscale>  0 0.16899870E+04</rscale>
<asrwt>0</asrwt>
<pdfrwt beam="1">  1        1 0.22293169E+00 0.16899870E+04</pdfrwt>
<pdfrwt beam="2">  1       -1 0.75806814E-01 0.16899870E+04</pdfrwt>
<totfact> 0.11818312E+01</totfact>
</mgrwt>
</event>
<event>
 6    1  0.8968082E-007  0.3010385E+04  0.7818608E-02  0.8240772E-01
         -1   -1    0    0    0  501 -0.00000000000E+00  0.00000000000E+00  0.14091797260E+04  0.14091797260E+04  0.00000000000E+00 0.  1.
          1   -1    0    0  501    0  0.00000000000E+00 -0.00000000000E+00 -0.16077468491E+04  0.16077468491E+04  0.00000000000E+00 0. -1.
         23    2    1    2    0    0  0.15799796587E+03  0.11658181264E+04  0.83940333863E+03  0.14480167815E+04  0.89774012949E+02 0.  0.
         11    1    3    3    0    0  0.16412948966E+03  0.98580521053E+03  0.72464926763E+03  0.12344500652E+04  0.00000000000E+00 0. -1.
        -11    1    3    3    0    0 -0.61315237857E+01  0.18001291591E+03  0.11475407101E+03  0.21356671625E+03  0.00000000000E+00 0.  1.
         22    1    1    2    0    0 -0.15799796587E+03 -0.11658181264E+04 -0.10379704617E+04  0.15689097936E+04  0.00000000000E+00 0. -1.
<mgrwt>
<rscale>  0 0.30103849E+04</rscale>
<asrwt>0</asrwt>
<pdfrwt beam="1">  1        1 0.24734567E+00 0.30103849E+04</pdfrwt>
<pdfrwt beam="2">  1       -1 0.21679688E+00 0.30103849E+04</pdfrwt>
<totfact> 0.54204086E-01</totfact>
</mgrwt>
</event>
<event>
 6    1  0.8968082E-007  0.2512778E+04  0.7818608E-02  0.8398447E-01
          1   -1    0    0  501    0  0.00000000000E+00  0.00000000000E+00  0.25683145094E+04  0.25683145094E+04  0.00000000000E+00 0. -1.
         -1   -1    0    0    0  501 -0.00000000000E+00 -0.00000000000E+00 -0.61461083991E+03  0.61461083991E+03  0.00000000000E+00 0.  1.
         23    2    1    2    0    0 -0.11818141451E+04  0.51207800647E+02  0.44883083464E+03  0.12687808507E+04  0.95125267019E+02 0.  0.
         11    1    3    3    0    0 -0.50736895579E+03  0.49609008647E+02  0.15253646500E+03  0.53211999041E+03  0.00000000000E+00 0.  1.
        -11    1    3    3    0    0 -0.67444518935E+03  0.15987920003E+01  0.29629436964E+03  0.73666086027E+03  0.00000000000E+00 0. -1.
         22    1    1    2    0    0  0.11818141451E+04 -0.51207800647E+02  0.15048728348E+04  0.19141444986E+04  0.00000000000E+00 0. -1.
<mgrwt>
<rscale>  0 0.25127785E+04</rscale>
<asrwt>0</asrwt>
<pdfrwt beam="1">  1        1 0.39512530E+00 0.25127785E+04</pdfrwt>
<pdfrwt beam="2">  1       -1 0.94555515E-01 0.25127785E+04</pdfrwt>
<totfact> 0.11656221E+00</totfact>
</mgrwt>
</event>
<event>
 6    1  0.8968082E-007  0.1701695E+04  0.7818608E-02  0.8760398E-01
          2   -1    0    0  501    0  0.00000000000E+00  0.00000000000E+00  0.74322190821E+03  0.74322190821E+03  0.00000000000E+00 0. -1.
         -2   -1    0    0    0  501 -0.00000000000E+00 -0.00000000000E+00 -0.97405779028E+03  0.97405779028E+03  0.00000000000E+00 0.  1.
         23    2    1    2    0    0  0.41403230575E+03 -0.43722906985E+03  0.48716992620E+03  0.78019680439E+03  0.93704358870E+02 0.  0.
         13    1    3    3    0    0  0.23062400355E+03 -0.22159295930E+03  0.31478500129E+03  0.44875435113E+03  0.00000000000E+00 0. -1.
        -13    1    3    3    0    0  0.18340830220E+03 -0.21563611055E+03  0.17238492491E+03  0.33144245326E+03  0.00000000000E+00 0.  1.
         22    1    1    2    0    0 -0.41403230575E+03  0.43722906985E+03 -0.71800580827E+03  0.93708289410E+03  0.00000000000E+00 0.  1.
<mgrwt>
<rscale>  0 0.17016946E+04</rscale>
<asrwt>0</asrwt>
<pdfrwt beam="1">  1        2 0.11434183E+00 0.17016946E+04</pdfrwt>
<pdfrwt beam="2">  1       -2 0.14985504E+00 0.17016946E+04</pdfrwt>
<totfact> 0.10839091E+01</totfact>
</mgrwt>
</event>
<event>
 6    1  0.8968082E-007  0.1011604E+04  0.7818608E-02  0.9295908E-01
          1   -1    0    0  501    0  0.00000000000E+00  0.00000000000E+00  0.11461624230E+04  0.11461624230E+04  0.00000000000E+00 0. -1.
         -1   -1    0    0    0  501 -0.00000000000E+00 -0.00000000000E+00 -0.22321073145E+03  0.22321073145E+03  0.00000000000E+00 0.  1.
         23    2    1    2    0    0 -0.13120369522E+03 -0.47563456854E+03  0.34173066977E+03  0.60696871546E+03  0.90490432939E+02 0.  0.
         13    1    3    3    0    0 -0.12024583545E+03 -0.35089039276E+03  0.29265031638E+03  0.47246940255E+03  0.00000000000E+00 0. -1.
        -13    1    3    3    0    0 -0.10957859773E+02 -0.12474417579E+03  0.49080353387E+02  0.13449931291E+03  0.00000000000E+00 0.  1.
         22    1    1    2    0    0  0.13120369522E+03  0.47563456854E+03  0.58122102179E+03  0.76240443900E+03  0.00000000000E+00 0. -1.
<mgrwt>
<rscale>  0 0.10116042E+04</rscale>
<asrwt>0</asrwt>
<pdfrwt beam="1">  1        1 0.17633268E+00 0.10116042E+04</pdfrwt>
<pdfrwt beam="2">  1       -1 0.34340113E-01 0.10116042E+04</pdfrwt>
<totfact> 0.94094943E+01</totfact>
</mgrwt>
</event>
<event>
 6    1  0.8968082E-007  0.1893354E+04  0.7818608E-02  0.8658172E-01
          2   -1    0    0  501    0  0.00000000000E+00  0.00000000000E+00  0.67871226501E+03  0.67871226501E+03  0.00000000000E+00 0. -1.
         -2   -1    0    0    0  501 -0.00000000000E+00 -0.00000000000E+00 -0.13204379394E+04  0.13204379394E+04  0.00000000000E+00 0.  1.
         23    2    1    2    0    0  0.15406633058E+03 -0.82725443963E+03 -0.77443675810E+03  0.11472707682E+04  0.91605574110E+02 0.  0.
         11    1    3    3    0    0  0.42549693099E+02 -0.31477808664E+03 -0.23683080743E+03  0.39621276047E+03  0.00000000000E+00 0. -1.
        -11    1    3    3    0    0  0.11151663748E+03 -0.51247635299E+03 -0.53760595066E+03  0.75105800775E+03  0.00000000000E+00 0.  1.
         22    1    1    2    0    0 -0.15406633058E+03  0.82725443963E+03  0.13271108368E+03  0.85187943621E+03  0.00000000000E+00 0. -1.
<mgrwt>
<rscale>  0 0.18933541E+04</rscale>
<asrwt>0</asrwt>
<pdfrwt beam="1">  1        2 0.10441727E+00 0.18933541E+04</pdfrwt>
<pdfrwt beam="2">  1       -2 0.20314430E+00 0.18933541E+04</pdfrwt>
<totfact> 0.50600225E+00</totfact>
</mgrwt>
</event>
<event>
 6    1  0.8968082E-007  0.3067979E+04  0.7818608E-02  0.8224581E-01
         -1   -1    0    0    0  501 -0.00000000000E+00  0.00000000000E+00  0.65955037707E+03  0.65955037707E+03  0.00000000000E+00 0.  1.
          1   -1    0    0  501    0  0.00000000000E+00 -0.00000000000E+00 -0.35677703744E+04  0.35677703744E+04  0.00000000000E+00 0. -1.
         23    2    1    2    0    0 -0.11934367949E+04  0.13627426746E+02 -0.13054785018E+03  0.12040874414E+04  0.91141292807E+02 0.  0.
         13    1    3    3    0    0 -0.70964310171E+03 -0.34769405152E+02 -0.90445223352E+02  0.71622802359E+03  0.00000000000E+00 0.  1.
        -13    1    3    3    0    0 -0.48379369315E+03  0.48396831897E+02 -0.40102626829E+02  0.48785941781E+03  0.00000000000E+00 0. -1.
         22    1    1    2    0    0  0.11934367949E+04 -0.13627426746E+02 -0.27776721471E+04  0.30232333100E+04  0.00000000000E+00 0. -1.
<mgrwt>
<rscale>  0 0.30679793E+04</rscale>
<asrwt>0</asrwt>
<pdfrwt beam="1">  1        1 0.54888775E+00 0.30679793E+04</pdfrwt>
<pdfrwt beam="2">  1       -1 0.10146929E+00 0.30679793E+04</pdfrwt>
<totfact> 0.17199121E-01</totfact>
</mgrwt>
</event>
<event>
 6    1  0.8968082E-007  0.2493045E+04  0.7818608E-02  0.8405468E-01
         -2   -1    0    0    0  501 -0.00000000000E+00  0.00000000000E+00  0.55715515157E+03  0.55715515157E+03  0.00000000000E+00 0.  1.
          2   -1    0    0  501    0  0.00000000000E+00 -0.00000000000E+00 -0.27888422129E+04  0.27888422129E+04  0.00000000000E+00 0. -1.
         23    2    1    2    0    0 -0.61298105529E+03 -0.76085294162E+03 -0.82022222460E+02  0.98470494455E+03  0.90957187383E+02 0.  0.
         13    1    3    3    0    0 -0.46750305389E+03 -0.63719972138E+03 -0.69928727701E+02  0.79339310388E+03  0.00000000000E+00 0.  1.
        -13    1    3    3    0    0 -0.14547800140E+03 -0.12365322023E+03 -0.12093494759E+02  0.19131184067E+03  0.00000000000E+00 0. -1.
         22    1    1    2    0    0  0.61298105529E+03  0.76085294162E+03 -0.21496648389E+04  0.23612924199E+04  0.00000000000E+00 0. -1.
<mgrwt>
<rscale>  0 0.24930446E+04</rscale>
<asrwt>0</asrwt>
<pdfrwt beam="1">  1        2 0.42905265E+00 0.24930446E+04</pdfrwt>
<pdfrwt beam="2">  1       -2 0.85716177E-01 0.24930446E+04</pdfrwt>
<totfact> 0.24773717E+00</totfact>
</mgrwt>
</event>
<event>
 6    1  0.8968082E-007  0.1572160E+04  0.7818608E-02  0.8837836E-01
         -2   -1    0    0    0  501 -0.00000000000E+00  0.00000000000E+00  0.13631111157E+04  0.13631111157E+04  0.00000000000E+00 0.  1.
          2   -1    0    0  501    0  0.00000000000E+00 -0.00000000000E+00 -0.45331707697E+03  0.45331707697E+03  0.00000000000E+00 0. -1.
         23    2    1    2    0    0  0.12938462851E+03 -0.47787108420E+03 -0.24511331715E+03  0.55988047933E+03  0.91018996265E+02 0.  0.
         13    1    3    3    0    0 -0.45121082939E+01 -0.88815814062E+02 -0.67899938862E+02  0.11188838030E+03  0.00000000000E+00 0. -1.
        -13    1    3    3    0    0  0.13389673680E+03 -0.38905527014E+03 -0.17721337829E+03  0.44799209903E+03  0.00000000000E+00 0.  1.
         22    1    1    2    0    0 -0.12938462851E+03  0.47787108420E+03  0.11549073559E+04  0.12565477134E+04  0.00000000000E+00 0.  1.
<mgrwt>
<rscale>  0 0.15721597E+04</rscale>
<asrwt>0</asrwt>
<pdfrwt beam="1">  1        2 0.69741089E-01 0.15721597E+04</pdfrwt>
<pdfrwt beam="2">  1       -2 0.20970940E+00 0.15721597E+04</pdfrwt>
<totfact> 0.76149694E+00</totfact>
</mgrwt>
</event>
<event>
 6    1  0.8968082E-007  0.2133762E+04  0.7818608E-02  0.8546515E-01
         -2   -1    0    0    0  501 -0.00000000000E+00  0.00000000000E+00  0.61803985899E+03  0.61803985899E+03  0.00000000000E+00 0.  1.
          2   -1    0    0  501    0  0.00000000000E+00 -0.00000000000E+00 -0.18416852844E+04  0.18416852844E+04  0.00000000000E+00 0. -1.
         23    2    1    2    0    0  0.68162261595E+03 -0.32484012904E+03  0.25276620279E+03  0.80143632780E+03  0.90988648963E+02 0.  0.
         11    1    3    3    0    0  0.29908586382E+03 -0.10739146869E+03  0.13962246211E+03  0.34710187757E+03  0.00000000000E+00 0. -1.
        -11    1    3    3    0    0  0.38253675213E+03 -0.21744866034E+03  0.11314374068E+03  0.45433445023E+03  0.00000000000E+00 0.  1.
         22    1    1    2    0    0 -0.68162261595E+03  0.32484012904E+03 -0.14764116282E+04  0.16582888156E+04  0.00000000000E+00 0. -1.
<mgrwt>
<rscale>  0 0.21337619E+04</rscale>
<asrwt>0</asrwt>
<pdfrwt beam="1">  1        2 0.28333619E+00 0.21337619E+04</pdfrwt>
<pdfrwt beam="2">  1       -2 0.95083057E-01 0.21337619E+04</pdfrwt>
<totfact> 0.69928021E+00</totfact>
</mgrwt>
</event>
<event>
 6    1  0.8968082E-007  0.4332012E+04  0.7818608E-02  0.7940725E-01
         -2   -1    0    0    0  501 -0.00000000000E+00  0.00000000000E+00  0.32152421506E+04  0.32152421506E+04  0.00000000000E+00 0.  1.
          2   -1    0    0  501    0  0.00000000000E+00 -0.00000000000E+00 -0.14591694146E+04  0.14591694146E+04  0.00000000000E+00 0. -1.
         23    2    1    2    0    0  0.27013269972E+03  0.21008013211E+04  0.39458092551E+03  0.21564763364E+04  0.91423281661E+02 0.  0.
         11    1    3    3    0    0  0.17674217235E+03  0.11560144217E+04  0.25429724024E+03  0.11967765978E+04  0.00000000000E+00 0.  1.
        -11    1    3    3    0    0  0.93390527375E+02  0.94478689938E+03  0.14028368528E+03  0.95969973856E+03  0.00000000000E+00 0. -1.
         22    1    1    2    0    0 -0.27013269972E+03 -0.21008013211E+04  0.13614918106E+04  0.25179352288E+04  0.00000000000E+00 0.  1.
<mgrwt>
<rscale>  0 0.43320125E+04</rscale>
<asrwt>0</asrwt>
<pdfrwt beam="1">  1        2 0.22448760E+00 0.43320125E+04</pdfrwt>
<pdfrwt beam="2">  1       -2 0.49465264E+00 0.43320125E+04</pdfrwt>
<totfact> 0.18367865E-02</totfact>
</mgrwt>
</event>
<event>
 6    1  0.8968082E-007  0.9998496E+03  0.7818608E-02  0.9308710E-01
         -2   -1    0    0    0  501 -0.00000000000E+00  0.00000000000E+00  0.26611857253E+03  0.26611857253E+03  0.00000000000E+00 0.  1.
          2   -1    0    0  501    0  0.00000000000E+00 -0.00000000000E+00 -0.93914824098E+03  0.93914824098E+03  0.00000000000E+00 0. -1.
         23    2    1    2    0    0 -0.25798382689E+03 -0.22707266430E+03 -0.77003969335E+03  0.84815535368E+03  0.91042434270E+02 0.  0.
         11    1    3    3    0    0 -0.10510103327E+03 -0.14955489748E+03 -0.36063362441E+03  0.40431362283E+03  0.00000000000E+00 0. -1.
        -11    1    3    3    0    0 -0.15288279361E+03 -0.77517766822E+02 -0.40940606894E+03  0.44384173085E+03  0.00000000000E+00 0.  1.
         22    1    1    2    0    0  0.25798382689E+03  0.22707266430E+03  0.97010024905E+02  0.35711145983E+03  0.00000000000E+00 0.  1.
<mgrwt>
<rscale>  0 0.99984957E+03</rscale>
<asrwt>0</asrwt>
<pdfrwt beam="1">  1        2 0.14448435E+00 0.99984957E+03</pdfrwt>
<pdfrwt beam="2">  1       -2 0.40941319E-01 0.99984957E+03</pdfrwt>
<totfact> 0.15558451E+02</totfact>
</mgrwt>
</event>
<event>
 6    1  0.8968082E-007  0.1454039E+04  0.7818608E-02  0.8915605E-01
         -2   -1    0    0    0  501 -0.00000000000E+00  0.00000000000E+00  0.29047341283E+03  0.29047341283E+03  0.00000000000E+00 0.  1.
          2   -1    0    0  501    0  0.00000000000E+00 -0.00000000000E+00 -0.18196403531E+04  0.18196403531E+04  0.00000000000E+00 0. -1.
         23    2    1    2    0    0 -0.38822222551E+03 -0.57166319734E+03 -0.10817698996E+04  0.12869009019E+04  0.91501409704E+02 0.  0.
         13    1    3    3    0    0 -0.26705770932E+03 -0.31854904729E+03 -0.61625490195E+03  0.74334609692E+03  0.00000000000E+00 0. -1.
        -13    1    3    3    0    0 -0.12116451618E+03 -0.25311415005E+03 -0.46551499768E+03  0.54355480497E+03  0.00000000000E+00 0.  1.
         22    1    1    2    0    0  0.38822222551E+03  0.57166319734E+03 -0.44739704066E+03  0.82321286407E+03  0.00000000000E+00 0.  1.
<mgrwt>
<rscale>  0 0.14540387E+04</rscale>
<asrwt>0</asrwt>
<pdfrwt beam="1">  1        2 0.27994467E+00 0.14540387E+04</pdfrwt>
<pdfrwt beam="2">  1       -2 0.44688217E-01 0.14540387E+04</pdfrwt>
<totfact> 0.38742755E+01</totfact>
</mgrwt>
</event>
<event>
 6    1  0.8968082E-007  0.3265744E+04  0.7818608E-02  0.8171667E-01
         -1   -1    0    0    0  501 -0.00000000000E+00  0.00000000000E+00  0.14389964591E+04  0.14389964591E+04  0.00000000000E+00 0.  1.
          1   -1    0    0  501    0  0.00000000000E+00 -0.00000000000E+00 -0.18528688519E+04  0.18528688519E+04  0.00000000000E+00 0. -1.
         23    2    1    2    0    0 -0.64429354584E+03  0.82445044929E+01  0.13038378845E+04  0.14572779618E+04  0.92106914397E+02 0.  0.
         11    1    3    3    0    0 -0.43359376188E+03  0.34609093041E+00  0.77662459077E+03  0.88946580885E+03  0.00000000000E+00 0.  1.
        -11    1    3    3    0    0 -0.21069978396E+03  0.78984135625E+01  0.52721329376E+03  0.56781215293E+03  0.00000000000E+00 0. -1.
         22    1    1    2    0    0  0.64429354584E+03 -0.82445044929E+01 -0.17177102773E+04  0.18345873492E+04  0.00000000000E+00 0. -1.
<mgrwt>
<rscale>  0 0.32657445E+04</rscale>
<asrwt>0</asrwt>
<pdfrwt beam="1">  1        1 0.28505675E+00 0.32657445E+04</pdfrwt>
<pdfrwt beam="2">  1       -1 0.22138407E+00 0.32657445E+04</pdfrwt>
<totfact> 0.33617838E-01</totfact>
</mgrwt>
</event>
<event>
 6    1  0.8968082E-007  0.3481781E+04  0.7818608E-02  0.8118121E-01
         -1   -1    0    0    0  501 -0.00000000000E+00  0.00000000000E+00  0.16246073133E+04  0.16246073133E+04  0.00000000000E+00 0.  1.
          1   -1    0    0  501    0  0.00000000000E+00 -0.00000000000E+00 -0.18654966045E+04  0.18654966045E+04  0.00000000000E+00 0. -1.
         23    2    1    2    0    0 -0.10561241832E+04  0.10624558557E+04  0.76610437851E+03  0.16850424267E+04  0.90781745172E+02 0.  0.
         13    1    3    3    0    0 -0.43603932137E+03  0.40062204297E+03  0.26309444875E+03  0.64795601707E+03  0.00000000000E+00 0. -1.
        -13    1    3    3    0    0 -0.62008486188E+03  0.66183381276E+03  0.50300992976E+03  0.10370864096E+04  0.00000000000E+00 0.  1.
         22    1    1    2    0    0  0.10561241832E+04 -0.10624558557E+04 -0.10069936697E+04  0.18050614911E+04  0.00000000000E+00 0. -1.
<mgrwt>
<rscale>  0 0.34817808E+04</rscale>
<asrwt>0</asrwt>
<pdfrwt beam="1">  1        1 0.28699948E+00 0.34817808E+04</pdfrwt>
<pdfrwt beam="2">  1       -1 0.24993959E+00 0.34817808E+04</pdfrwt>
<totfact> 0.20967907E-01</totfact>
</mgrwt>
</event>
<event>
 6    1  0.8968082E-007  0.3092493E+04  0.7818608E-02  0.8217801E-01
          2   -1    0    0  501    0  0.00000000000E+00  0.00000000000E+00  0.46274163253E+04  0.46274163253E+04  0.00000000000E+00 0. -1.
         -2   -1    0    0    0  501 -0.00000000000E+00 -0.00000000000E+00 -0.51667671029E+03  0.51667671029E+03  0.00000000000E+00 0.  1.
         23    2    1    2    0    0  0.10461385292E+04  0.90304757851E+03  0.90854156465E+03  0.16564042443E+04  0.91249626381E+02 0.  0.
         11    1    3    3    0    0  0.47341756714E+03  0.43348812460E+03  0.47152455062E+03  0.79647444961E+03  0.00000000000E+00 0. -1.
        -11    1    3    3    0    0  0.57272096208E+03  0.46955945391E+03  0.43701701402E+03  0.85992979464E+03  0.00000000000E+00 0.  1.
         22    1    1    2    0    0 -0.10461385292E+04 -0.90304757851E+03  0.32021980503E+04  0.34876887913E+04  0.00000000000E+00 0. -1.
<mgrwt>
<rscale>  0 0.30924930E+04</rscale>
<asrwt>0</asrwt>
<pdfrwt beam="1">  1        2 0.71191018E+00 0.30924930E+04</pdfrwt>
<pdfrwt beam="2">  1       -2 0.79488728E-01 0.30924930E+04</pdfrwt>
<totfact> 0.10888305E-01</totfact>
</mgrwt>
</event>
<event>
 6    1  0.8968082E-007  0.3354634E+04  0.7818608E-02  0.8149131E-01
         -2   -1    0    0    0  501 -0.00000000000E+00  0.00000000000E+00  0.14107410073E+04  0.14107410073E+04  0.00000000000E+00 0.  1.
          2   -1    0    0  501    0  0.00000000000E+00 -0.00000000000E+00 -0.19942657501E+04  0.19942657501E+04  0.00000000000E+00 0. -1.
         23    2    1    2    0    0 -0.79096557643E+03  0.30232016709E+03 -0.17601809910E+04  0.19553364663E+04  0.89886310793E+02 0.  0.
         11    1    3    3    0    0 -0.49199478917E+03  0.14271174277E+03 -0.10865488905E+04  0.12012551792E+04  0.00000000000E+00 0. -1.
        -11    1    3    3    0    0 -0.29897078726E+03  0.15960842433E+03 -0.67363210047E+03  0.75408128709E+03  0.00000000000E+00 0.  1.
         22    1    1    2    0    0  0.79096557643E+03 -0.30232016709E+03  0.11766562482E+04  0.14496702911E+04  0.00000000000E+00 0.  1.
<mgrwt>
<rscale>  0 0.33546341E+04</rscale>
<asrwt>0</asrwt>
<pdfrwt beam="1">  1        2 0.30681011E+00 0.33546341E+04</pdfrwt>
<pdfrwt beam="2">  1       -2 0.21703708E+00 0.33546341E+04</pdfrwt>
<totfact> 0.57767406E-01</totfact>
</mgrwt>
</event>
<event>
 6    1  0.8968082E-007  0.1599557E+04  0.7818608E-02  0.8820820E-01
          1   -1    0    0  501    0  0.00000000000E+00  0.00000000000E+00  0.36098294301E+04  0.36098294301E+04  0.00000000000E+00 0. -1.
         -1   -1    0    0    0  501 -0.00000000000E+00 -0.00000000000E+00 -0.17719552583E+03  0.17719552583E+03  0.00000000000E+00 0.  1.
         23    2    1    2    0    0  0.28455616939E+03 -0.66454032956E+03  0.25176470931E+04  0.26209259345E+04  0.90109963889E+02 0.  0.
         11    1    3    3    0    0  0.35863539815E+02 -0.10910584646E+03  0.52521458069E+03  0.53762499476E+03  0.00000000000E+00 0. -1.
        -11    1    3    3    0    0  0.24869262958E+03 -0.55543448310E+03  0.19924325124E+04  0.20833009397E+04  0.00000000000E+00 0.  1.
         22    1    1    2    0    0 -0.28455616939E+03  0.66454032956E+03  0.91498681120E+03  0.11660990214E+04  0.00000000000E+00 0. -1.
<mgrwt>
<rscale>  0 0.15995570E+04</rscale>
<asrwt>0</asrwt>
<pdfrwt beam="1">  1        1 0.55535831E+00 0.15995570E+04</pdfrwt>
<pdfrwt beam="2">  1       -1 0.27260853E-01 0.15995570E+04</pdfrwt>
<totfact> 0.23902996E+00</totfact>
</mgrwt>
</event>
<event>
 6    1  0.8968082E-007  0.3184260E+04  0.7818608E-02  0.8192986E-01
         -1   -1    0    0    0  501 -0.00000000000E+00  0.00000000000E+00  0.18560546426E+04  0.18560546426E+04  0.00000000000E+00 0.  1.
          1   -1    0    0  501    0  0.00000000000E+00 -0.00000000000E+00 -0.13657348956E+04  0.13657348956E+04  0.00000000000E+00 0. -1.
         23    2    1    2    0    0 -0.58663015697E+03 -0.90639404209E+03  0.14275313480E+04  0.17920865320E+04  0.89684379724E+02 0.  0.
         11    1    3    3    0    0 -0.23868380672E+03 -0.43735192580E+03  0.61645589718E+03  0.79263140221E+03  0.00000000000E+00 0.  1.
        -11    1    3    3    0    0 -0.34794635025E+03 -0.46904211629E+03  0.81107545085E+03  0.99945512979E+03  0.00000000000E+00 0. -1.
         22    1    1    2    0    0  0.58663015697E+03  0.90639404209E+03 -0.93721160107E+03  0.14297030061E+04  0.00000000000E+00 0. -1.
<mgrwt>
<rscale>  0 0.31842604E+04</rscale>
<asrwt>0</asrwt>
<pdfrwt beam="1">  1        1 0.21011306E+00 0.31842604E+04</pdfrwt>
<pdfrwt beam="2">  1       -1 0.28554687E+00 0.31842604E+04</pdfrwt>
<totfact> 0.27879190E-01</totfact>
</mgrwt>
</event>
<event>
 6    1  0.8968082E-007  0.1081786E+04  0.7818608E-02  0.9223129E-01
         -2   -1    0    0    0  501 -0.00000000000E+00  0.00000000000E+00  0.16510256835E+03  0.16510256835E+03  0.00000000000E+00 0.  1.
          2   -1    0    0  501    0  0.00000000000E+00 -0.00000000000E+00 -0.17720209829E+04  0.17720209829E+04  0.00000000000E+00 0. -1.
         23    2    1    2    0    0 -0.39127368571E+03 -0.20474304706E+03 -0.26036218494E+03  0.52000376381E+03  0.87181618350E+02 0.  0.
         11    1    3    3    0    0 -0.26695551578E+03 -0.18295330592E+03 -0.17894501063E+03  0.36980870242E+03  0.00000000000E+00 0.  1.
        -11    1    3    3    0    0 -0.12431816993E+03 -0.21789741136E+02 -0.81417174303E+02  0.15019506139E+03  0.00000000000E+00 0. -1.
         22    1    1    2    0    0  0.39127368571E+03  0.20474304706E+03 -0.13465562296E+04  0.14171197874E+04  0.00000000000E+00 0. -1.
<mgrwt>
<rscale>  0 0.10817860E+04</rscale>
<asrwt>0</asrwt>
<pdfrwt beam="1">  1        2 0.27261861E+00 0.10817860E+04</pdfrwt>
<pdfrwt beam="2">  1       -2 0.25400395E-01 0.10817860E+04</pdfrwt>
<totfact> 0.12394491E+02</totfact>
</mgrwt>
</event>
<event>
 6    1  0.8968082E-007  0.9715885E+03  0.7818608E-02  0.9340267E-01
          2   -1    0    0  501    0  0.00000000000E+00  0.00000000000E+00  0.28441215700E+04  0.28441215700E+04  0.00000000000E+00 0. -1.
         -2   -1    0    0    0  501 -0.00000000000E+00 -0.00000000000E+00 -0.82976785860E+02  0.82976785860E+02  0.00000000000E+00 0.  1.
         23    2    1    2    0    0  0.46387494125E+03  0.12676297850E+03  0.14610563151E+04  0.15409241816E+04  0.92265724683E+02 0.  0.
         13    1    3    3    0    0  0.25772055255E+03  0.26792484820E+02  0.71641385937E+03  0.76183104318E+03  0.00000000000E+00 0. -1.
        -13    1    3    3    0    0  0.20615438870E+03  0.99970493684E+02  0.74464245569E+03  0.77909313846E+03  0.00000000000E+00 0.  1.
         22    1    1    2    0    0 -0.46387494125E+03 -0.12676297850E+03  0.13000884691E+04  0.13861741743E+04  0.00000000000E+00 0.  1.
<mgrwt>
<rscale>  0 0.97158853E+03</rscale>
<asrwt>0</asrwt>
<pdfrwt beam="1">  1        2 0.43755709E+00 0.97158853E+03</pdfrwt>
<pdfrwt beam="2">  1       -2 0.12765662E-01 0.97158853E+03</pdfrwt>
<totfact> 0.10229089E+02</totfact>
</mgrwt>
</event>
<event>
 6    1  0.8968082E-007  0.1540037E+04  0.7818608E-02  0.8858257E-01
          1   -1    0    0  501    0  0.00000000000E+00  0.00000000000E+00  0.16146058457E+04  0.16146058457E+04  0.00000000000E+00 0. -1.
         -1   -1    0    0    0  501 -0.00000000000E+00 -0.00000000000E+00 -0.36722818837E+03  0.36722818837E+03  0.00000000000E+00 0.  1.
         23    2    1    2    0    0 -0.10303642351E+02  0.24858148565E+03  0.15599678437E+04  0.15823198982E+04  0.91310826481E+02 0.  0.
         13    1    3    3    0    0  0.34557972708E+02  0.12395284976E+03  0.63407894634E+03  0.64700438378E+03  0.00000000000E+00 0.  1.
        -13    1    3    3    0    0 -0.44861615059E+02  0.12462863589E+03  0.92588889734E+03  0.93531551446E+03  0.00000000000E+00 0. -1.
         22    1    1    2    0    0  0.10303642351E+02 -0.24858148565E+03 -0.31259018639E+03  0.39951413577E+03  0.00000000000E+00 0.  1.
<mgrwt>
<rscale>  0 0.15400374E+04</rscale>
<asrwt>0</asrwt>
<pdfrwt beam="1">  1        1 0.24840089E+00 0.15400374E+04</pdfrwt>
<pdfrwt beam="2">  1       -1 0.56496645E-01 0.15400374E+04</pdfrwt>
<totfact> 0.16670141E+01</totfact>
</mgrwt>
</event>
<event>
 6    1  0.8968082E-007  0.2407986E+04  0.7818608E-02  0.8436520E-01
         -1   -1    0    0    0  501 -0.00000000000E+00  0.00000000000E+00  0.10961924940E+04  0.10961924940E+04  0.00000000000E+00 0.  1.
          1   -1    0    0  501    0  0.00000000000E+00 -0.00000000000E+00 -0.13223942366E+04  0.13223942366E+04  0.00000000000E+00 0. -1.
         23    2    1    2    0    0  0.23737008894E+03 -0.67250033159E+02 -0.12954549027E+04  0.13212401826E+04  0.81271699321E+02 0.  0.
         11    1    3    3    0    0  0.73433404826E+02  0.94199472160E+01 -0.50039752841E+03  0.50584472597E+03  0.00000000000E+00 0.  1.
        -11    1    3    3    0    0  0.16393668411E+03 -0.76669980375E+02 -0.79505737432E+03  0.81539545666E+03  0.00000000000E+00 0. -1.
         22    1    1    2    0    0 -0.23737008894E+03  0.67250033159E+02  0.10692531601E+04  0.10973465480E+04  0.00000000000E+00 0.  1.
<mgrwt>
<rscale>  0 0.24079856E+04</rscale>
<asrwt>0</asrwt>
<pdfrwt beam="1">  1        1 0.20344527E+00 0.24079856E+04</pdfrwt>
<pdfrwt beam="2">  1       -1 0.16864500E+00 0.24079856E+04</pdfrwt>
<totfact> 0.19659849E+00</totfact>
</mgrwt>
</event>
<event>
 6    1  0.8968082E-007  0.2011934E+04  0.7818608E-02  0.8601061E-01
          1   -1    0    0  501    0  0.00000000000E+00  0.00000000000E+00  0.21997845639E+04  0.21997845639E+04  0.00000000000E+00 0. -1.
         -1   -1    0    0    0  501 -0.00000000000E+00 -0.00000000000E+00 -0.46003120011E+03  0.46003120011E+03  0.00000000000E+00 0.  1.
         23    2    1    2    0    0 -0.87676519769E+03 -0.24319727535E+03  0.14302914492E+04  0.16987596766E+04  0.11040236634E+03 0.  0.
         13    1    3    3    0    0 -0.79727355056E+02 -0.29151074473E+02  0.82518479973E+02  0.11838722830E+03  0.00000000000E+00 0.  1.
        -13    1    3    3    0    0 -0.79703784264E+03 -0.21404620088E+03  0.13477729692E+04  0.15803724483E+04  0.00000000000E+00 0. -1.
         22    1    1    2    0    0  0.87676519769E+03  0.24319727535E+03  0.30946191460E+03  0.96105608744E+03  0.00000000000E+00 0.  1.
<mgrwt>
<rscale>  0 0.20119339E+04</rscale>
<asrwt>0</asrwt>
<pdfrwt beam="1">  1        1 0.33842839E+00 0.20119339E+04</pdfrwt>
<pdfrwt beam="2">  1       -1 0.70774032E-01 0.20119339E+04</pdfrwt>
<totfact> 0.40736123E+00</totfact>
</mgrwt>
</event>
<event>
 6    1  0.8968082E-007  0.1706222E+04  0.7818608E-02  0.8757824E-01
         -1   -1    0    0    0  501 -0.00000000000E+00  0.00000000000E+00  0.52075340468E+03  0.52075340468E+03  0.00000000000E+00 0.  1.
          1   -1    0    0  501    0  0.00000000000E+00 -0.00000000000E+00 -0.13975867753E+04  0.13975867753E+04  0.00000000000E+00 0. -1.
         23    2    1    2    0    0  0.33140607025E+03 -0.58392928440E+03  0.14764362055E+03  0.69344977752E+03  0.90942634001E+02 0.  0.
         13    1    3    3    0    0  0.28149393714E+02 -0.96220303702E+02  0.45659342282E+02  0.11016129424E+03  0.00000000000E+00 0.  1.
        -13    1    3    3    0    0  0.30325667653E+03 -0.48770898070E+03  0.10198427827E+03  0.58328848328E+03  0.00000000000E+00 0. -1.
         22    1    1    2    0    0 -0.33140607025E+03  0.58392928440E+03 -0.10244769912E+04  0.12248904025E+04  0.00000000000E+00 0. -1.
<mgrwt>
<rscale>  0 0.17062216E+04</rscale>
<asrwt>0</asrwt>
<pdfrwt beam="1">  1        1 0.21501334E+00 0.17062216E+04</pdfrwt>
<pdfrwt beam="2">  1       -1 0.80115911E-01 0.17062216E+04</pdfrwt>
<totfact> 0.11407915E+01</totfact>
</mgrwt>
</event>
<event>
 6    1  0.8968082E-007  0.2229585E+04  0.7818608E-02  0.8506214E-01
         -2   -1    0    0    0  501 -0.00000000000E+00  0.00000000000E+00  0.17148292161E+04  0.17148292161E+04  0.00000000000E+00 0.  1.
          2   -1    0    0  501    0  0.00000000000E+00 -0.00000000000E+00 -0.72471515131E+03  0.72471515131E+03  0.00000000000E+00 0. -1.
         23    2    1    2    0    0  0.72235340612E+03 -0.53089032672E+03  0.12169244985E+04  0.15148379518E+04  0.10094455236E+03 0.  0.
         13    1    3    3    0    0  0.15411595485E+03 -0.14396451016E+03  0.34706218901E+03  0.40611534170E+03  0.00000000000E+00 0. -1.
        -13    1    3    3    0    0  0.56823745127E+03 -0.38692581656E+03  0.86986230952E+03  0.11087226101E+04  0.00000000000E+00 0.  1.
         22    1    1    2    0    0 -0.72235340612E+03  0.53089032672E+03 -0.22681043371E+03  0.92470641567E+03  0.00000000000E+00 0. -1.
<mgrwt>
<rscale>  0 0.22295854E+04</rscale>
<asrwt>0</asrwt>
<pdfrwt beam="1">  1        2 0.11149464E+00 0.22295854E+04</pdfrwt>
<pdfrwt beam="2">  1       -2 0.26381988E+00 0.22295854E+04</pdfrwt>
<totfact> 0.18896170E+00</totfact>
</mgrwt>
</event>
<event>
 6    1  0.8968082E-007  0.3009604E+04  0.7818608E-02  0.8240994E-01
          2   -1    0    0  501    0  0.00000000000E+00  0.00000000000E+00  0.23323411375E+04  0.23323411375E+04  0.00000000000E+00 0. -1.
         -2   -1    0    0    0  501 -0.00000000000E+00 -0.00000000000E+00 -0.97088237353E+03  0.97088237353E+03  0.00000000000E+00 0.  1.
         23    2    1    2    0    0 -0.14104335579E+04  0.17754232305E+03  0.14300895694E+03  0.14309350637E+04  0.79243276821E+02 0.  0.
         11    1    3    3    0    0 -0.59843125417E+03  0.73079534035E+02  0.99979352981E+02  0.61111083716E+03  0.00000000000E+00 0. -1.
        -11    1    3    3    0    0 -0.81200230376E+03  0.10446278902E+03  0.43029603958E+02  0.81982422653E+03  0.00000000000E+00 0.  1.
         22    1    1    2    0    0  0.14104335579E+04 -0.17754232305E+03  0.12184498070E+04  0.18722884473E+04  0.00000000000E+00 0. -1.
<mgrwt>
<rscale>  0 0.30096039E+04</rscale>
<asrwt>0</asrwt>
<pdfrwt beam="1">  1        2 0.35882171E+00 0.30096039E+04</pdfrwt>
<pdfrwt beam="2">  1       -2 0.14936652E+00 0.30096039E+04</pdfrwt>
<totfact> 0.11261447E+00</totfact>
</mgrwt>
</event>
<event>
 6    1  0.8968082E-007  0.1763279E+04  0.7818608E-02  0.8726075E-01
          2   -1    0    0  501    0  0.00000000000E+00  0.00000000000E+00  0.70400011894E+03  0.70400011894E+03  0.00000000000E+00 0. -1.
         -2   -1    0    0    0  501 -0.00000000000E+00 -0.00000000000E+00 -0.11041026857E+04  0.11041026857E+04  0.00000000000E+00 0.  1.
         23    2    1    2    0    0 -0.35219317159E+03 -0.26122265308E+03 -0.98116788487E+03  0.10801507398E+04  0.10843384111E+03 0.  0.
         13    1    3    3    0    0 -0.29585409100E+03 -0.16313497762E+03 -0.70752669079E+03  0.78405145383E+03  0.00000000000E+00 0. -1.
        -13    1    3    3    0    0 -0.56339080594E+02 -0.98087675461E+02 -0.27364119408E+03  0.29609928602E+03  0.00000000000E+00 0.  1.
         22    1    1    2    0    0  0.35219317159E+03  0.26122265308E+03  0.58106531816E+03  0.72795206474E+03  0.00000000000E+00 0. -1.
<mgrwt>
<rscale>  0 0.17632792E+04</rscale>
<asrwt>0</asrwt>
<pdfrwt beam="1">  1        2 0.10830771E+00 0.17632792E+04</pdfrwt>
<pdfrwt beam="2">  1       -2 0.16986195E+00 0.17632792E+04</pdfrwt>
<totfact> 0.82216938E+00</totfact>
</mgrwt>
</event>
<event>
 6    1  0.8968082E-007  0.1309056E+04  0.7818608E-02  0.9022414E-01
         -1   -1    0    0    0  501 -0.00000000000E+00  0.00000000000E+00  0.45670937371E+03  0.45670937371E+03  0.00000000000E+00 0.  1.
          1   -1    0    0  501    0  0.00000000000E+00 -0.00000000000E+00 -0.93802937495E+03  0.93802937495E+03  0.00000000000E+00 0. -1.
         23    2    1    2    0    0 -0.59879712701E+02 -0.30925375639E+03 -0.84919127323E+03  0.91043229755E+03  0.92399589045E+02 0.  0.
         13    1    3    3    0    0 -0.85489645824E+01 -0.24740470618E+03 -0.62271152854E+03  0.67011328983E+03  0.00000000000E+00 0.  1.
        -13    1    3    3    0    0 -0.51330748118E+02 -0.61849050212E+02 -0.22647974469E+03  0.24031900772E+03  0.00000000000E+00 0. -1.
         22    1    1    2    0    0  0.59879712701E+02  0.30925375639E+03  0.36787127198E+03  0.48430645111E+03  0.00000000000E+00 0.  1.
<mgrwt>
<rscale>  0 0.13090559E+04</rscale>
<asrwt>0</asrwt>
<pdfrwt beam="1">  1        1 0.14431221E+00 0.13090559E+04</pdfrwt>
<pdfrwt beam="2">  1       -1 0.70262982E-01 0.13090559E+04</pdfrwt>
<totfact> 0.34072192E+01</totfact>
</mgrwt>
</event>
<event>
 6    1  0.8968082E-007  0.1962171E+04  0.7818608E-02  0.8624514E-01
         -2   -1    0    0    0  501 -0.00000000000E+00  0.00000000000E+00  0.41909076660E+03  0.41909076660E+03  0.00000000000E+00 0.  1.
          2   -1    0    0  501    0  0.00000000000E+00 -0.00000000000E+00 -0.22967079797E+04  0.22967079797E+04  0.00000000000E+00 0. -1.
         23    2    1    2    0    0  0.16956893275E+03  0.38491355730E+03  0.28262602464E+03  0.51498914169E+03  0.91783858635E+02 0.  0.
         13    1    3    3    0    0  0.11766352721E+03  0.18166356641E+03  0.10720708986E+03  0.24153616108E+03  0.00000000000E+00 0. -1.
        -13    1    3    3    0    0  0.51905405545E+02  0.20324999090E+03  0.17541893478E+03  0.27345298061E+03  0.00000000000E+00 0.  1.
         22    1    1    2    0    0 -0.16956893275E+03 -0.38491355730E+03 -0.21602432378E+04  0.22008096046E+04  0.00000000000E+00 0. -1.
<mgrwt>
<rscale>  0 0.19621714E+04</rscale>
<asrwt>0</asrwt>
<pdfrwt beam="1">  1        2 0.35333968E+00 0.19621714E+04</pdfrwt>
<pdfrwt beam="2">  1       -2 0.64475504E-01 0.19621714E+04</pdfrwt>
<totfact> 0.94280565E+00</totfact>
</mgrwt>
</event>
<event>
 6    1  0.8968082E-007  0.4788707E+03  0.7818608E-02  0.1019446E+00
          3   -1    0    0  501    0  0.00000000000E+00  0.00000000000E+00  0.87843864363E+02  0.87843864363E+02  0.00000000000E+00 0. -1.
         -3   -1    0    0    0  501 -0.00000000000E+00 -0.00000000000E+00 -0.65262719573E+03  0.65262719573E+03  0.00000000000E+00 0.  1.
         23    2    1    2    0    0  0.66944882250E+02  0.20081287186E+03 -0.43973747684E+03  0.49461766374E+03  0.80437292274E+02 0.  0.
         13    1    3    3    0    0  0.37927805065E+02  0.78990729050E+02 -0.26876236519E+03  0.28268580194E+03  0.00000000000E+00 0.  1.
        -13    1    3    3    0    0  0.29017077185E+02  0.12182214281E+03 -0.17097511164E+03  0.21193186180E+03  0.00000000000E+00 0. -1.
         22    1    1    2    0    0 -0.66944882250E+02 -0.20081287186E+03 -0.12504585454E+03  0.24585339636E+03  0.00000000000E+00 0. -1.
<mgrwt>
<rscale>  0 0.47887073E+03</rscale>
<asrwt>0</asrwt>
<pdfrwt beam="1">  1        3 0.13514440E-01 0.47887073E+03</pdfrwt>
<pdfrwt beam="2">  1       -3 0.10040419E+00 0.47887073E+03</pdfrwt>
<totfact> 0.10355743E+02</totfact>
</mgrwt>
</event>
<event>
 6    1  0.8968082E-007  0.1198001E+04  0.7818608E-02  0.9114608E-01
          1   -1    0    0  501    0  0.00000000000E+00  0.00000000000E+00  0.12736523363E+04  0.12736523363E+04  0.00000000000E+00 0. -1.
         -1   -1    0    0    0  501 -0.00000000000E+00 -0.00000000000E+00 -0.28171055020E+03  0.28171055020E+03  0.00000000000E+00 0.  1.
         23    2    1    2    0    0  0.26120869624E+03  0.52935122088E+03  0.39453405944E+03  0.71551844263E+03  0.88695093702E+02 0.  0.
         13    1    3    3    0    0  0.97862655288E+02  0.13887160548E+03  0.77763904096E+02  0.18684123445E+03  0.00000000000E+00 0.  1.
        -13    1    3    3    0    0  0.16334604095E+03  0.39047961539E+03  0.31677015534E+03  0.52867720818E+03  0.00000000000E+00 0. -1.
         22    1    1    2    0    0 -0.26120869624E+03 -0.52935122088E+03  0.59740772669E+03  0.83984444390E+03  0.00000000000E+00 0. -1.
<mgrwt>
<rscale>  0 0.11980005E+04</rscale>
<asrwt>0</asrwt>
<pdfrwt beam="1">  1        1 0.19594651E+00 0.11980005E+04</pdfrwt>
<pdfrwt beam="2">  1       -1 0.43340085E-01 0.11980005E+04</pdfrwt>
<totfact> 0.49106203E+01</totfact>
</mgrwt>
</event>
<event>
 6    1  0.8968082E-007  0.1750709E+04  0.7818608E-02  0.8732960E-01
         -2   -1    0    0    0  501 -0.00000000000E+00  0.00000000000E+00  0.66061451533E+03  0.66061451533E+03  0.00000000000E+00 0.  1.
          2   -1    0    0  501    0  0.00000000000E+00 -0.00000000000E+00 -0.11598979790E+04  0.11598979790E+04  0.00000000000E+00 0. -1.
         23    2    1    2    0    0  0.34054630390E+02  0.87138161613E+03 -0.29054370477E+03  0.92383087539E+03  0.92640181161E+02 0.  0.
         11    1    3    3    0    0  0.74047865679E+00  0.72069314305E+03 -0.26228975072E+03  0.76693876423E+03  0.00000000000E+00 0. -1.
        -11    1    3    3    0    0  0.33314151733E+02  0.15068847308E+03 -0.28253954048E+02  0.15689211116E+03  0.00000000000E+00 0.  1.
         22    1    1    2    0    0 -0.34054630390E+02 -0.87138161613E+03 -0.20873975889E+03  0.89668161893E+03  0.00000000000E+00 0.  1.
<mgrwt>
<rscale>  0 0.17507089E+04</rscale>
<asrwt>0</asrwt>
<pdfrwt beam="1">  1        2 0.17844584E+00 0.17507089E+04</pdfrwt>
<pdfrwt beam="2">  1       -2 0.10163300E+00 0.17507089E+04</pdfrwt>
<totfact> 0.15085297E+01</totfact>
</mgrwt>
</event>
<event>
 6    1  0.8968082E-007  0.6433998E+04  0.7818608E-02  0.7638803E-01
         -2   -1    0    0    0  501 -0.00000000000E+00  0.00000000000E+00  0.38540351290E+04  0.38540351290E+04  0.00000000000E+00 0.  1.
          2   -1    0    0  501    0  0.00000000000E+00 -0.00000000000E+00 -0.26852594170E+04  0.26852594170E+04  0.00000000000E+00 0. -1.
         23    2    1    2    0    0  0.22789218006E+04 -0.11963331865E+04  0.25448266125E+04  0.36206966382E+04  0.92757705948E+02 0.  0.
         11    1    3    3    0    0  0.18145426676E+04 -0.94651181736E+03  0.20746201355E+04  0.29141891530E+04  0.00000000000E+00 0.  1.
        -11    1    3    3    0    0  0.46437913304E+03 -0.24982136914E+03  0.47020647703E+03  0.70650748526E+03  0.00000000000E+00 0. -1.
         22    1    1    2    0    0 -0.22789218006E+04  0.11963331865E+04 -0.13760509005E+04  0.29185979078E+04  0.00000000000E+00 0. -1.
<mgrwt>
<rscale>  0 0.64339985E+04</rscale>
<asrwt>0</asrwt>
<pdfrwt beam="1">  1        2 0.41311683E+00 0.64339985E+04</pdfrwt>
<pdfrwt beam="2">  1       -2 0.59292848E+00 0.64339985E+04</pdfrwt>
<totfact> 0.97971466E-04</totfact>
</mgrwt>
</event>
<event>
 6    1  0.8968082E-007  0.1548198E+04  0.7818608E-02  0.8853019E-01
          2   -1    0    0  501    0  0.00000000000E+00  0.00000000000E+00  0.15336676166E+04  0.15336676166E+04  0.00000000000E+00 0. -1.
         -2   -1    0    0    0  501 -0.00000000000E+00 -0.00000000000E+00 -0.39071670905E+03  0.39071670905E+03  0.00000000000E+00 0.  1.
         23    2    1    2    0    0  0.51143783852E+02 -0.28379726603E+03  0.14627184573E+04  0.14937941950E+04  0.93376853383E+02 0.  0.
         11    1    3    3    0    0 -0.13337602527E+02 -0.17199352312E+03  0.90994401073E+03  0.92615212913E+03  0.00000000000E+00 0.  1.
        -11    1    3    3    0    0  0.64481386380E+02 -0.11180374291E+03  0.55277444656E+03  0.56764206582E+03  0.00000000000E+00 0. -1.
         22    1    1    2    0    0 -0.51143783852E+02  0.28379726603E+03 -0.31976754971E+03  0.43059013072E+03  0.00000000000E+00 0.  1.
<mgrwt>
<rscale>  0 0.15481984E+04</rscale>
<asrwt>0</asrwt>
<pdfrwt beam="1">  1        2 0.23594886E+00 0.15481984E+04</pdfrwt>
<pdfrwt beam="2">  1       -2 0.60110264E-01 0.15481984E+04</pdfrwt>
<totfact> 0.30173993E+01</totfact>
</mgrwt>
</event>
<event>
 6    1  0.8968082E-007  0.4744990E+04  0.7818608E-02  0.7869096E-01
          2   -1    0    0  501    0  0.00000000000E+00  0.00000000000E+00  0.47738381103E+04  0.47738381103E+04  0.00000000000E+00 0. -1.
         -2   -1    0    0    0  501 -0.00000000000E+00 -0.00000000000E+00 -0.11790788124E+04  0.11790788124E+04  0.00000000000E+00 0.  1.
         23    2    1    2    0    0  0.17414594076E+04  0.65009554365E+02  0.38159477281E+04  0.41962634475E+04  0.10130521863E+03 0.  0.
         11    1    3    3    0    0  0.78755469998E+03  0.33516807573E+02  0.18474730746E+04  0.20086120937E+04  0.00000000000E+00 0.  1.
        -11    1    3    3    0    0  0.95390470761E+03  0.31492746792E+02  0.19684746535E+04  0.21876513538E+04  0.00000000000E+00 0. -1.
         22    1    1    2    0    0 -0.17414594076E+04 -0.65009554365E+02 -0.22118843016E+03  0.17566534752E+04  0.00000000000E+00 0.  1.
<mgrwt>
<rscale>  0 0.47449895E+04</rscale>
<asrwt>0</asrwt>
<pdfrwt beam="1">  1        2 0.73443662E+00 0.47449895E+04</pdfrwt>
<pdfrwt beam="2">  1       -2 0.18139674E+00 0.47449895E+04</pdfrwt>
<totfact> 0.82854195E-03</totfact>
</mgrwt>
</event>
<event>
 6    1  0.8968082E-007  0.5254113E+04  0.7818608E-02  0.7790460E-01
         -2   -1    0    0    0  501 -0.00000000000E+00  0.00000000000E+00  0.18782495788E+04  0.18782495788E+04  0.00000000000E+00 0.  1.
          2   -1    0    0  501    0  0.00000000000E+00 -0.00000000000E+00 -0.36743926534E+04  0.36743926534E+04  0.00000000000E+00 0. -1.
         23    2    1    2    0    0 -0.13682335480E+04 -0.90826589607E+03  0.12675414931E+04  0.20765563428E+04  0.91732373550E+02 0.  0.
         13    1    3    3    0    0 -0.54930534287E+03 -0.36511654763E+03  0.45269589518E+03  0.79998751650E+03  0.00000000000E+00 0. -1.
        -13    1    3    3    0    0 -0.81892820510E+03 -0.54314934844E+03  0.81484559790E+03  0.12765688263E+04  0.00000000000E+00 0.  1.
         22    1    1    2    0    0  0.13682335480E+04  0.90826589607E+03 -0.30636845678E+04  0.34760858894E+04  0.00000000000E+00 0. -1.
<mgrwt>
<rscale>  0 0.52541132E+04</rscale>
<asrwt>0</asrwt>
<pdfrwt beam="1">  1        2 0.56529117E+00 0.52541132E+04</pdfrwt>
<pdfrwt beam="2">  1       -2 0.28896148E+00 0.52541132E+04</pdfrwt>
<totfact> 0.16103763E-02</totfact>
</mgrwt>
</event>
<event>
 6    1  0.8968082E-007  0.2162487E+04  0.7818608E-02  0.8534206E-01
         -1   -1    0    0    0  501 -0.00000000000E+00  0.00000000000E+00  0.94555271788E+03  0.94555271788E+03  0.00000000000E+00 0.  1.
          1   -1    0    0  501    0  0.00000000000E+00 -0.00000000000E+00 -0.12364062334E+04  0.12364062334E+04  0.00000000000E+00 0. -1.
         23    2    1    2    0    0  0.22908338648E+03 -0.10168250352E+04 -0.42827506204E+03  0.11306278752E+04  0.92127701342E+02 0.  0.
         13    1    3    3    0    0  0.75511798994E+02 -0.28596189759E+03 -0.78802542273E+02  0.30608181803E+03  0.00000000000E+00 0.  1.
        -13    1    3    3    0    0  0.15357158749E+03 -0.73086313757E+03 -0.34947251977E+03  0.82454605718E+03  0.00000000000E+00 0. -1.
         22    1    1    2    0    0 -0.22908338648E+03  0.10168250352E+04  0.13742154651E+03  0.10513310761E+04  0.00000000000E+00 0.  1.
<mgrwt>
<rscale>  0 0.21624868E+04</rscale>
<asrwt>0</asrwt>
<pdfrwt beam="1">  1        1 0.19021634E+00 0.21624868E+04</pdfrwt>
<pdfrwt beam="2">  1       -1 0.14546965E+00 0.21624868E+04</pdfrwt>
<totfact> 0.34833438E+00</totfact>
</mgrwt>
</event>
<event>
 6    1  0.8968082E-007  0.1168041E+04  0.7818608E-02  0.9141300E-01
         -2   -1    0    0    0  501 -0.00000000000E+00  0.00000000000E+00  0.18108298526E+04  0.18108298526E+04  0.00000000000E+00 0.  1.
          2   -1    0    0  501    0  0.00000000000E+00 -0.00000000000E+00 -0.18835550964E+03  0.18835550964E+03  0.00000000000E+00 0. -1.
         23    2    1    2    0    0 -0.33742828413E+03  0.46717070330E+03  0.69973076435E+03  0.91126899377E+03  0.93175766573E+02 0.  0.
         11    1    3    3    0    0 -0.19849808642E+03  0.21007865160E+03  0.30568022986E+03  0.42068388738E+03  0.00000000000E+00 0. -1.
        -11    1    3    3    0    0 -0.13893019770E+03  0.25709205170E+03  0.39405053449E+03  0.49058510639E+03  0.00000000000E+00 0.  1.
         22    1    1    2    0    0  0.33742828413E+03 -0.46717070330E+03  0.92274357864E+03  0.10879163685E+04  0.00000000000E+00 0. -1.
<mgrwt>
<rscale>  0 0.11680407E+04</rscale>
<asrwt>0</asrwt>
<pdfrwt beam="1">  1        2 0.28977772E-01 0.11680407E+04</pdfrwt>
<pdfrwt beam="2">  1       -2 0.27858920E+00 0.11680407E+04</pdfrwt>
<totfact> 0.79189182E+00</totfact>
</mgrwt>
</event>
<event>
 6    1  0.8968082E-007  0.3090012E+04  0.7818608E-02  0.8218484E-01
          2   -1    0    0  501    0  0.00000000000E+00  0.00000000000E+00  0.17759492586E+04  0.17759492586E+04  0.00000000000E+00 0. -1.
         -2   -1    0    0    0  501 -0.00000000000E+00 -0.00000000000E+00 -0.13440943066E+04  0.13440943066E+04  0.00000000000E+00 0.  1.
         23    2    1    2    0    0 -0.83544574415E+03 -0.49687921588E+03 -0.99462829203E+03  0.13938590467E+04  0.93268731036E+02 0.  0.
         11    1    3    3    0    0 -0.43536696877E+03 -0.30117415543E+03 -0.49863814205E+03  0.72724842118E+03  0.00000000000E+00 0. -1.
        -11    1    3    3    0    0 -0.40007877538E+03 -0.19570506045E+03 -0.49599014998E+03  0.66661062553E+03  0.00000000000E+00 0.  1.
         22    1    1    2    0    0  0.83544574415E+03  0.49687921588E+03  0.14264832440E+04  0.17261845185E+04  0.00000000000E+00 0. -1.
<mgrwt>
<rscale>  0 0.30900118E+04</rscale>
<asrwt>0</asrwt>
<pdfrwt beam="1">  1        2 0.27322296E+00 0.30900118E+04</pdfrwt>
<pdfrwt beam="2">  1       -2 0.20678374E+00 0.30900118E+04</pdfrwt>
<totfact> 0.90829109E-01</totfact>
</mgrwt>
</event>
<event>
 6    1  0.1340338E-006  0.3463692E+04  0.7818608E-02  0.8122449E-01
          1   -1    0    0  501    0  0.00000000000E+00  0.00000000000E+00  0.13797617285E+04  0.13797617285E+04  0.00000000000E+00 0. -1.
         -1   -1    0    0    0  501 -0.00000000000E+00 -0.00000000000E+00 -0.21737742971E+04  0.21737742971E+04  0.00000000000E+00 0.  1.
         23    2    1    2    0    0  0.97607744893E+03 -0.57896806105E+03 -0.17377405027E+04  0.20775436084E+04  0.92272357383E+02 0.  0.
         13    1    3    3    0    0  0.50377752214E+03 -0.32049849587E+03 -0.99040792163E+03  0.11564683000E+04  0.00000000000E+00 0.  1.
        -13    1    3    3    0    0  0.47229992679E+03 -0.25846956518E+03 -0.74733258105E+03  0.92107530836E+03  0.00000000000E+00 0. -1.
         22    1    1    2    0    0 -0.97607744893E+03  0.57896806105E+03  0.94372793416E+03  0.14759924172E+04  0.00000000000E+00 0. -1.
<mgrwt>
<rscale>  0 0.34636920E+04</rscale>
<asrwt>0</asrwt>
<pdfrwt beam="1">  1        1 0.21227103E+00 0.34636920E+04</pdfrwt>
<pdfrwt beam="2">  1       -1 0.33442682E+00 0.34636920E+04</pdfrwt>
<totfact> 0.12787064E-01</totfact>
</mgrwt>
</event>
<event>
 6    1  0.8968082E-007  0.2485364E+04  0.7818608E-02  0.8408218E-01
          2   -1    0    0  501    0  0.00000000000E+00  0.00000000000E+00  0.13950489593E+04  0.13950489593E+04  0.00000000000E+00 0. -1.
         -2   -1    0    0    0  501 -0.00000000000E+00 -0.00000000000E+00 -0.11069567264E+04  0.11069567264E+04  0.00000000000E+00 0.  1.
         23    2    1    2    0    0  0.43289661485E+03  0.11320565856E+04  0.41239607264E+03  0.12836448866E+04  0.93392086522E+02 0.  0.
         11    1    3    3    0    0  0.37815521838E+03  0.91536823503E+03  0.36239976201E+03  0.10546250340E+04  0.00000000000E+00 0.  1.
        -11    1    3    3    0    0  0.54741396465E+02  0.21668835062E+03  0.49996310625E+02  0.22901985254E+03  0.00000000000E+00 0. -1.
         22    1    1    2    0    0 -0.43289661485E+03 -0.11320565856E+04 -0.12430383978E+03  0.12183607991E+04  0.00000000000E+00 0.  1.
<mgrwt>
<rscale>  0 0.24853642E+04</rscale>
<asrwt>0</asrwt>
<pdfrwt beam="1">  1        2 0.21462292E+00 0.24853642E+04</pdfrwt>
<pdfrwt beam="2">  1       -2 0.17030103E+00 0.24853642E+04</pdfrwt>
<totfact> 0.27587833E+00</totfact>
</mgrwt>
</event>
<event>
 6    1  0.8968082E-007  0.4961844E+04  0.7818608E-02  0.7834420E-01
         -1   -1    0    0    0  501 -0.00000000000E+00  0.00000000000E+00  0.20672252582E+04  0.20672252582E+04  0.00000000000E+00 0.  1.
          1   -1    0    0  501    0  0.00000000000E+00 -0.00000000000E+00 -0.29774084260E+04  0.29774084260E+04  0.00000000000E+00 0. -1.
         23    2    1    2    0    0 -0.78937872281E+03 -0.71931573148E+03  0.18205446295E+04  0.21124999573E+04  0.87974040962E+02 0.  0.
         13    1    3    3    0    0 -0.34362217623E+03 -0.28818606833E+03  0.68735174654E+03  0.82071909534E+03  0.00000000000E+00 0.  1.
        -13    1    3    3    0    0 -0.44575654657E+03 -0.43112966316E+03  0.11331928830E+04  0.12917808620E+04  0.00000000000E+00 0. -1.
         22    1    1    2    0    0  0.78937872281E+03  0.71931573148E+03 -0.27307277973E+04  0.29321337269E+04  0.00000000000E+00 0. -1.
<mgrwt>
<rscale>  0 0.49618440E+04</rscale>
<asrwt>0</asrwt>
<pdfrwt beam="1">  1        1 0.45806283E+00 0.49618440E+04</pdfrwt>
<pdfrwt beam="2">  1       -1 0.31803466E+00 0.49618440E+04</pdfrwt>
<totfact> 0.11332591E-02</totfact>
</mgrwt>
</event>
<event>
 6    1  0.8968082E-007  0.1696170E+04  0.7818608E-02  0.8763552E-01
         -2   -1    0    0    0  501 -0.00000000000E+00  0.00000000000E+00  0.49852423400E+03  0.49852423400E+03  0.00000000000E+00 0.  1.
          2   -1    0    0  501    0  0.00000000000E+00 -0.00000000000E+00 -0.14427549865E+04  0.14427549865E+04  0.00000000000E+00 0. -1.
         23    2    1    2    0    0 -0.69906207204E+03 -0.34325255347E+03 -0.94702783303E+02  0.78880021138E+03  0.82018658091E+02 0.  0.
         13    1    3    3    0    0 -0.22458231753E+03 -0.72609681110E+02 -0.45240342575E+02  0.24032492949E+03  0.00000000000E+00 0. -1.
        -13    1    3    3    0    0 -0.47447975451E+03 -0.27064287236E+03 -0.49462440727E+02  0.54847528189E+03  0.00000000000E+00 0.  1.
         22    1    1    2    0    0  0.69906207204E+03  0.34325255347E+03 -0.84952796918E+03  0.11524790091E+04  0.00000000000E+00 0. -1.
<mgrwt>
<rscale>  0 0.16961702E+04</rscale>
<asrwt>0</asrwt>
<pdfrwt beam="1">  1        2 0.22196231E+00 0.16961702E+04</pdfrwt>
<pdfrwt beam="2">  1       -2 0.76696036E-01 0.16961702E+04</pdfrwt>
<totfact> 0.19781985E+01</totfact>
</mgrwt>
</event>
<event>
 6    1  0.8968082E-007  0.1099931E+04  0.7818608E-02  0.9205259E-01
          1   -1    0    0  501    0  0.00000000000E+00  0.00000000000E+00  0.15137153178E+04  0.15137153178E+04  0.00000000000E+00 0. -1.
         -1   -1    0    0    0  501 -0.00000000000E+00 -0.00000000000E+00 -0.19981431121E+03  0.19981431121E+03  0.00000000000E+00 0.  1.
         23    2    1    2    0    0  0.36385248596E+03  0.15843605913E+03  0.12459967441E+04  0.13109111927E+04  0.92139309874E+02 0.  0.
         13    1    3    3    0    0  0.60419811618E+02  0.32741325533E+02  0.34840098236E+03  0.35511377408E+03  0.00000000000E+00 0.  1.
        -13    1    3    3    0    0  0.30343267434E+03  0.12569473360E+03  0.89759576178E+03  0.95579741864E+03  0.00000000000E+00 0. -1.
         22    1    1    2    0    0 -0.36385248596E+03 -0.15843605913E+03  0.67904262429E+02  0.40261843627E+03  0.00000000000E+00 0.  1.
<mgrwt>
<rscale>  0 0.10999309E+04</rscale>
<asrwt>0</asrwt>
<pdfrwt beam="1">  1        1 0.23287927E+00 0.10999309E+04</pdfrwt>
<pdfrwt beam="2">  1       -1 0.30740664E-01 0.10999309E+04</pdfrwt>
<totfact> 0.62327118E+01</totfact>
</mgrwt>
</event>
<event>
 6    1  0.8968082E-007  0.1634191E+04  0.7818608E-02  0.8799814E-01
         -2   -1    0    0    0  501 -0.00000000000E+00  0.00000000000E+00  0.10828682289E+04  0.10828682289E+04  0.00000000000E+00 0.  1.
          2   -1    0    0  501    0  0.00000000000E+00 -0.00000000000E+00 -0.61655269130E+03  0.61655269130E+03  0.00000000000E+00 0. -1.
         23    2    1    2    0    0  0.13960825538E+03 -0.62219348527E+03  0.76122932736E+03  0.99686178292E+03  0.87453572442E+02 0.  0.
         13    1    3    3    0    0  0.16991935472E+02 -0.10964317697E+03  0.18710030433E+03  0.21752442623E+03  0.00000000000E+00 0. -1.
        -13    1    3    3    0    0  0.12261631991E+03 -0.51255030829E+03  0.57412902303E+03  0.77933735668E+03  0.00000000000E+00 0.  1.
         22    1    1    2    0    0 -0.13960825538E+03  0.62219348527E+03 -0.29491378972E+03  0.70255913733E+03  0.00000000000E+00 0. -1.
<mgrwt>
<rscale>  0 0.16341913E+04</rscale>
<asrwt>0</asrwt>
<pdfrwt beam="1">  1        2 0.94854261E-01 0.16341913E+04</pdfrwt>
<pdfrwt beam="2">  1       -2 0.16659511E+00 0.16341913E+04</pdfrwt>
<totfact> 0.10337170E+01</totfact>
</mgrwt>
</event>
<event>
 6    1  0.8968082E-007  0.1863644E+04  0.7818608E-02  0.8673167E-01
         -1   -1    0    0    0  501 -0.00000000000E+00  0.00000000000E+00  0.37309460102E+03  0.37309460102E+03  0.00000000000E+00 0.  1.
          1   -1    0    0  501    0  0.00000000000E+00 -0.00000000000E+00 -0.23272721968E+04  0.23272721968E+04  0.00000000000E+00 0. -1.
         23    2    1    2    0    0  0.67816707523E+02 -0.92632431626E+03 -0.92099093877E+03  0.13110682291E+04  0.89441307406E+02 0.  0.
         11    1    3    3    0    0 -0.17750014799E+01 -0.96576824275E+02 -0.62192375757E+02  0.11488309371E+03  0.00000000000E+00 0. -1.
        -11    1    3    3    0    0  0.69591709003E+02 -0.82974749198E+03 -0.85879856301E+03  0.11961851354E+04  0.00000000000E+00 0.  1.
         22    1    1    2    0    0 -0.67816707523E+02  0.92632431626E+03 -0.10331866570E+04  0.13892985687E+04  0.00000000000E+00 0.  1.
<mgrwt>
<rscale>  0 0.18636445E+04</rscale>
<asrwt>0</asrwt>
<pdfrwt beam="1">  1        1 0.35804188E+00 0.18636445E+04</pdfrwt>
<pdfrwt beam="2">  1       -1 0.57399169E-01 0.18636445E+04</pdfrwt>
<totfact> 0.51452072E+00</totfact>
</mgrwt>
</event>
<event>
 6    1  0.8968082E-007  0.4859815E+04  0.7818608E-02  0.7850504E-01
         -2   -1    0    0    0  501 -0.00000000000E+00  0.00000000000E+00  0.54057736678E+04  0.54057736678E+04  0.00000000000E+00 0.  1.
          2   -1    0    0  501    0  0.00000000000E+00 -0.00000000000E+00 -0.10922488190E+04  0.10922488190E+04  0.00000000000E+00 0. -1.
         23    2    1    2    0    0 -0.12318799612E+04  0.10050824394E+04 -0.29779933959E+03  0.16203150622E+04  0.94960545856E+02 0.  0.
         11    1    3    3    0    0 -0.56144313103E+03  0.50861988177E+03 -0.11452300276E+03  0.76617758495E+03  0.00000000000E+00 0. -1.
        -11    1    3    3    0    0 -0.67043683017E+03  0.49646255768E+03 -0.18327633683E+03  0.85413747727E+03  0.00000000000E+00 0.  1.
         22    1    1    2    0    0  0.12318799612E+04 -0.10050824394E+04  0.46113241884E+04  0.48777074245E+04  0.00000000000E+00 0.  1.
<mgrwt>
<rscale>  0 0.48598148E+04</rscale>
<asrwt>0</asrwt>
<pdfrwt beam="1">  1        2 0.16803828E+00 0.48598148E+04</pdfrwt>
<pdfrwt beam="2">  1       -2 0.83165747E+00 0.48598148E+04</pdfrwt>
<totfact> 0.75696298E-04</totfact>
</mgrwt>
</event>
<event>
 6    1  0.8968082E-007  0.4131563E+04  0.7818608E-02  0.7978520E-01
         -2   -1    0    0    0  501 -0.00000000000E+00  0.00000000000E+00  0.96783224345E+03  0.96783224345E+03  0.00000000000E+00 0.  1.
          2   -1    0    0  501    0  0.00000000000E+00 -0.00000000000E+00 -0.44092906533E+04  0.44092906533E+04  0.00000000000E+00 0. -1.
         23    2    1    2    0    0  0.11735540411E+04 -0.37629254932E+03 -0.38776541962E+04  0.40698004674E+04  0.90821855847E+02 0.  0.
         11    1    3    3    0    0  0.10556353899E+04 -0.35747438423E+03 -0.34323873580E+04  0.36087999372E+04  0.00000000000E+00 0. -1.
        -11    1    3    3    0    0  0.11791865119E+03 -0.18818165096E+02 -0.44526683819E+03  0.46100053018E+03  0.00000000000E+00 0.  1.
         22    1    1    2    0    0 -0.11735540411E+04  0.37629254932E+03  0.43619578634E+03  0.13073224293E+04  0.00000000000E+00 0.  1.
<mgrwt>
<rscale>  0 0.41315632E+04</rscale>
<asrwt>0</asrwt>
<pdfrwt beam="1">  1        2 0.67835240E+00 0.41315632E+04</pdfrwt>
<pdfrwt beam="2">  1       -2 0.14889727E+00 0.41315632E+04</pdfrwt>
<totfact> 0.35632167E-02</totfact>
</mgrwt>
</event>
<event>
 6    1  0.8968082E-007  0.7726827E+03  0.7818608E-02  0.9600422E-01
         -2   -1    0    0    0  501 -0.00000000000E+00  0.00000000000E+00  0.41547631805E+02  0.41547631805E+02  0.00000000000E+00 0.  1.
          2   -1    0    0  501    0  0.00000000000E+00 -0.00000000000E+00 -0.35924946801E+04  0.35924946801E+04  0.00000000000E+00 0. -1.
         23    2    1    2    0    0 -0.57913353965E+02 -0.13232718849E+03 -0.34580528067E+04  0.34623047752E+04  0.92524058018E+02 0.  0.
         11    1    3    3    0    0 -0.61811416823E+02 -0.10774192310E+03 -0.19013960971E+04  0.19054490524E+04  0.00000000000E+00 0. -1.
        -11    1    3    3    0    0  0.38980628575E+01 -0.24585265388E+02 -0.15566567096E+04  0.15568557228E+04  0.00000000000E+00 0.  1.
         22    1    1    2    0    0  0.57913353965E+02  0.13232718849E+03 -0.92894241601E+02  0.17173753668E+03  0.00000000000E+00 0.  1.
<mgrwt>
<rscale>  0 0.77268272E+03</rscale>
<asrwt>0</asrwt>
<pdfrwt beam="1">  1        2 0.55269143E+00 0.77268272E+03</pdfrwt>
<pdfrwt beam="2">  1       -2 0.63919440E-02 0.77268272E+03</pdfrwt>
<totfact> 0.10582654E+02</totfact>
</mgrwt>
</event>
<event>
 6    1  0.8968082E-007  0.3901588E+04  0.7818608E-02  0.8024699E-01
         -2   -1    0    0    0  501 -0.00000000000E+00  0.00000000000E+00  0.17486345970E+04  0.17486345970E+04  0.00000000000E+00 0.  1.
          2   -1    0    0  501    0  0.00000000000E+00 -0.00000000000E+00 -0.21763250021E+04  0.21763250021E+04  0.00000000000E+00 0. -1.
         23    2    1    2    0    0  0.18203826529E+03 -0.18655680238E+04  0.32573895038E+03  0.19047769898E+04  0.92668957958E+02 0.  0.
         13    1    3    3    0    0  0.27065691059E+02 -0.70795698895E+03  0.13965732021E+03  0.72210789840E+03  0.00000000000E+00 0. -1.
        -13    1    3    3    0    0  0.15497257423E+03 -0.11576110348E+04  0.18608163017E+03  0.11826690914E+04  0.00000000000E+00 0.  1.
         22    1    1    2    0    0 -0.18203826529E+03  0.18655680238E+04 -0.75342935550E+03  0.20201826093E+04  0.00000000000E+00 0.  1.
<mgrwt>
<rscale>  0 0.39015880E+04</rscale>
<asrwt>0</asrwt>
<pdfrwt beam="1">  1        2 0.33481923E+00 0.39015880E+04</pdfrwt>
<pdfrwt beam="2">  1       -2 0.26902071E+00 0.39015880E+04</pdfrwt>
<totfact> 0.20806991E-01</totfact>
</mgrwt>
</event>
<event>
 6    1  0.8968082E-007  0.2084399E+04  0.7818608E-02  0.8568147E-01
          4   -1    0    0  501    0  0.00000000000E+00  0.00000000000E+00  0.12536198152E+04  0.12536198152E+04  0.00000000000E+00 0. -1.
         -4   -1    0    0    0  501 -0.00000000000E+00 -0.00000000000E+00 -0.86643515705E+03  0.86643515705E+03  0.00000000000E+00 0.  1.
         23    2    1    2    0    0 -0.83392307159E+03 -0.18953427805E+03 -0.40824070086E+03  0.95212841906E+03  0.92396561940E+02 0.  0.
         13    1    3    3    0    0 -0.58611007083E+03 -0.11001099649E+03 -0.24370199486E+03  0.64421898200E+03  0.00000000000E+00 0.  1.
        -13    1    3    3    0    0 -0.24781300076E+03 -0.79523281560E+02 -0.16453870600E+03  0.30790943706E+03  0.00000000000E+00 0. -1.
         22    1    1    2    0    0  0.83392307159E+03  0.18953427805E+03  0.79542535901E+03  0.11679265532E+04  0.00000000000E+00 0. -1.
<mgrwt>
<rscale>  0 0.20843995E+04</rscale>
<asrwt>0</asrwt>
<pdfrwt beam="1">  1        4 0.19286459E+00 0.20843995E+04</pdfrwt>
<pdfrwt beam="2">  1       -4 0.13329772E+00 0.20843995E+04</pdfrwt>
<totfact> 0.10992339E-01</totfact>
</mgrwt>
</event>
<event>
 6    1  0.8968082E-007  0.1129984E+04  0.7818608E-02  0.9176451E-01
          1   -1    0    0  501    0  0.00000000000E+00  0.00000000000E+00  0.44193033037E+03  0.44193033037E+03  0.00000000000E+00 0. -1.
         -1   -1    0    0    0  501 -0.00000000000E+00 -0.00000000000E+00 -0.72232142022E+03  0.72232142022E+03  0.00000000000E+00 0.  1.
         23    2    1    2    0    0 -0.39229223581E+03 -0.13253105673E+03  0.24923993181E+03  0.49196706507E+03  0.91942211400E+02 0.  0.
         13    1    3    3    0    0 -0.25918841031E+03 -0.41004852336E+02  0.14669157887E+03  0.30063008709E+03  0.00000000000E+00 0. -1.
        -13    1    3    3    0    0 -0.13310382550E+03 -0.91526204392E+02  0.10254835294E+03  0.19133697798E+03  0.00000000000E+00 0.  1.
         22    1    1    2    0    0  0.39229223581E+03  0.13253105673E+03 -0.52963102166E+03  0.67228468551E+03  0.00000000000E+00 0.  1.
<mgrwt>
<rscale>  0 0.11299836E+04</rscale>
<asrwt>0</asrwt>
<pdfrwt beam="1">  1        1 0.67989282E-01 0.11299836E+04</pdfrwt>
<pdfrwt beam="2">  1       -1 0.11112637E+00 0.11299836E+04</pdfrwt>
<totfact> 0.38896454E+01</totfact>
</mgrwt>
</event>
<event>
 6    1  0.8968082E-007  0.3414158E+04  0.7818608E-02  0.8134440E-01
          2   -1    0    0  501    0  0.00000000000E+00  0.00000000000E+00  0.29942857517E+04  0.29942857517E+04  0.00000000000E+00 0. -1.
         -2   -1    0    0    0  501 -0.00000000000E+00 -0.00000000000E+00 -0.97322684101E+03  0.97322684101E+03  0.00000000000E+00 0.  1.
         23    2    1    2    0    0 -0.95851568506E+02 -0.10274792392E+04 -0.56719392178E+03  0.11811253556E+04  0.91907838450E+02 0.  0.
         13    1    3    3    0    0 -0.65868616694E+02 -0.95374232588E+03 -0.53228105752E+03  0.10942057499E+04  0.00000000000E+00 0.  1.
        -13    1    3    3    0    0 -0.29982951812E+02 -0.73736913278E+02 -0.34912864259E+02  0.86919605786E+02  0.00000000000E+00 0. -1.
         22    1    1    2    0    0  0.95851568506E+02  0.10274792392E+04  0.25882528325E+04  0.27863872371E+04  0.00000000000E+00 0. -1.
<mgrwt>
<rscale>  0 0.34141583E+04</rscale>
<asrwt>0</asrwt>
<pdfrwt beam="1">  1        2 0.46065934E+00 0.34141583E+04</pdfrwt>
<pdfrwt beam="2">  1       -2 0.14972721E+00 0.34141583E+04</pdfrwt>
<totfact> 0.43705163E-01</totfact>
</mgrwt>
</event>
<event>
 6    1  0.8968082E-007  0.1138000E+04  0.7818608E-02  0.9168926E-01
         -1   -1    0    0    0  501 -0.00000000000E+00  0.00000000000E+00  0.64733548141E+03  0.64733548141E+03  0.00000000000E+00 0.  1.
          1   -1    0    0  501    0  0.00000000000E+00 -0.00000000000E+00 -0.50014422868E+03  0.50014422868E+03  0.00000000000E+00 0. -1.
         23    2    1    2    0    0 -0.11857511209E+03  0.20748721838E+03 -0.44259462828E+03  0.51111630099E+03  0.90768194669E+02 0.  0.
         11    1    3    3    0    0 -0.59865439342E+02  0.73680172506E+02 -0.96162318859E+02  0.13512893923E+03  0.00000000000E+00 0.  1.
        -11    1    3    3    0    0 -0.58709672744E+02  0.13380704588E+03 -0.34643230942E+03  0.37598736177E+03  0.00000000000E+00 0. -1.
         22    1    1    2    0    0  0.11857511209E+03 -0.20748721838E+03  0.58978588101E+03  0.63636340910E+03  0.00000000000E+00 0.  1.
<mgrwt>
<rscale>  0 0.11380002E+04</rscale>
<asrwt>0</asrwt>
<pdfrwt beam="1">  1        1 0.76945266E-01 0.11380002E+04</pdfrwt>
<pdfrwt beam="2">  1       -1 0.99590074E-01 0.11380002E+04</pdfrwt>
<totfact> 0.42394011E+01</totfact>
</mgrwt>
</event>
<event>
 6    1  0.8968082E-007  0.2215768E+04  0.7818608E-02  0.8511893E-01
         -2   -1    0    0    0  501 -0.00000000000E+00  0.00000000000E+00  0.16944474080E+04  0.16944474080E+04  0.00000000000E+00 0.  1.
          2   -1    0    0  501    0  0.00000000000E+00 -0.00000000000E+00 -0.72437035694E+03  0.72437035694E+03  0.00000000000E+00 0. -1.
         23    2    1    2    0    0  0.26543562944E+03 -0.10575461499E+04  0.28408860231E+03  0.11306252000E+04  0.93525807005E+02 0.  0.
         11    1    3    3    0    0  0.15558889853E+03 -0.45234530746E+03  0.14715115560E+03  0.50047741720E+03  0.00000000000E+00 0. -1.
        -11    1    3    3    0    0  0.10984673092E+03 -0.60520084239E+03  0.13693744670E+03  0.63014778285E+03  0.00000000000E+00 0.  1.
         22    1    1    2    0    0 -0.26543562944E+03  0.10575461499E+04  0.68598844878E+03  0.12881925649E+04  0.00000000000E+00 0.  1.
<mgrwt>
<rscale>  0 0.22157685E+04</rscale>
<asrwt>0</asrwt>
<pdfrwt beam="1">  1        2 0.11144159E+00 0.22157685E+04</pdfrwt>
<pdfrwt beam="2">  1       -2 0.26068421E+00 0.22157685E+04</pdfrwt>
<totfact> 0.19782906E+00</totfact>
</mgrwt>
</event>
<event>
 6    1  0.8968082E-007  0.2057052E+04  0.7818608E-02  0.8580402E-01
          2   -1    0    0  501    0  0.00000000000E+00  0.00000000000E+00  0.12251844153E+04  0.12251844153E+04  0.00000000000E+00 0. -1.
         -2   -1    0    0    0  501 -0.00000000000E+00 -0.00000000000E+00 -0.86343421187E+03  0.86343421187E+03  0.00000000000E+00 0.  1.
         23    2    1    2    0    0 -0.78908231043E+03 -0.49732535316E+03 -0.25144666551E+03  0.97237770353E+03  0.11094851601E+03 0.  0.
         11    1    3    3    0    0 -0.24206234920E+03 -0.21241109097E+03 -0.71407406540E+02  0.32986613978E+03  0.00000000000E+00 0.  1.
        -11    1    3    3    0    0 -0.54701996123E+03 -0.28491426220E+03 -0.18003925897E+03  0.64251156375E+03  0.00000000000E+00 0. -1.
         22    1    1    2    0    0  0.78908231043E+03  0.49732535316E+03  0.61319686893E+03  0.11162409236E+04  0.00000000000E+00 0. -1.
<mgrwt>
<rscale>  0 0.20570524E+04</rscale>
<asrwt>0</asrwt>
<pdfrwt beam="1">  1        2 0.18848991E+00 0.20570524E+04</pdfrwt>
<pdfrwt beam="2">  1       -2 0.13283603E+00 0.20570524E+04</pdfrwt>
<totfact> 0.69574540E+00</totfact>
</mgrwt>
</event>
<event>
 6    1  0.8968082E-007  0.1429783E+04  0.7818608E-02  0.8932538E-01
         -1   -1    0    0    0  501 -0.00000000000E+00  0.00000000000E+00  0.36755661910E+03  0.36755661910E+03  0.00000000000E+00 0.  1.
          1   -1    0    0  501    0  0.00000000000E+00 -0.00000000000E+00 -0.13904528213E+04  0.13904528213E+04  0.00000000000E+00 0. -1.
         23    2    1    2    0    0  0.51678662243E+03  0.38065403826E+03 -0.89136654938E+03  0.11028255276E+04  0.98609883459E+02 0.  0.
         13    1    3    3    0    0  0.27877035269E+03  0.17064148005E+03 -0.38311642701E+03  0.50359668475E+03  0.00000000000E+00 0.  1.
        -13    1    3    3    0    0  0.23801626974E+03  0.21001255821E+03 -0.50825012237E+03  0.59922884289E+03  0.00000000000E+00 0. -1.
         22    1    1    2    0    0 -0.51678662243E+03 -0.38065403826E+03 -0.13152965283E+03  0.65518391276E+03  0.00000000000E+00 0.  1.
<mgrwt>
<rscale>  0 0.14297834E+04</rscale>
<asrwt>0</asrwt>
<pdfrwt beam="1">  1        1 0.21391582E+00 0.14297834E+04</pdfrwt>
<pdfrwt beam="2">  1       -1 0.56547172E-01 0.14297834E+04</pdfrwt>
<totfact> 0.24022891E+01</totfact>
</mgrwt>
</event>
<event>
 6    1  0.8968082E-007  0.9492355E+03  0.7818608E-02  0.9366045E-01
         -2   -1    0    0    0  501 -0.00000000000E+00  0.00000000000E+00  0.12853119562E+03  0.12853119562E+03  0.00000000000E+00 0.  1.
          2   -1    0    0  501    0  0.00000000000E+00 -0.00000000000E+00 -0.17525863210E+04  0.17525863210E+04  0.00000000000E+00 0. -1.
         23    2    1    2    0    0  0.23180858630E+03  0.39845590372E+03 -0.10007495916E+04  0.11058678043E+04  0.94559651840E+02 0.  0.
         13    1    3    3    0    0  0.15109963958E+03  0.18356708696E+03 -0.44391775515E+03  0.50357814670E+03  0.00000000000E+00 0.  1.
        -13    1    3    3    0    0  0.80708946719E+02  0.21488881676E+03 -0.55683183642E+03  0.60228965764E+03  0.00000000000E+00 0. -1.
         22    1    1    2    0    0 -0.23180858630E+03 -0.39845590372E+03 -0.62330553380E+03  0.77524971226E+03  0.00000000000E+00 0.  1.
<mgrwt>
<rscale>  0 0.94923551E+03</rscale>
<asrwt>0</asrwt>
<pdfrwt beam="1">  1        2 0.26962864E+00 0.94923551E+03</pdfrwt>
<pdfrwt beam="2">  1       -2 0.19774032E-01 0.94923551E+03</pdfrwt>
<totfact> 0.20040633E+02</totfact>
</mgrwt>
</event>
<event>
 6    1  0.8968082E-007  0.4412042E+04  0.7818608E-02  0.7926219E-01
         -2   -1    0    0    0  501 -0.00000000000E+00  0.00000000000E+00  0.37084934529E+04  0.37084934529E+04  0.00000000000E+00 0.  1.
          2   -1    0    0  501    0  0.00000000000E+00 -0.00000000000E+00 -0.13122656153E+04  0.13122656153E+04  0.00000000000E+00 0. -1.
         23    2    1    2    0    0 -0.79842299612E+03 -0.16399633652E+04 -0.21244405597E+03  0.18376586664E+04  0.69984122857E+02 0.  0.
         13    1    3    3    0    0 -0.42084910998E+03 -0.82956433550E+03 -0.76631336524E+02  0.93336130295E+03  0.00000000000E+00 0. -1.
        -13    1    3    3    0    0 -0.37757388614E+03 -0.81039902966E+03 -0.13581271945E+03  0.90429736345E+03  0.00000000000E+00 0.  1.
         22    1    1    2    0    0  0.79842299612E+03  0.16399633652E+04  0.26086718935E+04  0.31831004018E+04  0.00000000000E+00 0.  1.
<mgrwt>
<rscale>  0 0.44120419E+04</rscale>
<asrwt>0</asrwt>
<pdfrwt beam="1">  1        2 0.20188702E+00 0.44120419E+04</pdfrwt>
<pdfrwt beam="2">  1       -2 0.57053745E+00 0.44120419E+04</pdfrwt>
<totfact> 0.84476593E-03</totfact>
</mgrwt>
</event>
<event>
 6    1  0.8968082E-007  0.6060045E+03  0.7818608E-02  0.9893026E-01
          2   -1    0    0  501    0  0.00000000000E+00  0.00000000000E+00  0.28563008046E+03  0.28563008046E+03  0.00000000000E+00 0. -1.
         -2   -1    0    0    0  501 -0.00000000000E+00 -0.00000000000E+00 -0.32143096991E+03  0.32143096991E+03  0.00000000000E+00 0.  1.
         23    2    1    2    0    0 -0.23138476181E+03  0.16219680265E+03 -0.10729211093E+03  0.31558599906E+03  0.90753594702E+02 0.  0.
         13    1    3    3    0    0 -0.16916882048E+03  0.15683850367E+03 -0.63345147795E+02  0.23922586358E+03  0.00000000000E+00 0. -1.
        -13    1    3    3    0    0 -0.62215941327E+02  0.53582989854E+01 -0.43946963130E+02  0.76360135487E+02  0.00000000000E+00 0.  1.
         22    1    1    2    0    0  0.23138476181E+03 -0.16219680265E+03  0.71491221480E+02  0.29147505131E+03  0.00000000000E+00 0. -1.
<mgrwt>
<rscale>  0 0.60600447E+03</rscale>
<asrwt>0</asrwt>
<pdfrwt beam="1">  1        2 0.43943089E-01 0.60600447E+03</pdfrwt>
<pdfrwt beam="2">  1       -2 0.49450919E-01 0.60600447E+03</pdfrwt>
<totfact> 0.45286509E+02</totfact>
</mgrwt>
</event>
<event>
 6    1  0.8968082E-007  0.2091428E+04  0.7818608E-02  0.8565029E-01
          1   -1    0    0  501    0  0.00000000000E+00  0.00000000000E+00  0.25542175236E+04  0.25542175236E+04  0.00000000000E+00 0. -1.
         -1   -1    0    0    0  501 -0.00000000000E+00 -0.00000000000E+00 -0.42812261664E+03  0.42812261664E+03  0.00000000000E+00 0.  1.
         23    2    1    2    0    0 -0.71314472940E+03  0.43498097491E+03  0.19573138794E+04  0.21301248571E+04  0.92576620163E+02 0.  0.
         11    1    3    3    0    0 -0.36998297044E+03  0.26226670315E+03  0.97311172389E+03  0.10736003210E+04  0.00000000000E+00 0.  1.
        -11    1    3    3    0    0 -0.34316175895E+03  0.17271427175E+03  0.98420215552E+03  0.10565245361E+04  0.00000000000E+00 0. -1.
         22    1    1    2    0    0  0.71314472940E+03 -0.43498097491E+03  0.16878102756E+03  0.85221528317E+03  0.00000000000E+00 0.  1.
<mgrwt>
<rscale>  0 0.20914285E+04</rscale>
<asrwt>0</asrwt>
<pdfrwt beam="1">  1        1 0.39295653E+00 0.20914285E+04</pdfrwt>
<pdfrwt beam="2">  1       -1 0.65865019E-01 0.20914285E+04</pdfrwt>
<totfact> 0.26716483E+00</totfact>
</mgrwt>
</event>
<event>
 6    1  0.8968082E-007  0.1407556E+04  0.7818608E-02  0.8948367E-01
          1   -1    0    0  501    0  0.00000000000E+00  0.00000000000E+00  0.12633080857E+04  0.12633080857E+04  0.00000000000E+00 0. -1.
         -1   -1    0    0    0  501 -0.00000000000E+00 -0.00000000000E+00 -0.39206845548E+03  0.39206845548E+03  0.00000000000E+00 0.  1.
         23    2    1    2    0    0 -0.79492669273E+02 -0.47175259119E+03  0.10396427264E+04  0.11481988657E+04  0.92919560769E+02 0.  0.
         11    1    3    3    0    0  0.11576563802E+02 -0.11018010112E+03  0.18293026695E+03  0.21386246534E+03  0.00000000000E+00 0.  1.
        -11    1    3    3    0    0 -0.91069233075E+02 -0.36157249007E+03  0.85671245949E+03  0.93433640036E+03  0.00000000000E+00 0. -1.
         22    1    1    2    0    0  0.79492669273E+02  0.47175259119E+03 -0.16840309618E+03  0.50717767554E+03  0.00000000000E+00 0.  1.
<mgrwt>
<rscale>  0 0.14075557E+04</rscale>
<asrwt>0</asrwt>
<pdfrwt beam="1">  1        1 0.19435509E+00 0.14075557E+04</pdfrwt>
<pdfrwt beam="2">  1       -1 0.60318225E-01 0.14075557E+04</pdfrwt>
<totfact> 0.26104242E+01</totfact>
</mgrwt>
</event>
<event>
 6    1  0.1685540E-006  0.2298528E+04  0.7818608E-02  0.8478502E-01
          1   -1    0    0  501    0  0.00000000000E+00  0.00000000000E+00  0.12249590913E+04  0.12249590913E+04  0.00000000000E+00 0. -1.
         -1   -1    0    0    0  501 -0.00000000000E+00 -0.00000000000E+00 -0.10782463325E+04  0.10782463325E+04  0.00000000000E+00 0.  1.
         23    2    1    2    0    0 -0.44752351038E+03 -0.29706017878E+03 -0.94320664218E+03  0.10881143396E+04  0.76367559326E+02 0.  0.
         11    1    3    3    0    0 -0.21362915563E+03 -0.10334708128E+03 -0.45463689265E+03  0.51284767670E+03  0.00000000000E+00 0.  1.
        -11    1    3    3    0    0 -0.23389435475E+03 -0.19371309750E+03 -0.48856974953E+03  0.57526666293E+03  0.00000000000E+00 0. -1.
         22    1    1    2    0    0  0.44752351038E+03  0.29706017878E+03  0.10899194010E+04  0.12150910842E+04  0.00000000000E+00 0. -1.
<mgrwt>
<rscale>  0 0.22985279E+04</rscale>
<asrwt>0</asrwt>
<pdfrwt beam="1">  1        1 0.18845524E+00 0.22985279E+04</pdfrwt>
<pdfrwt beam="2">  1       -1 0.16588405E+00 0.22985279E+04</pdfrwt>
<totfact> 0.24451172E+00</totfact>
</mgrwt>
</event>
<event>
 6    1  0.8968082E-007  0.3706322E+04  0.7818608E-02  0.8066562E-01
         -1   -1    0    0    0  501 -0.00000000000E+00  0.00000000000E+00  0.14654814744E+04  0.14654814744E+04  0.00000000000E+00 0.  1.
          1   -1    0    0  501    0  0.00000000000E+00 -0.00000000000E+00 -0.23433974679E+04  0.23433974679E+04  0.00000000000E+00 0. -1.
         23    2    1    2    0    0 -0.16610515836E+04 -0.14452832822E+03  0.38940579446E+03  0.17145806552E+04  0.90383347072E+02 0.  0.
         11    1    3    3    0    0 -0.11128676969E+04 -0.75154199786E+02  0.22262136482E+03  0.11374018360E+04  0.00000000000E+00 0. -1.
        -11    1    3    3    0    0 -0.54818388678E+03 -0.69374128435E+02  0.16678442964E+03  0.57717881926E+03  0.00000000000E+00 0.  1.
         22    1    1    2    0    0  0.16610515836E+04  0.14452832822E+03 -0.12673217879E+04  0.20942982871E+04  0.00000000000E+00 0. -1.
<mgrwt>
<rscale>  0 0.37063219E+04</rscale>
<asrwt>0</asrwt>
<pdfrwt beam="1">  1        1 0.36052269E+00 0.37063219E+04</pdfrwt>
<pdfrwt beam="2">  1       -1 0.22545869E+00 0.37063219E+04</pdfrwt>
<totfact> 0.14101122E-01</totfact>
</mgrwt>
</event>
<event>
 6    1  0.8968082E-007  0.1860663E+04  0.7818608E-02  0.8674689E-01
         -2   -1    0    0    0  501 -0.00000000000E+00  0.00000000000E+00  0.47707648838E+03  0.47707648838E+03  0.00000000000E+00 0.  1.
          2   -1    0    0  501    0  0.00000000000E+00 -0.00000000000E+00 -0.18142093131E+04  0.18142093131E+04  0.00000000000E+00 0. -1.
         23    2    1    2    0    0 -0.91259049236E+03  0.11022778077E+03 -0.82763689873E+03  0.12403064159E+04  0.91682052349E+02 0.  0.
         11    1    3    3    0    0 -0.27226600351E+03  0.61696573051E+02 -0.29318656106E+03  0.40483774945E+03  0.00000000000E+00 0. -1.
        -11    1    3    3    0    0 -0.64032448884E+03  0.48531207723E+02 -0.53445033766E+03  0.83546866642E+03  0.00000000000E+00 0.  1.
         22    1    1    2    0    0  0.91259049236E+03 -0.11022778077E+03 -0.50949592601E+03  0.10509793856E+04  0.00000000000E+00 0. -1.
<mgrwt>
<rscale>  0 0.18606629E+04</rscale>
<asrwt>0</asrwt>
<pdfrwt beam="1">  1        2 0.27910912E+00 0.18606629E+04</pdfrwt>
<pdfrwt beam="2">  1       -2 0.73396383E-01 0.18606629E+04</pdfrwt>
<totfact> 0.13333819E+01</totfact>
</mgrwt>
</event>
<event>
 6    1  0.8968082E-007  0.1172745E+04  0.7818608E-02  0.9137053E-01
         -2   -1    0    0    0  501 -0.00000000000E+00  0.00000000000E+00  0.28114661419E+03  0.28114661419E+03  0.00000000000E+00 0.  1.
          2   -1    0    0  501    0  0.00000000000E+00 -0.00000000000E+00 -0.12229666596E+04  0.12229666596E+04  0.00000000000E+00 0. -1.
         23    2    1    2    0    0  0.17344030074E+03  0.22995918374E+03 -0.11238329636E+04  0.11633912955E+04  0.86694938225E+02 0.  0.
         13    1    3    3    0    0  0.91268283384E+02  0.95849258726E+02 -0.36061391606E+03  0.38413458111E+03  0.00000000000E+00 0. -1.
        -13    1    3    3    0    0  0.82172017360E+02  0.13410992502E+03 -0.76321904756E+03  0.77925671443E+03  0.00000000000E+00 0.  1.
         22    1    1    2    0    0 -0.17344030074E+03 -0.22995918374E+03  0.18201291817E+03  0.34072197829E+03  0.00000000000E+00 0.  1.
<mgrwt>
<rscale>  0 0.11727454E+04</rscale>
<asrwt>0</asrwt>
<pdfrwt beam="1">  1        2 0.18814872E+00 0.11727454E+04</pdfrwt>
<pdfrwt beam="2">  1       -2 0.43253326E-01 0.11727454E+04</pdfrwt>
<totfact> 0.91889164E+01</totfact>
</mgrwt>
</event>
<event>
 6    1  0.8968082E-007  0.4705201E+04  0.7818608E-02  0.7875665E-01
         -2   -1    0    0    0  501 -0.00000000000E+00  0.00000000000E+00  0.25807242325E+04  0.25807242325E+04  0.00000000000E+00 0.  1.
          2   -1    0    0  501    0  0.00000000000E+00 -0.00000000000E+00 -0.21446422441E+04  0.21446422441E+04  0.00000000000E+00 0. -1.
         23    2    1    2    0    0  0.21433587591E+04  0.96809133577E+03  0.21977087120E+03  0.23635921216E+04  0.84147945815E+02 0.  0.
         13    1    3    3    0    0  0.76570025934E+03  0.34506709508E+03  0.11901261364E+03  0.84825243263E+03  0.00000000000E+00 0. -1.
        -13    1    3    3    0    0  0.13776584998E+04  0.62302424069E+03  0.10075825756E+03  0.15153396890E+04  0.00000000000E+00 0.  1.
         22    1    1    2    0    0 -0.21433587591E+04 -0.96809133577E+03  0.21631111712E+03  0.23617743550E+04  0.00000000000E+00 0.  1.
<mgrwt>
<rscale>  0 0.47052015E+04</rscale>
<asrwt>0</asrwt>
<pdfrwt beam="1">  1        2 0.32994496E+00 0.47052015E+04</pdfrwt>
<pdfrwt beam="2">  1       -2 0.39703450E+00 0.47052015E+04</pdfrwt>
<totfact> 0.32096592E-02</totfact>
</mgrwt>
</event>
<event>
 6    1  0.8968082E-007  0.3374968E+04  0.7818608E-02  0.8144077E-01
          2   -1    0    0  501    0  0.00000000000E+00  0.00000000000E+00  0.10296404758E+04  0.10296404758E+04  0.00000000000E+00 0. -1.
         -2   -1    0    0    0  501 -0.00000000000E+00 -0.00000000000E+00 -0.27656274411E+04  0.27656274411E+04  0.00000000000E+00 0.  1.
         23    2    1    2    0    0 -0.14942021931E+04  0.55605281397E+03 -0.25108550062E+03  0.16165602070E+04  0.91586289309E+02 0.  0.
         13    1    3    3    0    0 -0.11913697496E+04  0.48124788666E+03 -0.20953588670E+03  0.13018704607E+04  0.00000000000E+00 0. -1.
        -13    1    3    3    0    0 -0.30283244353E+03  0.74804927314E+02 -0.41549613913E+02  0.31468974629E+03  0.00000000000E+00 0.  1.
         22    1    1    2    0    0  0.14942021931E+04 -0.55605281397E+03 -0.14849014647E+04  0.21787077100E+04  0.00000000000E+00 0. -1.
<mgrwt>
<rscale>  0 0.33749678E+04</rscale>
<asrwt>0</asrwt>
<pdfrwt beam="1">  1        2 0.15840623E+00 0.33749678E+04</pdfrwt>
<pdfrwt beam="2">  1       -2 0.42548114E+00 0.33749678E+04</pdfrwt>
<totfact> 0.10085462E-01</totfact>
</mgrwt>
</event>
<event>
 6    1  0.8968082E-007  0.2031859E+04  0.7818608E-02  0.8591869E-01
         -1   -1    0    0    0  501 -0.00000000000E+00  0.00000000000E+00  0.52147584345E+03  0.52147584345E+03  0.00000000000E+00 0.  1.
          1   -1    0    0  501    0  0.00000000000E+00 -0.00000000000E+00 -0.19792155971E+04  0.19792155971E+04  0.00000000000E+00 0. -1.
         23    2    1    2    0    0  0.40365120014E+03  0.90565424214E+03 -0.99047113924E+03  0.14045692504E+04  0.92939786223E+02 0.  0.
         11    1    3    3    0    0  0.32441118310E+03  0.78659576660E+03 -0.87780586356E+03  0.12225050715E+04  0.00000000000E+00 0. -1.
        -11    1    3    3    0    0  0.79240017040E+02  0.11905847554E+03 -0.11266527568E+03  0.18206417891E+03  0.00000000000E+00 0.  1.
         22    1    1    2    0    0 -0.40365120014E+03 -0.90565424214E+03 -0.46726861440E+03  0.10961221901E+04  0.00000000000E+00 0.  1.
<mgrwt>
<rscale>  0 0.20318594E+04</rscale>
<asrwt>0</asrwt>
<pdfrwt beam="1">  1        1 0.30449471E+00 0.20318594E+04</pdfrwt>
<pdfrwt beam="2">  1       -1 0.80227052E-01 0.20318594E+04</pdfrwt>
<totfact> 0.44151493E+00</totfact>
</mgrwt>
</event>
<event>
 6    1  0.8968082E-007  0.1356492E+04  0.7818608E-02  0.8985928E-01
         -1   -1    0    0    0  501 -0.00000000000E+00  0.00000000000E+00  0.44895746345E+03  0.44895746345E+03  0.00000000000E+00 0.  1.
          1   -1    0    0  501    0  0.00000000000E+00 -0.00000000000E+00 -0.10246359779E+04  0.10246359779E+04  0.00000000000E+00 0. -1.
         23    2    1    2    0    0  0.66916288635E+03  0.64097696980E+02 -0.22267633920E+03  0.71431877498E+03  0.93696729032E+02 0.  0.
         13    1    3    3    0    0  0.14764489991E+03 -0.13889192575E+02 -0.77782358671E+02  0.16745752136E+03  0.00000000000E+00 0.  1.
        -13    1    3    3    0    0  0.52151798644E+03  0.77986889555E+02 -0.14489398053E+03  0.54686125363E+03  0.00000000000E+00 0. -1.
         22    1    1    2    0    0 -0.66916288635E+03 -0.64097696980E+02 -0.35300217521E+03  0.75927466633E+03  0.00000000000E+00 0. -1.
<mgrwt>
<rscale>  0 0.13564925E+04</rscale>
<asrwt>0</asrwt>
<pdfrwt beam="1">  1        1 0.15763630E+00 0.13564925E+04</pdfrwt>
<pdfrwt beam="2">  1       -1 0.69070380E-01 0.13564925E+04</pdfrwt>
<totfact> 0.30040177E+01</totfact>
</mgrwt>
</event>
<event>
 6    1  0.8968082E-007  0.7666861E+03  0.7818608E-02  0.9609530E-01
          2   -1    0    0  501    0  0.00000000000E+00  0.00000000000E+00  0.74724679101E+03  0.74724679101E+03  0.00000000000E+00 0. -1.
         -2   -1    0    0    0  501 -0.00000000000E+00 -0.00000000000E+00 -0.19665779694E+03  0.19665779694E+03  0.00000000000E+00 0.  1.
         23    2    1    2    0    0 -0.13662408470E+03  0.34312477028E+03  0.18121209726E+03  0.42156366442E+03  0.92072528308E+02 0.  0.
         13    1    3    3    0    0 -0.94991442694E+02  0.12724614318E+03  0.54952597236E+02  0.16803197041E+03  0.00000000000E+00 0. -1.
        -13    1    3    3    0    0 -0.41632642003E+02  0.21587862710E+03  0.12625950003E+03  0.25353169401E+03  0.00000000000E+00 0.  1.
         22    1    1    2    0    0  0.13662408470E+03 -0.34312477028E+03  0.36937689681E+03  0.52234092353E+03  0.00000000000E+00 0.  1.
<mgrwt>
<rscale>  0 0.76668614E+03</rscale>
<asrwt>0</asrwt>
<pdfrwt beam="1">  1        2 0.11496104E+00 0.76668614E+03</pdfrwt>
<pdfrwt beam="2">  1       -2 0.30255046E-01 0.76668614E+03</pdfrwt>
<totfact> 0.38225747E+02</totfact>
</mgrwt>
</event>
<event>
 6    1  0.8968082E-007  0.7357372E+03  0.7818608E-02  0.9657996E-01
         -2   -1    0    0    0  501 -0.00000000000E+00  0.00000000000E+00  0.11137312746E+03  0.11137312746E+03  0.00000000000E+00 0.  1.
          2   -1    0    0  501    0  0.00000000000E+00 -0.00000000000E+00 -0.12150803906E+04  0.12150803906E+04  0.00000000000E+00 0. -1.
         23    2    1    2    0    0  0.11159295198E+03 -0.10494647319E+03 -0.11499333110E+04  0.11664422788E+04  0.12154925306E+03 0.  0.
         13    1    3    3    0    0  0.66710690436E+02 -0.38728188026E+02 -0.91534696888E+03  0.91859145555E+03  0.00000000000E+00 0. -1.
        -13    1    3    3    0    0  0.44882261546E+02 -0.66218285163E+02 -0.23458634213E+03  0.24785082329E+03  0.00000000000E+00 0.  1.
         22    1    1    2    0    0 -0.11159295198E+03  0.10494647319E+03  0.46226047893E+02  0.16001123920E+03  0.00000000000E+00 0.  1.
<mgrwt>
<rscale>  0 0.73573719E+03</rscale>
<asrwt>0</asrwt>
<pdfrwt beam="1">  1        2 0.18693546E+00 0.73573719E+03</pdfrwt>
<pdfrwt beam="2">  1       -2 0.17134326E-01 0.73573719E+03</pdfrwt>
<totfact> 0.52235953E+02</totfact>
</mgrwt>
</event>
<event>
 6    1  0.8968082E-007  0.2425674E+04  0.7818608E-02  0.8429954E-01
          1   -1    0    0  501    0  0.00000000000E+00  0.00000000000E+00  0.11972760883E+04  0.11972760883E+04  0.00000000000E+00 0. -1.
         -1   -1    0    0    0  501 -0.00000000000E+00 -0.00000000000E+00 -0.12286000533E+04  0.12286000533E+04  0.00000000000E+00 0.  1.
         23    2    1    2    0    0  0.28909262675E+03  0.27045352524E+03 -0.11603032040E+04  0.12295008751E+04  0.93001185652E+02 0.  0.
         13    1    3    3    0    0  0.52908259771E+02  0.95252493342E+02 -0.24551019532E+03  0.26860301086E+03  0.00000000000E+00 0.  1.
        -13    1    3    3    0    0  0.23618436698E+03  0.17520103189E+03 -0.91479300871E+03  0.96089786427E+03  0.00000000000E+00 0. -1.
         22    1    1    2    0    0 -0.28909262675E+03 -0.27045352524E+03  0.11289792390E+04  0.11963752665E+04  0.00000000000E+00 0. -1.
<mgrwt>
<rscale>  0 0.24256739E+04</rscale>
<asrwt>0</asrwt>
<pdfrwt beam="1">  1        1 0.18419632E+00 0.24256739E+04</pdfrwt>
<pdfrwt beam="2">  1       -1 0.18901539E+00 0.24256739E+04</pdfrwt>
<totfact> 0.17233588E+00</totfact>
</mgrwt>
</event>
<event>
 6    1  0.8968082E-007  0.1483716E+04  0.7818608E-02  0.8895354E-01
         -2   -1    0    0    0  501 -0.00000000000E+00  0.00000000000E+00  0.32142596083E+03  0.32142596083E+03  0.00000000000E+00 0.  1.
          2   -1    0    0  501    0  0.00000000000E+00 -0.00000000000E+00 -0.17122252145E+04  0.17122252145E+04  0.00000000000E+00 0. -1.
         23    2    1    2    0    0  0.13033301315E+03  0.47580167850E+03 -0.14523231997E+04  0.15365001646E+04  0.90642968236E+02 0.  0.
         11    1    3    3    0    0  0.20524947063E+02  0.14927419700E+03 -0.56209074272E+03  0.58193647625E+03  0.00000000000E+00 0.  1.
        -11    1    3    3    0    0  0.10980806609E+03  0.32652748150E+03 -0.89023245701E+03  0.95456368832E+03  0.00000000000E+00 0. -1.
         22    1    1    2    0    0 -0.13033301315E+03 -0.47580167850E+03  0.61523946039E+02  0.49715101077E+03  0.00000000000E+00 0.  1.
<mgrwt>
<rscale>  0 0.14837165E+04</rscale>
<asrwt>0</asrwt>
<pdfrwt beam="1">  1        2 0.26341926E+00 0.14837165E+04</pdfrwt>
<pdfrwt beam="2">  1       -2 0.49450148E-01 0.14837165E+04</pdfrwt>
<totfact> 0.36145223E+01</totfact>
</mgrwt>
</event>
<event>
 6    1  0.8968082E-007  0.1019071E+04  0.7818608E-02  0.9287872E-01
          2   -1    0    0  501    0  0.00000000000E+00  0.00000000000E+00  0.26075472206E+04  0.26075472206E+04  0.00000000000E+00 0. -1.
         -2   -1    0    0    0  501 -0.00000000000E+00 -0.00000000000E+00 -0.99567335200E+02  0.99567335200E+02  0.00000000000E+00 0.  1.
         23    2    1    2    0    0 -0.36351270356E+03  0.35037493756E+03  0.13366962631E+04  0.14316501673E+04  0.89225664222E+02 0.  0.
         13    1    3    3    0    0 -0.16505823432E+03  0.14248802388E+03  0.69804812951E+03  0.73131268878E+03  0.00000000000E+00 0. -1.
        -13    1    3    3    0    0 -0.19845446924E+03  0.20788691368E+03  0.63864813358E+03  0.70033747848E+03  0.00000000000E+00 0.  1.
         22    1    1    2    0    0  0.36351270356E+03 -0.35037493756E+03  0.11712836223E+04  0.12754643885E+04  0.00000000000E+00 0. -1.
<mgrwt>
<rscale>  0 0.10190712E+04</rscale>
<asrwt>0</asrwt>
<pdfrwt beam="1">  1        2 0.40116106E+00 0.10190712E+04</pdfrwt>
<pdfrwt beam="2">  1       -2 0.15318054E-01 0.10190712E+04</pdfrwt>
<totfact> 0.10322483E+02</totfact>
</mgrwt>
</event>
<event>
 6    1  0.8968082E-007  0.1257595E+04  0.7818608E-02  0.9063885E-01
          2   -1    0    0  501    0  0.00000000000E+00  0.00000000000E+00  0.35168486810E+03  0.35168486810E+03  0.00000000000E+00 0. -1.
         -2   -1    0    0    0  501 -0.00000000000E+00 -0.00000000000E+00 -0.11242636866E+04  0.11242636866E+04  0.00000000000E+00 0.  1.
         23    2    1    2    0    0 -0.24997192276E+03  0.55797083186E+03 -0.23282385342E+03  0.66037953019E+03  0.89870828374E+02 0.  0.
         11    1    3    3    0    0 -0.38171892091E+02  0.17283272441E+03 -0.46653429793E+02  0.18304312739E+03  0.00000000000E+00 0.  1.
        -11    1    3    3    0    0 -0.21180003067E+03  0.38513810745E+03 -0.18617042363E+03  0.47733640280E+03  0.00000000000E+00 0. -1.
         22    1    1    2    0    0  0.24997192276E+03 -0.55797083186E+03 -0.53975496505E+03  0.81556902447E+03  0.00000000000E+00 0.  1.
<mgrwt>
<rscale>  0 0.12575954E+04</rscale>
<asrwt>0</asrwt>
<pdfrwt beam="1">  1        2 0.54105365E-01 0.12575954E+04</pdfrwt>
<pdfrwt beam="2">  1       -2 0.17296364E+00 0.12575954E+04</pdfrwt>
<totfact> 0.18325862E+01</totfact>
</mgrwt>
</event>
<event>
 6    1  0.8968082E-007  0.1617061E+04  0.7818608E-02  0.8810135E-01
         -2   -1    0    0    0  501 -0.00000000000E+00  0.00000000000E+00  0.53545259652E+03  0.53545259652E+03  0.00000000000E+00 0.  1.
          2   -1    0    0  501    0  0.00000000000E+00 -0.00000000000E+00 -0.12208765731E+04  0.12208765731E+04  0.00000000000E+00 0. -1.
         23    2    1    2    0    0 -0.10950099773E+03 -0.56267477884E+03  0.27208036474E+03  0.64035070258E+03  0.86185394199E+02 0.  0.
         11    1    3    3    0    0  0.82055181060E+01 -0.15753310793E+03  0.71024596502E+02  0.17299856627E+03  0.00000000000E+00 0.  1.
        -11    1    3    3    0    0 -0.11770651583E+03 -0.40514167090E+03  0.20105576824E+03  0.46735213631E+03  0.00000000000E+00 0. -1.
         22    1    1    2    0    0  0.10950099773E+03  0.56267477884E+03 -0.95750434132E+03  0.11159784670E+04  0.00000000000E+00 0. -1.
<mgrwt>
<rscale>  0 0.16170610E+04</rscale>
<asrwt>0</asrwt>
<pdfrwt beam="1">  1        2 0.18782716E+00 0.16170610E+04</pdfrwt>
<pdfrwt beam="2">  1       -2 0.82377323E-01 0.16170610E+04</pdfrwt>
<totfact> 0.22808433E+01</totfact>
</mgrwt>
</event>
<event>
 6    1  0.8968082E-007  0.1005910E+04  0.7818608E-02  0.9302086E-01
          1   -1    0    0  501    0  0.00000000000E+00  0.00000000000E+00  0.24790442061E+04  0.24790442061E+04  0.00000000000E+00 0. -1.
         -1   -1    0    0    0  501 -0.00000000000E+00 -0.00000000000E+00 -0.10204090675E+03  0.10204090675E+03  0.00000000000E+00 0.  1.
         23    2    1    2    0    0  0.36687001858E+03  0.28233129285E+03  0.16759202519E+04  0.17409529751E+04  0.88904450846E+02 0.  0.
         11    1    3    3    0    0  0.22961474445E+03  0.22742822096E+03  0.11170136933E+04  0.11628267788E+04  0.00000000000E+00 0. -1.
        -11    1    3    3    0    0  0.13725527412E+03  0.54903071891E+02  0.55890655857E+03  0.57812619625E+03  0.00000000000E+00 0.  1.
         22    1    1    2    0    0 -0.36687001858E+03 -0.28233129285E+03  0.70108304753E+03  0.84013213781E+03  0.00000000000E+00 0.  1.
<mgrwt>
<rscale>  0 0.10059104E+04</rscale>
<asrwt>0</asrwt>
<pdfrwt beam="1">  1        1 0.38139137E+00 0.10059104E+04</pdfrwt>
<pdfrwt beam="2">  1       -1 0.15698603E-01 0.10059104E+04</pdfrwt>
<totfact> 0.43406010E+01</totfact>
</mgrwt>
</event>
<event>
 6    1  0.8968082E-007  0.3447361E+04  0.7818608E-02  0.8126379E-01
          2   -1    0    0  501    0  0.00000000000E+00  0.00000000000E+00  0.13886231107E+04  0.13886231107E+04  0.00000000000E+00 0. -1.
         -2   -1    0    0    0  501 -0.00000000000E+00 -0.00000000000E+00 -0.21395829919E+04  0.21395829919E+04  0.00000000000E+00 0.  1.
         23    2    1    2    0    0  0.10244388981E+04  0.51328948258E+03  0.94046655078E+03  0.14852023033E+04  0.91691873814E+02 0.  0.
         13    1    3    3    0    0  0.39835053477E+03  0.17768366897E+03  0.30670241668E+03  0.53321759833E+03  0.00000000000E+00 0.  1.
        -13    1    3    3    0    0  0.62608836333E+03  0.33560581361E+03  0.63376413410E+03  0.95198470497E+03  0.00000000000E+00 0. -1.
         22    1    1    2    0    0 -0.10244388981E+04 -0.51328948258E+03 -0.16914264321E+04  0.20430037993E+04  0.00000000000E+00 0.  1.
<mgrwt>
<rscale>  0 0.34473610E+04</rscale>
<asrwt>0</asrwt>
<pdfrwt beam="1">  1        2 0.21363432E+00 0.34473610E+04</pdfrwt>
<pdfrwt beam="2">  1       -2 0.32916662E+00 0.34473610E+04</pdfrwt>
<totfact> 0.25459942E-01</totfact>
</mgrwt>
</event>
<event>
 6    1  0.8968082E-007  0.2477254E+04  0.7818608E-02  0.8411134E-01
          1   -1    0    0  501    0  0.00000000000E+00  0.00000000000E+00  0.71158075658E+03  0.71158075658E+03  0.00000000000E+00 0. -1.
         -1   -1    0    0    0  501 -0.00000000000E+00 -0.00000000000E+00 -0.21560396931E+04  0.21560396931E+04  0.00000000000E+00 0.  1.
         23    2    1    2    0    0  0.34199560141E+03  0.67601681901E+03  0.40997884050E+03  0.86439824538E+03  0.71707363556E+02 0.  0.
         11    1    3    3    0    0  0.21967312254E+03  0.50436802648E+03  0.30207076021E+03  0.62760666909E+03  0.00000000000E+00 0. -1.
        -11    1    3    3    0    0  0.12232247886E+03  0.17164879253E+03  0.10790808029E+03  0.23679157629E+03  0.00000000000E+00 0.  1.
         22    1    1    2    0    0 -0.34199560141E+03 -0.67601681901E+03 -0.18544377770E+04  0.20032222043E+04  0.00000000000E+00 0. -1.
<mgrwt>
<rscale>  0 0.24772536E+04</rscale>
<asrwt>0</asrwt>
<pdfrwt beam="1">  1        1 0.10947397E+00 0.24772536E+04</pdfrwt>
<pdfrwt beam="2">  1       -1 0.33169841E+00 0.24772536E+04</pdfrwt>
<totfact> 0.48540154E-01</totfact>
</mgrwt>
</event>
<event>
 6    1  0.8968082E-007  0.2314525E+04  0.7818608E-02  0.8472216E-01
          2   -1    0    0  501    0  0.00000000000E+00  0.00000000000E+00  0.23859255155E+04  0.23859255155E+04  0.00000000000E+00 0. -1.
         -2   -1    0    0    0  501 -0.00000000000E+00 -0.00000000000E+00 -0.56131523831E+03  0.56131523831E+03  0.00000000000E+00 0.  1.
         23    2    1    2    0    0 -0.19794664659E+03 -0.10793520319E+04  0.13744801515E+04  0.17611544105E+04  0.91024651940E+02 0.  0.
         13    1    3    3    0    0 -0.19911844345E+02 -0.25498435092E+03  0.27642873262E+03  0.37659838685E+03  0.00000000000E+00 0. -1.
        -13    1    3    3    0    0 -0.17803480225E+03 -0.82436768096E+03  0.10980514189E+04  0.13845560237E+04  0.00000000000E+00 0.  1.
         22    1    1    2    0    0  0.19794664659E+03  0.10793520319E+04  0.45013012568E+03  0.11860863433E+04  0.00000000000E+00 0. -1.
<mgrwt>
<rscale>  0 0.23145249E+04</rscale>
<asrwt>0</asrwt>
<pdfrwt beam="1">  1        2 0.36706546E+00 0.23145249E+04</pdfrwt>
<pdfrwt beam="2">  1       -2 0.86356191E-01 0.23145249E+04</pdfrwt>
<totfact> 0.42616038E+00</totfact>
</mgrwt>
</event>
<event>
 6    1  0.8968082E-007  0.1575310E+04  0.7818608E-02  0.8835861E-01
          2   -1    0    0  501    0  0.00000000000E+00  0.00000000000E+00  0.18045032375E+04  0.18045032375E+04  0.00000000000E+00 0. -1.
         -2   -1    0    0    0  501 -0.00000000000E+00 -0.00000000000E+00 -0.34380663724E+03  0.34380663724E+03  0.00000000000E+00 0.  1.
         23    2    1    2    0    0  0.58474065080E+03  0.48274864052E+03  0.45394854496E+03  0.88794900362E+03  0.86117785256E+02 0.  0.
         11    1    3    3    0    0  0.18430784265E+03  0.18780718748E+03  0.12221887729E+03  0.29013509698E+03  0.00000000000E+00 0. -1.
        -11    1    3    3    0    0  0.40043280815E+03  0.29494145303E+03  0.33172966767E+03  0.59781390664E+03  0.00000000000E+00 0.  1.
         22    1    1    2    0    0 -0.58474065080E+03 -0.48274864052E+03  0.10067480553E+04  0.12603608711E+04  0.00000000000E+00 0. -1.
<mgrwt>
<rscale>  0 0.15753097E+04</rscale>
<asrwt>0</asrwt>
<pdfrwt beam="1">  1        2 0.27761588E+00 0.15753097E+04</pdfrwt>
<pdfrwt beam="2">  1       -2 0.52893330E-01 0.15753097E+04</pdfrwt>
<totfact> 0.27785754E+01</totfact>
</mgrwt>
</event>
<event>
 6    1  0.8968082E-007  0.1632307E+04  0.7818608E-02  0.8800943E-01
         -2   -1    0    0    0  501 -0.00000000000E+00  0.00000000000E+00  0.44108834832E+03  0.44108834832E+03  0.00000000000E+00 0.  1.
          2   -1    0    0  501    0  0.00000000000E+00 -0.00000000000E+00 -0.15101434977E+04  0.15101434977E+04  0.00000000000E+00 0. -1.
         23    2    1    2    0    0  0.13537239456E+03 -0.46187061280E+03 -0.13203470544E+04  0.14082790214E+04  0.91012691577E+02 0.  0.
         13    1    3    3    0    0  0.63809981592E+02 -0.15438899149E+03 -0.34911155482E+03  0.38702267654E+03  0.00000000000E+00 0.  1.
        -13    1    3    3    0    0  0.71562412972E+02 -0.30748162132E+03 -0.97123549957E+03  0.10212563449E+04  0.00000000000E+00 0. -1.
         22    1    1    2    0    0 -0.13537239456E+03  0.46187061280E+03  0.25129190501E+03  0.54295282457E+03  0.00000000000E+00 0.  1.
<mgrwt>
<rscale>  0 0.16323072E+04</rscale>
<asrwt>0</asrwt>
<pdfrwt beam="1">  1        2 0.23232977E+00 0.16323072E+04</pdfrwt>
<pdfrwt beam="2">  1       -2 0.67859745E-01 0.16323072E+04</pdfrwt>
<totfact> 0.23833616E+01</totfact>
</mgrwt>
</event>
<event>
 6    1  0.8968082E-007  0.2607962E+04  0.7818608E-02  0.8365502E-01
          1   -1    0    0  501    0  0.00000000000E+00  0.00000000000E+00  0.11636640711E+04  0.11636640711E+04  0.00000000000E+00 0. -1.
         -1   -1    0    0    0  501 -0.00000000000E+00 -0.00000000000E+00 -0.14612177115E+04  0.14612177115E+04  0.00000000000E+00 0.  1.
         23    2    1    2    0    0  0.16573937511E+03  0.10065053567E+04 -0.96403723038E+03  0.14063897024E+04  0.89675190822E+02 0.  0.
         13    1    3    3    0    0  0.58747290163E+02  0.40200322394E+03 -0.44410075491E+03  0.60189975634E+03  0.00000000000E+00 0. -1.
        -13    1    3    3    0    0  0.10699208495E+03  0.60450213280E+03 -0.51993647547E+03  0.80448994607E+03  0.00000000000E+00 0.  1.
         22    1    1    2    0    0 -0.16573937511E+03 -0.10065053567E+04  0.66648358997E+03  0.12184920801E+04  0.00000000000E+00 0. -1.
<mgrwt>
<rscale>  0 0.26079621E+04</rscale>
<asrwt>0</asrwt>
<pdfrwt beam="1">  1        1 0.17902524E+00 0.26079621E+04</pdfrwt>
<pdfrwt beam="2">  1       -1 0.22480272E+00 0.26079621E+04</pdfrwt>
<totfact> 0.10222859E+00</totfact>
</mgrwt>
</event>
<event>
 6    1  0.8968082E-007  0.2058938E+04  0.7818608E-02  0.8579550E-01
         -2   -1    0    0    0  501 -0.00000000000E+00  0.00000000000E+00  0.82940574142E+03  0.82940574142E+03  0.00000000000E+00 0.  1.
          2   -1    0    0  501    0  0.00000000000E+00 -0.00000000000E+00 -0.12777901315E+04  0.12777901315E+04  0.00000000000E+00 0. -1.
         23    2    1    2    0    0  0.77383445177E+03  0.40266431440E+03 -0.78003117050E+03  0.11739499805E+04  0.93550098282E+02 0.  0.
         11    1    3    3    0    0  0.49930621158E+03  0.29037209706E+03 -0.46760230997E+03  0.74315177990E+03  0.00000000000E+00 0.  1.
        -11    1    3    3    0    0  0.27452824019E+03  0.11229221734E+03 -0.31242886053E+03  0.43079820059E+03  0.00000000000E+00 0. -1.
         22    1    1    2    0    0 -0.77383445177E+03 -0.40266431440E+03  0.33164678039E+03  0.93324589246E+03  0.00000000000E+00 0.  1.
<mgrwt>
<rscale>  0 0.20589380E+04</rscale>
<asrwt>0</asrwt>
<pdfrwt beam="1">  1        2 0.19658310E+00 0.20589380E+04</pdfrwt>
<pdfrwt beam="2">  1       -2 0.12760088E+00 0.20589380E+04</pdfrwt>
<totfact> 0.71714201E+00</totfact>
</mgrwt>
</event>
<event>
 6    1  0.8968082E-007  0.1977467E+04  0.7818608E-02  0.8617229E-01
          2   -1    0    0  501    0  0.00000000000E+00  0.00000000000E+00  0.38719342098E+04  0.38719342098E+04  0.00000000000E+00 0. -1.
         -2   -1    0    0    0  501 -0.00000000000E+00 -0.00000000000E+00 -0.25248209907E+03  0.25248209907E+03  0.00000000000E+00 0.  1.
         23    2    1    2    0    0  0.23264723889E+03 -0.49041453197E+03  0.35320205885E+04  0.35746205086E+04  0.90062155400E+02 0.  0.
         11    1    3    3    0    0  0.22243264196E+02 -0.66900556587E+02  0.29914297830E+03  0.30733852466E+03  0.00000000000E+00 0.  1.
        -11    1    3    3    0    0  0.21040397470E+03 -0.42351397538E+03  0.32328776102E+04  0.32672819839E+04  0.00000000000E+00 0. -1.
         22    1    1    2    0    0 -0.23264723889E+03  0.49041453197E+03  0.87431522213E+02  0.54979580028E+03  0.00000000000E+00 0.  1.
<mgrwt>
<rscale>  0 0.19774671E+04</rscale>
<asrwt>0</asrwt>
<pdfrwt beam="1">  1        2 0.59568214E+00 0.19774671E+04</pdfrwt>
<pdfrwt beam="2">  1       -2 0.38843403E-01 0.19774671E+04</pdfrwt>
<totfact> 0.25446334E+00</totfact>
</mgrwt>
</event>
<event>
 6    1  0.8968082E-007  0.2664565E+04  0.7818608E-02  0.8346595E-01
          1   -1    0    0  501    0  0.00000000000E+00  0.00000000000E+00  0.32393543249E+04  0.32393543249E+04  0.00000000000E+00 0. -1.
         -1   -1    0    0    0  501 -0.00000000000E+00 -0.00000000000E+00 -0.54794144719E+03  0.54794144719E+03  0.00000000000E+00 0.  1.
         23    2    1    2    0    0  0.13060383687E+04  0.17176766484E+03  0.10796085755E+04  0.17056729772E+04  0.92332430652E+02 0.  0.
         11    1    3    3    0    0  0.59126609486E+03  0.10844956080E+03  0.53680984205E+03  0.80592909656E+03  0.00000000000E+00 0. -1.
        -11    1    3    3    0    0  0.71477227388E+03  0.63318104035E+02  0.54279873341E+03  0.89974388067E+03  0.00000000000E+00 0.  1.
         22    1    1    2    0    0 -0.13060383687E+04 -0.17176766484E+03  0.16118043022E+04  0.20816227948E+04  0.00000000000E+00 0. -1.
<mgrwt>
<rscale>  0 0.26645649E+04</rscale>
<asrwt>0</asrwt>
<pdfrwt beam="1">  1        1 0.49836219E+00 0.26645649E+04</pdfrwt>
<pdfrwt beam="2">  1       -1 0.84298687E-01 0.26645649E+04</pdfrwt>
<totfact> 0.48461343E-01</totfact>
</mgrwt>
</event>
<event>
 6    1  0.8968082E-007  0.1304018E+04  0.7818608E-02  0.9026385E-01
         -2   -1    0    0    0  501 -0.00000000000E+00  0.00000000000E+00  0.10750627045E+04  0.10750627045E+04  0.00000000000E+00 0.  1.
          2   -1    0    0  501    0  0.00000000000E+00 -0.00000000000E+00 -0.39543363143E+03  0.39543363143E+03  0.00000000000E+00 0. -1.
         23    2    1    2    0    0 -0.17111946387E+03  0.14304367606E+03  0.10284868694E+04  0.10564370090E+04  0.92360973456E+02 0.  0.
         13    1    3    3    0    0 -0.58076584192E+02  0.10769580592E+03  0.48528423343E+03  0.50047184083E+03  0.00000000000E+00 0.  1.
        -13    1    3    3    0    0 -0.11304287968E+03  0.35347870133E+02  0.54320263594E+03  0.55596516821E+03  0.00000000000E+00 0. -1.
         22    1    1    2    0    0  0.17111946387E+03 -0.14304367606E+03 -0.34885779628E+03  0.41405932691E+03  0.00000000000E+00 0. -1.
<mgrwt>
<rscale>  0 0.13040183E+04</rscale>
<asrwt>0</asrwt>
<pdfrwt beam="1">  1        2 0.60835944E-01 0.13040183E+04</pdfrwt>
<pdfrwt beam="2">  1       -2 0.16539426E+00 0.13040183E+04</pdfrwt>
<totfact> 0.18134384E+01</totfact>
</mgrwt>
</event>
<event>
 6    1  0.8968082E-007  0.3260980E+04  0.7818608E-02  0.8172895E-01
         -1   -1    0    0    0  501 -0.00000000000E+00  0.00000000000E+00  0.16053401682E+04  0.16053401682E+04  0.00000000000E+00 0.  1.
          1   -1    0    0  501    0  0.00000000000E+00 -0.00000000000E+00 -0.16560343090E+04  0.16560343090E+04  0.00000000000E+00 0. -1.
         23    2    1    2    0    0  0.14890999269E+04  0.22269397528E+03  0.59718304995E+03  0.16222417635E+04  0.89607729978E+02 0.  0.
         13    1    3    3    0    0  0.42845679273E+03  0.89834148848E+02  0.13965994219E+03  0.45951093240E+03  0.00000000000E+00 0. -1.
        -13    1    3    3    0    0  0.10606431342E+04  0.13285982643E+03  0.45752310776E+03  0.11627308311E+04  0.00000000000E+00 0.  1.
         22    1    1    2    0    0 -0.14890999269E+04 -0.22269397528E+03 -0.64787719077E+03  0.16391327137E+04  0.00000000000E+00 0.  1.
<mgrwt>
<rscale>  0 0.32609805E+04</rscale>
<asrwt>0</asrwt>
<pdfrwt beam="1">  1        1 0.25477451E+00 0.32609805E+04</pdfrwt>
<pdfrwt beam="2">  1       -1 0.24697541E+00 0.32609805E+04</pdfrwt>
<totfact> 0.31021695E-01</totfact>
</mgrwt>
</event>
<event>
 6    1  0.8968082E-007  0.5058191E+04  0.7818608E-02  0.7819593E-01
         -1   -1    0    0    0  501 -0.00000000000E+00  0.00000000000E+00  0.23977138708E+04  0.23977138708E+04  0.00000000000E+00 0.  1.
          1   -1    0    0  501    0  0.00000000000E+00 -0.00000000000E+00 -0.26676760890E+04  0.26676760890E+04  0.00000000000E+00 0. -1.
         23    2    1    2    0    0 -0.17133216173E+04 -0.10641830244E+04  0.13916719528E+04  0.24521573654E+04  0.91479215961E+02 0.  0.
         11    1    3    3    0    0 -0.99186226122E+03 -0.60983585554E+03  0.74865697842E+03  0.13842607367E+04  0.00000000000E+00 0.  1.
        -11    1    3    3    0    0 -0.72145935610E+03 -0.45434716887E+03  0.64301497435E+03  0.10678966287E+04  0.00000000000E+00 0. -1.
         22    1    1    2    0    0  0.17133216173E+04  0.10641830244E+04 -0.16616341710E+04  0.26132325944E+04  0.00000000000E+00 0. -1.
<mgrwt>
<rscale>  0 0.50581910E+04</rscale>
<asrwt>0</asrwt>
<pdfrwt beam="1">  1        1 0.41041171E+00 0.50581910E+04</pdfrwt>
<pdfrwt beam="2">  1       -1 0.36887906E+00 0.50581910E+04</pdfrwt>
<totfact> 0.86430229E-03</totfact>
</mgrwt>
</event>
<event>
 6    1  0.8968082E-007  0.3503168E+04  0.7818608E-02  0.8113040E-01
          2   -1    0    0  501    0  0.00000000000E+00  0.00000000000E+00  0.23780845411E+04  0.23780845411E+04  0.00000000000E+00 0. -1.
         -2   -1    0    0    0  501 -0.00000000000E+00 -0.00000000000E+00 -0.12901332466E+04  0.12901332466E+04  0.00000000000E+00 0.  1.
         23    2    1    2    0    0  0.54775851799E+03  0.83929427302E+03 -0.95838166336E+03  0.13896364647E+04  0.90220954966E+02 0.  0.
         13    1    3    3    0    0  0.20697100182E+03  0.27979050074E+03 -0.28120969398E+03  0.44743559524E+03  0.00000000000E+00 0. -1.
        -13    1    3    3    0    0  0.34078751616E+03  0.55950377227E+03 -0.67717196938E+03  0.94220086949E+03  0.00000000000E+00 0.  1.
         22    1    1    2    0    0 -0.54775851799E+03 -0.83929427302E+03  0.20463329579E+04  0.22785813229E+04  0.00000000000E+00 0. -1.
<mgrwt>
<rscale>  0 0.35031677E+04</rscale>
<asrwt>0</asrwt>
<pdfrwt beam="1">  1        2 0.36585916E+00 0.35031677E+04</pdfrwt>
<pdfrwt beam="2">  1       -2 0.19848204E+00 0.35031677E+04</pdfrwt>
<totfact> 0.45748867E-01</totfact>
</mgrwt>
</event>
<event>
 6    1  0.8968082E-007  0.3997981E+04  0.7818608E-02  0.8004954E-01
          1   -1    0    0  501    0  0.00000000000E+00  0.00000000000E+00  0.34498005540E+04  0.34498005540E+04  0.00000000000E+00 0. -1.
         -1   -1    0    0    0  501 -0.00000000000E+00 -0.00000000000E+00 -0.11583171391E+04  0.11583171391E+04  0.00000000000E+00 0.  1.
         23    2    1    2    0    0 -0.19579574167E+04  0.20769266151E+03  0.15371675087E+04  0.24996286670E+04  0.92336536222E+02 0.  0.
         11    1    3    3    0    0 -0.64307425313E+03  0.10760301490E+03  0.48485605833E+03  0.81253203085E+03  0.00000000000E+00 0.  1.
        -11    1    3    3    0    0 -0.13148831635E+04  0.10008964661E+03  0.10523114503E+04  0.16870966361E+04  0.00000000000E+00 0. -1.
         22    1    1    2    0    0  0.19579574167E+04 -0.20769266151E+03  0.75431590621E+03  0.21084890262E+04  0.00000000000E+00 0.  1.
<mgrwt>
<rscale>  0 0.39979810E+04</rscale>
<asrwt>0</asrwt>
<pdfrwt beam="1">  1        1 0.53073854E+00 0.39979810E+04</pdfrwt>
<pdfrwt beam="2">  1       -1 0.17820264E+00 0.39979810E+04</pdfrwt>
<totfact> 0.45860488E-02</totfact>
</mgrwt>
</event>
<event>
 6    1  0.8968082E-007  0.3095343E+04  0.7818608E-02  0.8217017E-01
          2   -1    0    0  501    0  0.00000000000E+00  0.00000000000E+00  0.30798196052E+04  0.30798196052E+04  0.00000000000E+00 0. -1.
         -2   -1    0    0    0  501 -0.00000000000E+00 -0.00000000000E+00 -0.77773599508E+03  0.77773599508E+03  0.00000000000E+00 0.  1.
         23    2    1    2    0    0  0.10544123852E+04  0.86584446609E+03  0.24514791180E+03  0.13892653855E+04  0.92134114622E+02 0.  0.
         13    1    3    3    0    0  0.95193995135E+02  0.69137284385E+02  0.46975429885E+02  0.12668287893E+03  0.00000000000E+00 0.  1.
        -13    1    3    3    0    0  0.95921839005E+03  0.79670718171E+03  0.19817248191E+03  0.12625825065E+04  0.00000000000E+00 0. -1.
         22    1    1    2    0    0 -0.10544123852E+04 -0.86584446609E+03  0.20569356983E+04  0.24682902148E+04  0.00000000000E+00 0. -1.
<mgrwt>
<rscale>  0 0.30953427E+04</rscale>
<asrwt>0</asrwt>
<pdfrwt beam="1">  1        2 0.47381840E+00 0.30953427E+04</pdfrwt>
<pdfrwt beam="2">  1       -2 0.11965169E+00 0.30953427E+04</pdfrwt>
<totfact> 0.70368627E-01</totfact>
</mgrwt>
</event>
<event>
 6    1  0.8968082E-007  0.1049637E+04  0.7818608E-02  0.9255719E-01
         -1   -1    0    0    0  501 -0.00000000000E+00  0.00000000000E+00  0.10386248741E+03  0.10386248741E+03  0.00000000000E+00 0.  1.
          1   -1    0    0  501    0  0.00000000000E+00 -0.00000000000E+00 -0.26519123592E+04  0.26519123592E+04  0.00000000000E+00 0. -1.
         23    2    1    2    0    0 -0.48153864430E+03 -0.16438323252E+03 -0.15763127874E+04  0.16588818371E+04  0.90695273823E+02 0.  0.
         11    1    3    3    0    0 -0.21089186033E+03 -0.72392998276E+02 -0.54928980133E+03  0.59281987888E+03  0.00000000000E+00 0. -1.
        -11    1    3    3    0    0 -0.27064678397E+03 -0.91990234242E+02 -0.10270229861E+04  0.10660619582E+04  0.00000000000E+00 0.  1.
         22    1    1    2    0    0  0.48153864430E+03  0.16438323252E+03 -0.97173708441E+03  0.10968930095E+04  0.00000000000E+00 0.  1.
<mgrwt>
<rscale>  0 0.10496365E+04</rscale>
<asrwt>0</asrwt>
<pdfrwt beam="1">  1        1 0.40798650E+00 0.10496365E+04</pdfrwt>
<pdfrwt beam="2">  1       -1 0.15978845E-01 0.10496365E+04</pdfrwt>
<totfact> 0.31889618E+01</totfact>
</mgrwt>
</event>
<event>
 6    1  0.8968082E-007  0.2342068E+04  0.7818608E-02  0.8461516E-01
         -2   -1    0    0    0  501 -0.00000000000E+00  0.00000000000E+00  0.15270312230E+04  0.15270312230E+04  0.00000000000E+00 0.  1.
          2   -1    0    0  501    0  0.00000000000E+00 -0.00000000000E+00 -0.89803073501E+03  0.89803073501E+03  0.00000000000E+00 0. -1.
         23    2    1    2    0    0 -0.68201570237E+03  0.62378714927E+03 -0.42685042596E+03  0.10218239246E+04  0.87561526498E+02 0.  0.
         11    1    3    3    0    0 -0.20208296831E+03  0.23969064037E+03 -0.15369616882E+03  0.34915847615E+03  0.00000000000E+00 0. -1.
        -11    1    3    3    0    0 -0.47993273406E+03  0.38409650891E+03 -0.27315425714E+03  0.67266544847E+03  0.00000000000E+00 0.  1.
         22    1    1    2    0    0  0.68201570237E+03 -0.62378714927E+03  0.10558509140E+04  0.14032380334E+04  0.00000000000E+00 0.  1.
<mgrwt>
<rscale>  0 0.23420683E+04</rscale>
<asrwt>0</asrwt>
<pdfrwt beam="1">  1        2 0.13815857E+00 0.23420683E+04</pdfrwt>
<pdfrwt beam="2">  1       -2 0.23492788E+00 0.23420683E+04</pdfrwt>
<totfact> 0.21160843E+00</totfact>
</mgrwt>
</event>
<event>
 6    1  0.8968082E-007  0.2616460E+04  0.7818608E-02  0.8362632E-01
          4   -1    0    0  501    0  0.00000000000E+00  0.00000000000E+00  0.25397110966E+04  0.25397110966E+04  0.00000000000E+00 0. -1.
         -4   -1    0    0    0  501 -0.00000000000E+00 -0.00000000000E+00 -0.67388182816E+03  0.67388182816E+03  0.00000000000E+00 0.  1.
         23    2    1    2    0    0  0.41166419853E+03 -0.12280647580E+04  0.72067047914E+03  0.14847207158E+04  0.86134792153E+02 0.  0.
         13    1    3    3    0    0  0.65366639685E+02 -0.29394056873E+03  0.18833113786E+03  0.35516541641E+03  0.00000000000E+00 0.  1.
        -13    1    3    3    0    0  0.34629755884E+03 -0.93412418924E+03  0.53233934128E+03  0.11295552994E+04  0.00000000000E+00 0. -1.
         22    1    1    2    0    0 -0.41166419853E+03  0.12280647580E+04  0.11451587893E+04  0.17288722089E+04  0.00000000000E+00 0.  1.
<mgrwt>
<rscale>  0 0.26164596E+04</rscale>
<asrwt>0</asrwt>
<pdfrwt beam="1">  1        4 0.39072478E+00 0.26164596E+04</pdfrwt>
<pdfrwt beam="2">  1       -4 0.10367413E+00 0.26164596E+04</pdfrwt>
<totfact> 0.10538474E-02</totfact>
</mgrwt>
</event>
<event>
 6    1  0.8968082E-007  0.3912201E+04  0.7818608E-02  0.8022496E-01
          2   -1    0    0  501    0  0.00000000000E+00  0.00000000000E+00  0.40284973825E+04  0.40284973825E+04  0.00000000000E+00 0. -1.
         -2   -1    0    0    0  501 -0.00000000000E+00 -0.00000000000E+00 -0.94981534952E+03  0.94981534952E+03  0.00000000000E+00 0.  1.
         23    2    1    2    0    0 -0.94679896577E+03  0.43352203018E+03 -0.56537068708E+03  0.11883932264E+04  0.90911025700E+02 0.  0.
         13    1    3    3    0    0 -0.49108330760E+03  0.27395592367E+03 -0.31308548256E+03  0.64361260281E+03  0.00000000000E+00 0.  1.
        -13    1    3    3    0    0 -0.45571565817E+03  0.15956610651E+03 -0.25228520452E+03  0.54478062362E+03  0.00000000000E+00 0. -1.
         22    1    1    2    0    0  0.94679896577E+03 -0.43352203018E+03  0.36440527200E+04  0.37899195056E+04  0.00000000000E+00 0. -1.
<mgrwt>
<rscale>  0 0.39122007E+04</rscale>
<asrwt>0</asrwt>
<pdfrwt beam="1">  1        2 0.61976882E+00 0.39122007E+04</pdfrwt>
<pdfrwt beam="2">  1       -2 0.14612544E+00 0.39122007E+04</pdfrwt>
<totfact> 0.82427128E-02</totfact>
</mgrwt>
</event>
<event>
 6    1  0.8968082E-007  0.2097358E+04  0.7818608E-02  0.8562408E-01
         -2   -1    0    0    0  501 -0.00000000000E+00  0.00000000000E+00  0.14013720698E+04  0.14013720698E+04  0.00000000000E+00 0.  1.
          2   -1    0    0  501    0  0.00000000000E+00 -0.00000000000E+00 -0.78475069369E+03  0.78475069369E+03  0.00000000000E+00 0. -1.
         23    2    1    2    0    0  0.26767210519E+03  0.56736490742E+03 -0.56435012789E+03  0.84886998734E+03  0.92400727744E+02 0.  0.
         13    1    3    3    0    0  0.30660036984E+02  0.38903587287E+02 -0.78867858385E+02  0.93132518799E+02  0.00000000000E+00 0. -1.
        -13    1    3    3    0    0  0.23701206820E+03  0.52846132013E+03 -0.48548226950E+03  0.75573746854E+03  0.00000000000E+00 0.  1.
         22    1    1    2    0    0 -0.26767210519E+03 -0.56736490742E+03  0.11809715040E+04  0.13372527761E+04  0.00000000000E+00 0.  1.
<mgrwt>
<rscale>  0 0.20973581E+04</rscale>
<asrwt>0</asrwt>
<pdfrwt beam="1">  1        2 0.12073088E+00 0.20973581E+04</pdfrwt>
<pdfrwt beam="2">  1       -2 0.21559570E+00 0.20973581E+04</pdfrwt>
<totfact> 0.34323230E+00</totfact>
</mgrwt>
</event>
<event>
 6    1  0.8968082E-007  0.1174357E+04  0.7818608E-02  0.9135603E-01
         -2   -1    0    0    0  501 -0.00000000000E+00  0.00000000000E+00  0.37250779446E+03  0.37250779446E+03  0.00000000000E+00 0.  1.
          2   -1    0    0  501    0  0.00000000000E+00 -0.00000000000E+00 -0.92556008810E+03  0.92556008810E+03  0.00000000000E+00 0. -1.
         23    2    1    2    0    0  0.31407869447E+03 -0.16209756684E+03 -0.79158135090E+03  0.87166764961E+03  0.91007740257E+02 0.  0.
         13    1    3    3    0    0  0.22562951567E+03 -0.71434082837E+02 -0.55391925721E+03  0.60236039880E+03  0.00000000000E+00 0. -1.
        -13    1    3    3    0    0  0.88449178798E+02 -0.90663484005E+02 -0.23766209369E+03  0.26930725081E+03  0.00000000000E+00 0.  1.
         22    1    1    2    0    0 -0.31407869447E+03  0.16209756684E+03  0.23852905726E+03  0.42640023295E+03  0.00000000000E+00 0.  1.
<mgrwt>
<rscale>  0 0.11743566E+04</rscale>
<asrwt>0</asrwt>
<pdfrwt beam="1">  1        2 0.14239386E+00 0.11743566E+04</pdfrwt>
<pdfrwt beam="2">  1       -2 0.57308892E-01 0.11743566E+04</pdfrwt>
<totfact> 0.79478310E+01</totfact>
</mgrwt>
</event>
<event>
 6    1  0.8968082E-007  0.5762148E+04  0.7818608E-02  0.7720613E-01
         -2   -1    0    0    0  501 -0.00000000000E+00  0.00000000000E+00  0.31023568511E+04  0.31023568511E+04  0.00000000000E+00 0.  1.
          2   -1    0    0  501    0  0.00000000000E+00 -0.00000000000E+00 -0.26755742670E+04  0.26755742670E+04  0.00000000000E+00 0. -1.
         23    2    1    2    0    0  0.13750911552E+03 -0.23257371455E+04  0.19117368624E+04  0.30151333992E+04  0.91266405737E+02 0.  0.
         13    1    3    3    0    0  0.95782009003E+02 -0.17640066213E+04  0.13994954356E+04  0.22537704026E+04  0.00000000000E+00 0.  1.
        -13    1    3    3    0    0  0.41727106517E+02 -0.56173052424E+03  0.51224142680E+03  0.76136299661E+03  0.00000000000E+00 0. -1.
         22    1    1    2    0    0 -0.13750911552E+03  0.23257371455E+04 -0.14849542783E+04  0.27627977189E+04  0.00000000000E+00 0. -1.
<mgrwt>
<rscale>  0 0.57621476E+04</rscale>
<asrwt>0</asrwt>
<pdfrwt beam="1">  1        2 0.41162681E+00 0.57621476E+04</pdfrwt>
<pdfrwt beam="2">  1       -2 0.47728567E+00 0.57621476E+04</pdfrwt>
<totfact> 0.43603019E-03</totfact>
</mgrwt>
</event>
<event>
 6    1  0.8968082E-007  0.3222950E+04  0.7818608E-02  0.8182782E-01
         -2   -1    0    0    0  501 -0.00000000000E+00  0.00000000000E+00  0.12142078472E+04  0.12142078472E+04  0.00000000000E+00 0.  1.
          2   -1    0    0  501    0  0.00000000000E+00 -0.00000000000E+00 -0.21387212221E+04  0.21387212221E+04  0.00000000000E+00 0. -1.
         23    2    1    2    0    0 -0.14944232262E+04 -0.30558378803E+03 -0.99915317074E+03  0.18257573928E+04  0.91655703777E+02 0.  0.
         11    1    3    3    0    0 -0.60559595689E+03 -0.15120461150E+03 -0.36554412166E+03  0.72334763594E+03  0.00000000000E+00 0. -1.
        -11    1    3    3    0    0 -0.88882726935E+03 -0.15437917653E+03 -0.63360904907E+03  0.11024097568E+04  0.00000000000E+00 0.  1.
         22    1    1    2    0    0  0.14944232262E+04  0.30558378803E+03  0.74639795802E+02  0.15271716766E+04  0.00000000000E+00 0.  1.
<mgrwt>
<rscale>  0 0.32229503E+04</rscale>
<asrwt>0</asrwt>
<pdfrwt beam="1">  1        2 0.32903403E+00 0.32229503E+04</pdfrwt>
<pdfrwt beam="2">  1       -2 0.18680121E+00 0.32229503E+04</pdfrwt>
<totfact> 0.76531924E-01</totfact>
</mgrwt>
</event>
<event>
 6    1  0.1028154E-006  0.3014305E+04  0.7818608E-02  0.8239658E-01
          3   -1    0    0  501    0  0.00000000000E+00  0.00000000000E+00  0.24355901469E+04  0.24355901469E+04  0.00000000000E+00 0. -1.
         -3   -1    0    0    0  501 -0.00000000000E+00 -0.00000000000E+00 -0.93263196819E+03  0.93263196819E+03  0.00000000000E+00 0.  1.
         23    2    1    2    0    0  0.49248191806E+03  0.39542389240E+03 -0.77521238861E+03  0.10041240570E+04  0.91719028424E+02 0.  0.
         13    1    3    3    0    0  0.29943689380E+03  0.18204962006E+03 -0.43077823475E+03  0.55531469013E+03  0.00000000000E+00 0. -1.
        -13    1    3    3    0    0  0.19304502427E+03  0.21337427233E+03 -0.34443415385E+03  0.44880936691E+03  0.00000000000E+00 0.  1.
         22    1    1    2    0    0 -0.49248191806E+03 -0.39542389240E+03  0.22781705673E+04  0.23640980580E+04  0.00000000000E+00 0. -1.
<mgrwt>
<rscale>  0 0.30143054E+04</rscale>
<asrwt>0</asrwt>
<pdfrwt beam="1">  1        3 0.37470617E+00 0.30143054E+04</pdfrwt>
<pdfrwt beam="2">  1       -3 0.14348184E+00 0.30143054E+04</pdfrwt>
<totfact> 0.12183479E-02</totfact>
</mgrwt>
</event>
<event>
 6    1  0.8968082E-007  0.2512588E+04  0.7818608E-02  0.8398515E-01
          1   -1    0    0  501    0  0.00000000000E+00  0.00000000000E+00  0.21363742844E+04  0.21363742844E+04  0.00000000000E+00 0. -1.
         -1   -1    0    0    0  501 -0.00000000000E+00 -0.00000000000E+00 -0.73876337489E+03  0.73876337489E+03  0.00000000000E+00 0.  1.
         23    2    1    2    0    0  0.11016545137E+04 -0.56628045733E+03  0.47133927388E+03  0.13284329794E+04  0.90869387763E+02 0.  0.
         11    1    3    3    0    0  0.60198214727E+03 -0.35944736305E+03  0.27375097082E+03  0.75267822239E+03  0.00000000000E+00 0.  1.
        -11    1    3    3    0    0  0.49967236644E+03 -0.20683309428E+03  0.19758830307E+03  0.57575475698E+03  0.00000000000E+00 0. -1.
         22    1    1    2    0    0 -0.11016545137E+04  0.56628045733E+03  0.92627163564E+03  0.15467046799E+04  0.00000000000E+00 0. -1.
<mgrwt>
<rscale>  0 0.25125884E+04</rscale>
<asrwt>0</asrwt>
<pdfrwt beam="1">  1        1 0.32867296E+00 0.25125884E+04</pdfrwt>
<pdfrwt beam="2">  1       -1 0.11365590E+00 0.25125884E+04</pdfrwt>
<totfact> 0.15079341E+00</totfact>
</mgrwt>
</event>
<event>
 6    1  0.8968082E-007  0.2640818E+04  0.7818608E-02  0.8354467E-01
         -1   -1    0    0    0  501 -0.00000000000E+00  0.00000000000E+00  0.82602808252E+03  0.82602808252E+03  0.00000000000E+00 0.  1.
          1   -1    0    0  501    0  0.00000000000E+00 -0.00000000000E+00 -0.21106791893E+04  0.21106791893E+04  0.00000000000E+00 0. -1.
         23    2    1    2    0    0 -0.12156308301E+04  0.12826296124E+02 -0.12115659712E+04  0.17188138996E+04  0.92229549967E+02 0.  0.
         13    1    3    3    0    0 -0.11035948783E+04 -0.14834366100E+02 -0.10904393157E+04  0.15515152642E+04  0.00000000000E+00 0. -1.
        -13    1    3    3    0    0 -0.11203595186E+03  0.27660662225E+02 -0.12112665549E+03  0.16729863542E+03  0.00000000000E+00 0.  1.
         22    1    1    2    0    0  0.12156308301E+04 -0.12826296124E+02 -0.73085135598E+02  0.12178933722E+04  0.00000000000E+00 0.  1.
<mgrwt>
<rscale>  0 0.26408183E+04</rscale>
<asrwt>0</asrwt>
<pdfrwt beam="1">  1        1 0.32471988E+00 0.26408183E+04</pdfrwt>
<pdfrwt beam="2">  1       -1 0.12708124E+00 0.26408183E+04</pdfrwt>
<totfact> 0.11808645E+00</totfact>
</mgrwt>
</event>
<event>
 6    1  0.8968082E-007  0.2603491E+04  0.7818608E-02  0.8367016E-01
          2   -1    0    0  501    0  0.00000000000E+00  0.00000000000E+00  0.57607127506E+03  0.57607127506E+03  0.00000000000E+00 0. -1.
         -2   -1    0    0    0  501 -0.00000000000E+00 -0.00000000000E+00 -0.29415478342E+04  0.29415478342E+04  0.00000000000E+00 0.  1.
         23    2    1    2    0    0  0.10927031025E+01 -0.12958248039E+04 -0.10426304356E+04  0.16658402393E+04  0.93714254332E+02 0.  0.
         13    1    3    3    0    0 -0.16049578722E+02 -0.11860037625E+04 -0.97759899761E+03  0.15370628854E+04  0.00000000000E+00 0. -1.
        -13    1    3    3    0    0  0.17142281824E+02 -0.10982104137E+03 -0.65031437956E+02  0.12877735389E+03  0.00000000000E+00 0.  1.
         22    1    1    2    0    0 -0.10927031025E+01  0.12958248039E+04 -0.13228461235E+04  0.18517788699E+04  0.00000000000E+00 0.  1.
<mgrwt>
<rscale>  0 0.26034909E+04</rscale>
<asrwt>0</asrwt>
<pdfrwt beam="1">  1        2 0.88626350E-01 0.26034909E+04</pdfrwt>
<pdfrwt beam="2">  1       -2 0.45254582E+00 0.26034909E+04</pdfrwt>
<totfact> 0.15362010E-01</totfact>
</mgrwt>
</event>
<event>
 6    1  0.8968082E-007  0.2515152E+04  0.7818608E-02  0.8397607E-01
         -2   -1    0    0    0  501 -0.00000000000E+00  0.00000000000E+00  0.13744079250E+04  0.13744079250E+04  0.00000000000E+00 0.  1.
          2   -1    0    0  501    0  0.00000000000E+00 -0.00000000000E+00 -0.11506751769E+04  0.11506751769E+04  0.00000000000E+00 0. -1.
         23    2    1    2    0    0 -0.10514540324E+04 -0.14813834101E+03  0.78537140082E+03  0.13238593398E+04  0.91075595235E+02 0.  0.
         11    1    3    3    0    0 -0.57633907967E+03 -0.57921549226E+02  0.37930976407E+03  0.69238539683E+03  0.00000000000E+00 0. -1.
        -11    1    3    3    0    0 -0.47511495275E+03 -0.90216791781E+02  0.40606163675E+03  0.63147394300E+03  0.00000000000E+00 0.  1.
         22    1    1    2    0    0  0.10514540324E+04  0.14813834101E+03 -0.56163865264E+03  0.12012237621E+04  0.00000000000E+00 0. -1.
<mgrwt>
<rscale>  0 0.25151518E+04</rscale>
<asrwt>0</asrwt>
<pdfrwt beam="1">  1        2 0.17702695E+00 0.25151518E+04</pdfrwt>
<pdfrwt beam="2">  1       -2 0.21144737E+00 0.25151518E+04</pdfrwt>
<totfact> 0.20248478E+00</totfact>
</mgrwt>
</event>
<event>
 6    1  0.8968082E-007  0.3087717E+04  0.7818608E-02  0.8219117E-01
          2   -1    0    0  501    0  0.00000000000E+00  0.00000000000E+00  0.21642668971E+04  0.21642668971E+04  0.00000000000E+00 0. -1.
         -2   -1    0    0    0  501 -0.00000000000E+00 -0.00000000000E+00 -0.11012964485E+04  0.11012964485E+04  0.00000000000E+00 0.  1.
         23    2    1    2    0    0 -0.83126982769E+03  0.55570928163E+03  0.17741236936E+04  0.20385501958E+04  0.91376630776E+02 0.  0.
         13    1    3    3    0    0 -0.27288580689E+03  0.13546841844E+03  0.57041980089E+03  0.64668161041E+03  0.00000000000E+00 0.  1.
        -13    1    3    3    0    0 -0.55838402079E+03  0.42024086319E+03  0.12037038927E+04  0.13918685854E+04  0.00000000000E+00 0. -1.
         22    1    1    2    0    0  0.83126982769E+03 -0.55570928163E+03 -0.71115324496E+03  0.12270131499E+04  0.00000000000E+00 0. -1.
<mgrwt>
<rscale>  0 0.30877172E+04</rscale>
<asrwt>0</asrwt>
<pdfrwt beam="1">  1        2 0.33296414E+00 0.30877172E+04</pdfrwt>
<pdfrwt beam="2">  1       -2 0.16943022E+00 0.30877172E+04</pdfrwt>
<totfact> 0.98885737E-01</totfact>
</mgrwt>
</event>
<event>
 6    1  0.8968082E-007  0.2060043E+04  0.7818608E-02  0.8579052E-01
         -2   -1    0    0    0  501 -0.00000000000E+00  0.00000000000E+00  0.79166609478E+03  0.79166609478E+03  0.00000000000E+00 0.  1.
          2   -1    0    0  501    0  0.00000000000E+00 -0.00000000000E+00 -0.13401410295E+04  0.13401410295E+04  0.00000000000E+00 0. -1.
         23    2    1    2    0    0  0.30550144267E+03  0.55271188284E+03  0.56459420177E+03  0.85206322040E+03  0.91779965082E+02 0.  0.
         11    1    3    3    0    0  0.16483212639E+03  0.38423714618E+03  0.38729383191E+03  0.56991606981E+03  0.00000000000E+00 0.  1.
        -11    1    3    3    0    0  0.14066931628E+03  0.16847473666E+03  0.17730036985E+03  0.28214715059E+03  0.00000000000E+00 0. -1.
         22    1    1    2    0    0 -0.30550144267E+03 -0.55271188284E+03 -0.11130691365E+04  0.12797439039E+04  0.00000000000E+00 0. -1.
<mgrwt>
<rscale>  0 0.20600429E+04</rscale>
<asrwt>0</asrwt>
<pdfrwt beam="1">  1        2 0.20617554E+00 0.20600429E+04</pdfrwt>
<pdfrwt beam="2">  1       -2 0.12179479E+00 0.20600429E+04</pdfrwt>
<totfact> 0.74131530E+00</totfact>
</mgrwt>
</event>
<event>
 6    1  0.8968082E-007  0.1366904E+04  0.7818608E-02  0.8978130E-01
          1   -1    0    0  501    0  0.00000000000E+00  0.00000000000E+00  0.15598382080E+04  0.15598382080E+04  0.00000000000E+00 0. -1.
         -1   -1    0    0    0  501 -0.00000000000E+00 -0.00000000000E+00 -0.29945844059E+03  0.29945844059E+03  0.00000000000E+00 0.  1.
         23    2    1    2    0    0  0.47164997526E+03 -0.47778586394E+03  0.48305803958E+03  0.83218316922E+03  0.91927833558E+02 0.  0.
         13    1    3    3    0    0  0.96921811453E+02 -0.15562693763E+03  0.13763639597E+03  0.22925391762E+03  0.00000000000E+00 0. -1.
        -13    1    3    3    0    0  0.37472816380E+03 -0.32215892632E+03  0.34542164360E+03  0.60292925159E+03  0.00000000000E+00 0.  1.
         22    1    1    2    0    0 -0.47164997526E+03  0.47778586394E+03  0.77732172783E+03  0.10271134794E+04  0.00000000000E+00 0.  1.
<mgrwt>
<rscale>  0 0.13669041E+04</rscale>
<asrwt>0</asrwt>
<pdfrwt beam="1">  1        1 0.23997510E+00 0.13669041E+04</pdfrwt>
<pdfrwt beam="2">  1       -1 0.46070530E-01 0.13669041E+04</pdfrwt>
<totfact> 0.27242625E+01</totfact>
</mgrwt>
</event>
<event>
 6    1  0.8968082E-007  0.1937882E+04  0.7818608E-02  0.8636226E-01
         -4   -1    0    0    0  501 -0.00000000000E+00  0.00000000000E+00  0.20453366069E+04  0.20453366069E+04  0.00000000000E+00 0.  1.
          4   -1    0    0  501    0  0.00000000000E+00 -0.00000000000E+00 -0.45901825229E+03  0.45901825229E+03  0.00000000000E+00 0. -1.
         23    2    1    2    0    0  0.74865858395E+03  0.16662276272E+03  0.33811406016E+02  0.77272826960E+03  0.87823385715E+02 0.  0.
         13    1    3    3    0    0  0.50626804809E+03  0.75363801045E+02  0.42272973845E+02  0.51358937230E+03  0.00000000000E+00 0.  1.
        -13    1    3    3    0    0  0.24239053586E+03  0.91258961674E+02 -0.84615678290E+01  0.25913889730E+03  0.00000000000E+00 0. -1.
         22    1    1    2    0    0 -0.74865858395E+03 -0.16662276272E+03  0.15525069486E+04  0.17316265896E+04  0.00000000000E+00 0.  1.
<mgrwt>
<rscale>  0 0.19378822E+04</rscale>
<asrwt>0</asrwt>
<pdfrwt beam="1">  1        4 0.70618194E-01 0.19378822E+04</pdfrwt>
<pdfrwt beam="2">  1       -4 0.31466717E+00 0.19378822E+04</pdfrwt>
<totfact> 0.85927335E-02</totfact>
</mgrwt>
</event>
<event>
 6    1  0.8968082E-007  0.3653372E+04  0.7818608E-02  0.8078375E-01
         -1   -1    0    0    0  501 -0.00000000000E+00  0.00000000000E+00  0.35042131552E+04  0.35042131552E+04  0.00000000000E+00 0.  1.
          1   -1    0    0  501    0  0.00000000000E+00 -0.00000000000E+00 -0.95221972548E+03  0.95221972548E+03  0.00000000000E+00 0. -1.
         23    2    1    2    0    0  0.16063565424E+04 -0.14086012277E+03  0.23280779292E+03  0.16317479543E+04  0.90437835693E+02 0.  0.
         13    1    3    3    0    0  0.86460323827E+03 -0.54837757446E+02  0.16538729086E+03  0.88198576816E+03  0.00000000000E+00 0.  1.
        -13    1    3    3    0    0  0.74175330417E+03 -0.86022365324E+02  0.67420502065E+02  0.74976218609E+03  0.00000000000E+00 0. -1.
         22    1    1    2    0    0 -0.16063565424E+04  0.14086012277E+03  0.23191856367E+04  0.28246849264E+04  0.00000000000E+00 0.  1.
<mgrwt>
<rscale>  0 0.36533715E+04</rscale>
<asrwt>0</asrwt>
<pdfrwt beam="1">  1        1 0.14649534E+00 0.36533715E+04</pdfrwt>
<pdfrwt beam="2">  1       -1 0.53910971E+00 0.36533715E+04</pdfrwt>
<totfact> 0.11444059E-02</totfact>
</mgrwt>
</event>
<event>
 6    1  0.8968082E-007  0.8391927E+03  0.7818608E-02  0.9504958E-01
         -2   -1    0    0    0  501 -0.00000000000E+00  0.00000000000E+00  0.12416476033E+03  0.12416476033E+03  0.00000000000E+00 0.  1.
          2   -1    0    0  501    0  0.00000000000E+00 -0.00000000000E+00 -0.14179633327E+04  0.14179633327E+04  0.00000000000E+00 0. -1.
         23    2    1    2    0    0 -0.13439423935E+03  0.37811024786E+03 -0.84623167365E+03  0.94100805516E+03  0.91427256763E+02 0.  0.
         13    1    3    3    0    0 -0.10626770071E+03  0.17588598564E+03 -0.46963838916E+03  0.51262941852E+03  0.00000000000E+00 0. -1.
        -13    1    3    3    0    0 -0.28126538636E+02  0.20222426222E+03 -0.37659328449E+03  0.42837863664E+03  0.00000000000E+00 0.  1.
         22    1    1    2    0    0  0.13439423935E+03 -0.37811024786E+03 -0.44756689874E+03  0.60112003789E+03  0.00000000000E+00 0.  1.
<mgrwt>
<rscale>  0 0.83919265E+03</rscale>
<asrwt>0</asrwt>
<pdfrwt beam="1">  1        2 0.21814822E+00 0.83919265E+03</pdfrwt>
<pdfrwt beam="2">  1       -2 0.19102270E-01 0.83919265E+03</pdfrwt>
<totfact> 0.32895575E+02</totfact>
</mgrwt>
</event>
<event>
 6    1  0.8968082E-007  0.2249467E+04  0.7818608E-02  0.8498116E-01
         -2   -1    0    0    0  501 -0.00000000000E+00  0.00000000000E+00  0.38337157922E+03  0.38337157922E+03  0.00000000000E+00 0.  1.
          2   -1    0    0  501    0  0.00000000000E+00 -0.00000000000E+00 -0.32997367649E+04  0.32997367649E+04  0.00000000000E+00 0. -1.
         23    2    1    2    0    0  0.14800767224E+03  0.67109733891E+03 -0.29146233245E+04  0.29958813485E+04  0.89431658913E+02 0.  0.
         13    1    3    3    0    0  0.10412363604E+03  0.41094982026E+03 -0.16122121358E+04  0.16670181334E+04  0.00000000000E+00 0. -1.
        -13    1    3    3    0    0  0.43884036205E+02  0.26014751865E+03 -0.13024111887E+04  0.13288632151E+04  0.00000000000E+00 0.  1.
         22    1    1    2    0    0 -0.14800767224E+03 -0.67109733891E+03 -0.17418611710E+01  0.68722699555E+03  0.00000000000E+00 0. -1.
<mgrwt>
<rscale>  0 0.22494669E+04</rscale>
<asrwt>0</asrwt>
<pdfrwt beam="1">  1        2 0.50765180E+00 0.22494669E+04</pdfrwt>
<pdfrwt beam="2">  1       -2 0.58980244E-01 0.22494669E+04</pdfrwt>
<totfact> 0.27299463E+00</totfact>
</mgrwt>
</event>
<event>
 6    1  0.8968082E-007  0.2299454E+04  0.7818608E-02  0.8478137E-01
          1   -1    0    0  501    0  0.00000000000E+00  0.00000000000E+00  0.22645241923E+04  0.22645241923E+04  0.00000000000E+00 0. -1.
         -1   -1    0    0    0  501 -0.00000000000E+00 -0.00000000000E+00 -0.58373042675E+03  0.58373042675E+03  0.00000000000E+00 0.  1.
         23    2    1    2    0    0  0.40949645979E+03  0.10389992990E+04  0.51275504844E+03  0.12322344030E+04  0.90977965878E+02 0.  0.
         11    1    3    3    0    0  0.10546483217E+03  0.34287823445E+03  0.12933359766E+03  0.38133383533E+03  0.00000000000E+00 0.  1.
        -11    1    3    3    0    0  0.30403162762E+03  0.69612106459E+03  0.38342145078E+03  0.85090056768E+03  0.00000000000E+00 0. -1.
         22    1    1    2    0    0 -0.40949645979E+03 -0.10389992990E+04  0.11680387171E+04  0.16160202160E+04  0.00000000000E+00 0. -1.
<mgrwt>
<rscale>  0 0.22994536E+04</rscale>
<asrwt>0</asrwt>
<pdfrwt beam="1">  1        1 0.34838833E+00 0.22994536E+04</pdfrwt>
<pdfrwt beam="2">  1       -1 0.89804682E-01 0.22994536E+04</pdfrwt>
<totfact> 0.21590156E+00</totfact>
</mgrwt>
</event>
<event>
 6    1  0.8968082E-007  0.7073518E+03  0.7818608E-02  0.9704742E-01
          2   -1    0    0  501    0  0.00000000000E+00  0.00000000000E+00  0.10695812767E+04  0.10695812767E+04  0.00000000000E+00 0. -1.
         -2   -1    0    0    0  501 -0.00000000000E+00 -0.00000000000E+00 -0.11694918292E+03  0.11694918292E+03  0.00000000000E+00 0.  1.
         23    2    1    2    0    0  0.33441198436E+03  0.73888391129E+02  0.58656342412E+03  0.68523499732E+03  0.90550987885E+02 0.  0.
         13    1    3    3    0    0  0.29921350666E+03  0.67308205563E+02  0.56649626379E+03  0.64418718863E+03  0.00000000000E+00 0. -1.
        -13    1    3    3    0    0  0.35198477702E+02  0.65801855653E+01  0.20067160329E+02  0.41047808690E+02  0.00000000000E+00 0.  1.
         22    1    1    2    0    0 -0.33441198436E+03 -0.73888391129E+02  0.36606866970E+03  0.50129546234E+03  0.00000000000E+00 0. -1.
<mgrwt>
<rscale>  0 0.70735184E+03</rscale>
<asrwt>0</asrwt>
<pdfrwt beam="1">  1        2 0.16455096E+00 0.70735184E+03</pdfrwt>
<pdfrwt beam="2">  1       -2 0.17992183E-01 0.70735184E+03</pdfrwt>
<totfact> 0.58836678E+02</totfact>
</mgrwt>
</event>
<event>
 6    1  0.8968082E-007  0.2893118E+04  0.7818608E-02  0.8274928E-01
         -2   -1    0    0    0  501 -0.00000000000E+00  0.00000000000E+00  0.71288077210E+03  0.71288077210E+03  0.00000000000E+00 0.  1.
          2   -1    0    0  501    0  0.00000000000E+00 -0.00000000000E+00 -0.29353186853E+04  0.29353186853E+04  0.00000000000E+00 0. -1.
         23    2    1    2    0    0 -0.83306805188E+03  0.10411276618E+04 -0.18147540697E+04  0.22538697606E+04  0.92991273538E+02 0.  0.
         11    1    3    3    0    0 -0.66984177895E+03  0.78976935764E+03 -0.13641297263E+04  0.17126802262E+04  0.00000000000E+00 0. -1.
        -11    1    3    3    0    0 -0.16322627293E+03  0.25135830417E+03 -0.45062434341E+03  0.54118953438E+03  0.00000000000E+00 0.  1.
         22    1    1    2    0    0  0.83306805188E+03 -0.10411276618E+04 -0.40768384353E+03  0.13943296968E+04  0.00000000000E+00 0.  1.
<mgrwt>
<rscale>  0 0.28931175E+04</rscale>
<asrwt>0</asrwt>
<pdfrwt beam="1">  1        2 0.45158748E+00 0.28931175E+04</pdfrwt>
<pdfrwt beam="2">  1       -2 0.10967397E+00 0.28931175E+04</pdfrwt>
<totfact> 0.10913029E+00</totfact>
</mgrwt>
</event>
<event>
 6    1  0.8968082E-007  0.9258699E+03  0.7818608E-02  0.9393808E-01
          2   -1    0    0  501    0  0.00000000000E+00  0.00000000000E+00  0.59765625721E+03  0.59765625721E+03  0.00000000000E+00 0. -1.
         -2   -1    0    0    0  501 -0.00000000000E+00 -0.00000000000E+00 -0.35858199383E+03  0.35858199383E+03  0.00000000000E+00 0.  1.
         23    2    1    2    0    0  0.22216634770E+03 -0.43331981454E+02 -0.29053672435E+03  0.38028396032E+03  0.94703514256E+02 0.  0.
         13    1    3    3    0    0  0.14201684978E+03  0.19719565364E+02 -0.17135090272E+03  0.22342510768E+03  0.00000000000E+00 0. -1.
        -13    1    3    3    0    0  0.80149497924E+02 -0.63051546819E+02 -0.11918582164E+03  0.15685885264E+03  0.00000000000E+00 0.  1.
         22    1    1    2    0    0 -0.22216634770E+03  0.43331981454E+02  0.52961098774E+03  0.57595429072E+03  0.00000000000E+00 0. -1.
<mgrwt>
<rscale>  0 0.92586991E+03</rscale>
<asrwt>0</asrwt>
<pdfrwt beam="1">  1        2 0.91947116E-01 0.92586991E+03</pdfrwt>
<pdfrwt beam="2">  1       -2 0.55166461E-01 0.92586991E+03</pdfrwt>
<totfact> 0.15433745E+02</totfact>
</mgrwt>
</event>
<event>
 6    1  0.8968082E-007  0.1363041E+04  0.7818608E-02  0.8981015E-01
         -1   -1    0    0    0  501 -0.00000000000E+00  0.00000000000E+00  0.38235596024E+03  0.38235596024E+03  0.00000000000E+00 0.  1.
          1   -1    0    0  501    0  0.00000000000E+00 -0.00000000000E+00 -0.12147578580E+04  0.12147578580E+04  0.00000000000E+00 0. -1.
         23    2    1    2    0    0 -0.58372845929E+03  0.29899314694E+03 -0.61094420684E+03  0.90488601975E+03  0.12421782792E+03 0.  0.
         11    1    3    3    0    0 -0.30642308315E+03  0.17511324806E+03 -0.40868420444E+03  0.53998382799E+03  0.00000000000E+00 0.  1.
        -11    1    3    3    0    0 -0.27730537614E+03  0.12387989889E+03 -0.20226000240E+03  0.36490219176E+03  0.00000000000E+00 0. -1.
         22    1    1    2    0    0  0.58372845929E+03 -0.29899314694E+03 -0.22145769090E+03  0.69222779846E+03  0.00000000000E+00 0.  1.
<mgrwt>
<rscale>  0 0.13630406E+04</rscale>
<asrwt>0</asrwt>
<pdfrwt beam="1">  1        1 0.18688582E+00 0.13630406E+04</pdfrwt>
<pdfrwt beam="2">  1       -1 0.58823995E-01 0.13630406E+04</pdfrwt>
<totfact> 0.29852510E+01</totfact>
</mgrwt>
</event>
<event>
 6    1  0.8968082E-007  0.3184628E+04  0.7818608E-02  0.8192889E-01
          2   -1    0    0  501    0  0.00000000000E+00  0.00000000000E+00  0.11319044550E+04  0.11319044550E+04  0.00000000000E+00 0. -1.
         -2   -1    0    0    0  501 -0.00000000000E+00 -0.00000000000E+00 -0.22399977961E+04  0.22399977961E+04  0.00000000000E+00 0.  1.
         23    2    1    2    0    0 -0.20900829872E+03 -0.83881184710E+03  0.85967405580E+03  0.12226236949E+04  0.92083839198E+02 0.  0.
         11    1    3    3    0    0 -0.68170674931E+02 -0.38517141003E+03  0.33643773545E+03  0.51594050613E+03  0.00000000000E+00 0. -1.
        -11    1    3    3    0    0 -0.14083762379E+03 -0.45364043707E+03  0.52323632035E+03  0.70668318881E+03  0.00000000000E+00 0.  1.
         22    1    1    2    0    0  0.20900829872E+03  0.83881184710E+03 -0.19677673969E+04  0.21492785562E+04  0.00000000000E+00 0.  1.
<mgrwt>
<rscale>  0 0.31846278E+04</rscale>
<asrwt>0</asrwt>
<pdfrwt beam="1">  1        2 0.17413915E+00 0.31846278E+04</pdfrwt>
<pdfrwt beam="2">  1       -2 0.34461505E+00 0.31846278E+04</pdfrwt>
<totfact> 0.29523978E-01</totfact>
</mgrwt>
</event>
<event>
 6    1  0.8968082E-007  0.1113233E+04  0.7818608E-02  0.9192389E-01
          2   -1    0    0  501    0  0.00000000000E+00  0.00000000000E+00  0.41461235063E+03  0.41461235063E+03  0.00000000000E+00 0. -1.
         -2   -1    0    0    0  501 -0.00000000000E+00 -0.00000000000E+00 -0.74725702138E+03  0.74725702138E+03  0.00000000000E+00 0.  1.
         23    2    1    2    0    0  0.69648277742E+02 -0.28931774674E+01 -0.73972397186E+03  0.74886475888E+03  0.93528709422E+02 0.  0.
         11    1    3    3    0    0  0.85765384691E+02 -0.24857402336E+02 -0.55263513684E+03  0.55980281004E+03  0.00000000000E+00 0.  1.
        -11    1    3    3    0    0 -0.16117106949E+02  0.21964224868E+02 -0.18708883502E+03  0.18906194884E+03  0.00000000000E+00 0. -1.
         22    1    1    2    0    0 -0.69648277742E+02  0.28931774674E+01  0.40707930111E+03  0.41300461312E+03  0.00000000000E+00 0. -1.
<mgrwt>
<rscale>  0 0.11132331E+04</rscale>
<asrwt>0</asrwt>
<pdfrwt beam="1">  1        2 0.63786516E-01 0.11132331E+04</pdfrwt>
<pdfrwt beam="2">  1       -2 0.11496262E+00 0.11132331E+04</pdfrwt>
<totfact> 0.44691135E+01</totfact>
</mgrwt>
</event>
<event>
 6    1  0.8968082E-007  0.4102564E+04  0.7818608E-02  0.7984170E-01
          1   -1    0    0  501    0  0.00000000000E+00  0.00000000000E+00  0.32391770160E+04  0.32391770160E+04  0.00000000000E+00 0. -1.
         -1   -1    0    0    0  501 -0.00000000000E+00 -0.00000000000E+00 -0.12990208706E+04  0.12990208706E+04  0.00000000000E+00 0.  1.
         23    2    1    2    0    0 -0.97151635438E+03 -0.92073742209E+03  0.26885366596E+04  0.30046807457E+04  0.90970248059E+02 0.  0.
         11    1    3    3    0    0 -0.24495142873E+03 -0.27107415667E+03  0.79949390055E+03  0.87901814422E+03  0.00000000000E+00 0.  1.
        -11    1    3    3    0    0 -0.72656492565E+03 -0.64966326542E+03  0.18890427591E+04  0.21256626015E+04  0.00000000000E+00 0. -1.
         22    1    1    2    0    0  0.97151635438E+03  0.92073742209E+03 -0.74838051428E+03  0.15335171409E+04  0.00000000000E+00 0.  1.
<mgrwt>
<rscale>  0 0.41025643E+04</rscale>
<asrwt>0</asrwt>
<pdfrwt beam="1">  1        1 0.49833492E+00 0.41025643E+04</pdfrwt>
<pdfrwt beam="2">  1       -1 0.19984937E+00 0.41025643E+04</pdfrwt>
<totfact> 0.46462016E-02</totfact>
</mgrwt>
</event>
<event>
 6    1  0.8968082E-007  0.2144169E+04  0.7818608E-02  0.8542032E-01
          2   -1    0    0  501    0  0.00000000000E+00  0.00000000000E+00  0.18262047397E+04  0.18262047397E+04  0.00000000000E+00 0. -1.
         -2   -1    0    0    0  501 -0.00000000000E+00 -0.00000000000E+00 -0.62937387541E+03  0.62937387541E+03  0.00000000000E+00 0.  1.
         23    2    1    2    0    0  0.61675008503E+03 -0.80515841258E+03  0.20889583080E+03  0.10397126726E+04  0.93296499143E+02 0.  0.
         13    1    3    3    0    0  0.13175076644E+03 -0.22387571463E+03  0.79753492067E+02  0.27173372914E+03  0.00000000000E+00 0.  1.
        -13    1    3    3    0    0  0.48499931859E+03 -0.58128269795E+03  0.12914233873E+03  0.76797894348E+03  0.00000000000E+00 0. -1.
         22    1    1    2    0    0 -0.61675008503E+03  0.80515841258E+03  0.98793503352E+03  0.14158659425E+04  0.00000000000E+00 0. -1.
<mgrwt>
<rscale>  0 0.21441694E+04</rscale>
<asrwt>0</asrwt>
<pdfrwt beam="1">  1        2 0.28095457E+00 0.21441694E+04</pdfrwt>
<pdfrwt beam="2">  1       -2 0.96826751E-01 0.21441694E+04</pdfrwt>
<totfact> 0.68292798E+00</totfact>
</mgrwt>
</event>
<event>
 6    1  0.8968082E-007  0.6902944E+03  0.7818608E-02  0.9733976E-01
         -1   -1    0    0    0  501 -0.00000000000E+00  0.00000000000E+00  0.12027287036E+03  0.12027287036E+03  0.00000000000E+00 0.  1.
          1   -1    0    0  501    0  0.00000000000E+00 -0.00000000000E+00 -0.99046934217E+03  0.99046934217E+03  0.00000000000E+00 0. -1.
         23    2    1    2    0    0 -0.19410719356E+03  0.44463924076E+02 -0.88439341819E+03  0.91110204517E+03  0.91107493800E+02 0.  0.
         13    1    3    3    0    0 -0.48540018157E+01  0.26955603811E+02 -0.15208167676E+03  0.15452832205E+03  0.00000000000E+00 0. -1.
        -13    1    3    3    0    0 -0.18925319175E+03  0.17508320265E+02 -0.73231174143E+03  0.75657372311E+03  0.00000000000E+00 0.  1.
         22    1    1    2    0    0  0.19410719356E+03 -0.44463924076E+02  0.14196946387E+02  0.19964016736E+03  0.00000000000E+00 0.  1.
<mgrwt>
<rscale>  0 0.69029440E+03</rscale>
<asrwt>0</asrwt>
<pdfrwt beam="1">  1        1 0.15237990E+00 0.69029440E+03</pdfrwt>
<pdfrwt beam="2">  1       -1 0.18503518E-01 0.69029440E+03</pdfrwt>
<totfact> 0.36302692E+02</totfact>
</mgrwt>
</event>
<event>
 6    1  0.8968082E-007  0.2752243E+04  0.7818608E-02  0.8318250E-01
          2   -1    0    0  501    0  0.00000000000E+00  0.00000000000E+00  0.26282838846E+04  0.26282838846E+04  0.00000000000E+00 0. -1.
         -2   -1    0    0    0  501 -0.00000000000E+00 -0.00000000000E+00 -0.72051187995E+03  0.72051187995E+03  0.00000000000E+00 0.  1.
         23    2    1    2    0    0  0.49837347442E+02 -0.12553647595E+04  0.16334042251E+04  0.20628322662E+04  0.94038053520E+02 0.  0.
         11    1    3    3    0    0  0.76729755546E+01 -0.10257938062E+04  0.13555683517E+04  0.16999639300E+04  0.00000000000E+00 0.  1.
        -11    1    3    3    0    0  0.42164371887E+02 -0.22957095333E+03  0.27783587337E+03  0.36286833618E+03  0.00000000000E+00 0. -1.
         22    1    1    2    0    0 -0.49837347442E+02  0.12553647595E+04  0.27436777956E+03  0.12859634983E+04  0.00000000000E+00 0. -1.
<mgrwt>
<rscale>  0 0.27522425E+04</rscale>
<asrwt>0</asrwt>
<pdfrwt beam="1">  1        2 0.40435136E+00 0.27522425E+04</pdfrwt>
<pdfrwt beam="2">  1       -2 0.11084798E+00 0.27522425E+04</pdfrwt>
<totfact> 0.16494210E+00</totfact>
</mgrwt>
</event>
<event>
 6    1  0.8968082E-007  0.8397511E+03  0.7818608E-02  0.9504197E-01
         -1   -1    0    0    0  501 -0.00000000000E+00  0.00000000000E+00  0.64823561194E+02  0.64823561194E+02  0.00000000000E+00 0.  1.
          1   -1    0    0  501    0  0.00000000000E+00 -0.00000000000E+00 -0.27196202142E+04  0.27196202142E+04  0.00000000000E+00 0. -1.
         23    2    1    2    0    0 -0.12334904182E+03 -0.24375535199E+03 -0.23785792546E+04  0.23959496198E+04  0.91124379328E+02 0.  0.
         13    1    3    3    0    0 -0.52737287254E+02 -0.16524030090E+03 -0.11730360582E+04  0.11857905263E+04  0.00000000000E+00 0. -1.
        -13    1    3    3    0    0 -0.70611754571E+02 -0.78515051086E+02 -0.12055431964E+04  0.12101590935E+04  0.00000000000E+00 0.  1.
         22    1    1    2    0    0  0.12334904182E+03  0.24375535199E+03 -0.27621739841E+03  0.38849415559E+03  0.00000000000E+00 0.  1.
<mgrwt>
<rscale>  0 0.83975108E+03</rscale>
<asrwt>0</asrwt>
<pdfrwt beam="1">  1        1 0.41840306E+00 0.83975108E+03</pdfrwt>
<pdfrwt beam="2">  1       -1 0.99728567E-02 0.83975108E+03</pdfrwt>
<totfact> 0.62544447E+01</totfact>
</mgrwt>
</event>
<event>
 6    1  0.8968082E-007  0.1053710E+04  0.7818608E-02  0.9251522E-01
          2   -1    0    0  501    0  0.00000000000E+00  0.00000000000E+00  0.81918347080E+03  0.81918347080E+03  0.00000000000E+00 0. -1.
         -2   -1    0    0    0  501 -0.00000000000E+00 -0.00000000000E+00 -0.33884507701E+03  0.33884507701E+03  0.00000000000E+00 0.  1.
         23    2    1    2    0    0 -0.24605068808E+02 -0.38077965624E+03 -0.15322327570E+03  0.41843477752E+03  0.77535377732E+02 0.  0.
         13    1    3    3    0    0 -0.34701516170E+01 -0.29557886031E+03 -0.85958951457E+02  0.30784386619E+03  0.00000000000E+00 0. -1.
        -13    1    3    3    0    0 -0.21134917191E+02 -0.85200795928E+02 -0.67264324246E+02  0.11059091133E+03  0.00000000000E+00 0.  1.
         22    1    1    2    0    0  0.24605068808E+02  0.38077965624E+03  0.63356166949E+03  0.73959377030E+03  0.00000000000E+00 0. -1.
<mgrwt>
<rscale>  0 0.10537102E+04</rscale>
<asrwt>0</asrwt>
<pdfrwt beam="1">  1        2 0.12602822E+00 0.10537102E+04</pdfrwt>
<pdfrwt beam="2">  1       -2 0.52130012E-01 0.10537102E+04</pdfrwt>
<totfact> 0.11540912E+02</totfact>
</mgrwt>
</event>
<event>
 6    1  0.8968082E-007  0.1433330E+04  0.7818608E-02  0.8930040E-01
         -2   -1    0    0    0  501 -0.00000000000E+00  0.00000000000E+00  0.30987396046E+03  0.30987396046E+03  0.00000000000E+00 0.  1.
          2   -1    0    0  501    0  0.00000000000E+00 -0.00000000000E+00 -0.16574751844E+04  0.16574751844E+04  0.00000000000E+00 0. -1.
         23    2    1    2    0    0  0.52693933508E+03 -0.17080449893E+03 -0.12943592343E+04  0.14108655879E+04  0.91305201973E+02 0.  0.
         11    1    3    3    0    0  0.32699087850E+03 -0.74717095882E+02 -0.69331669380E+03  0.77019070167E+03  0.00000000000E+00 0. -1.
        -11    1    3    3    0    0  0.19994845658E+03 -0.96087403053E+02 -0.60104254053E+03  0.64067488622E+03  0.00000000000E+00 0.  1.
         22    1    1    2    0    0 -0.52693933508E+03  0.17080449893E+03 -0.53241989600E+02  0.55648355696E+03  0.00000000000E+00 0.  1.
<mgrwt>
<rscale>  0 0.14333296E+04</rscale>
<asrwt>0</asrwt>
<pdfrwt beam="1">  1        2 0.25499618E+00 0.14333296E+04</pdfrwt>
<pdfrwt beam="2">  1       -2 0.47672917E-01 0.14333296E+04</pdfrwt>
<totfact> 0.41921810E+01</totfact>
</mgrwt>
</event>
<event>
 6    1  0.8968082E-007  0.3595494E+04  0.7818608E-02  0.8091525E-01
         -2   -1    0    0    0  501 -0.00000000000E+00  0.00000000000E+00  0.10311788870E+04  0.10311788870E+04  0.00000000000E+00 0.  1.
          2   -1    0    0  501    0  0.00000000000E+00 -0.00000000000E+00 -0.31341741929E+04  0.31341741929E+04  0.00000000000E+00 0. -1.
         23    2    1    2    0    0  0.51279393512E+03  0.17182031088E+04 -0.92328630399E+03  0.20189857134E+04  0.93092260050E+02 0.  0.
         11    1    3    3    0    0  0.23898247091E+03  0.85488541591E+03 -0.50636781434E+03  0.10219344691E+04  0.00000000000E+00 0. -1.
        -11    1    3    3    0    0  0.27381146422E+03  0.86331769286E+03 -0.41691848965E+03  0.99705124430E+03  0.00000000000E+00 0.  1.
         22    1    1    2    0    0 -0.51279393512E+03 -0.17182031088E+04 -0.11797090019E+04  0.21463673665E+04  0.00000000000E+00 0. -1.
<mgrwt>
<rscale>  0 0.35954940E+04</rscale>
<asrwt>0</asrwt>
<pdfrwt beam="1">  1        2 0.48218063E+00 0.35954940E+04</pdfrwt>
<pdfrwt beam="2">  1       -2 0.15864291E+00 0.35954940E+04</pdfrwt>
<totfact> 0.30044949E-01</totfact>
</mgrwt>
</event>
<event>
 6    1  0.8968082E-007  0.2095343E+04  0.7818608E-02  0.8563298E-01
          3   -1    0    0  501    0  0.00000000000E+00  0.00000000000E+00  0.71372026738E+03  0.71372026738E+03  0.00000000000E+00 0. -1.
         -3   -1    0    0    0  501 -0.00000000000E+00 -0.00000000000E+00 -0.15378788042E+04  0.15378788042E+04  0.00000000000E+00 0.  1.
         23    2    1    2    0    0 -0.22795208270E+03  0.40646205978E+03  0.59320144287E+03  0.75959274785E+03  0.88992318292E+02 0.  0.
         11    1    3    3    0    0 -0.18855969600E+03  0.25422994114E+03  0.41503139386E+03  0.52195658806E+03  0.00000000000E+00 0. -1.
        -11    1    3    3    0    0 -0.39392386693E+02  0.15223211864E+03  0.17817004900E+03  0.23763615979E+03  0.00000000000E+00 0.  1.
         22    1    1    2    0    0  0.22795208270E+03 -0.40646205978E+03 -0.14173599797E+04  0.14920063238E+04  0.00000000000E+00 0.  1.
<mgrwt>
<rscale>  0 0.20953427E+04</rscale>
<asrwt>0</asrwt>
<pdfrwt beam="1">  1        3 0.10980312E+00 0.20953427E+04</pdfrwt>
<pdfrwt beam="2">  1       -3 0.23659674E+00 0.20953427E+04</pdfrwt>
<totfact> 0.14790477E-01</totfact>
</mgrwt>
</event>
<event>
 6    1  0.8968082E-007  0.1867310E+04  0.7818608E-02  0.8671302E-01
         -1   -1    0    0    0  501 -0.00000000000E+00  0.00000000000E+00  0.12011635759E+04  0.12011635759E+04  0.00000000000E+00 0.  1.
          1   -1    0    0  501    0  0.00000000000E+00 -0.00000000000E+00 -0.72572230578E+03  0.72572230578E+03  0.00000000000E+00 0. -1.
         23    2    1    2    0    0  0.54073480522E+03  0.75658206242E+03  0.29355763821E+03  0.97931414175E+03  0.89830699272E+02 0.  0.
         11    1    3    3    0    0  0.91330800177E+02  0.99007354529E+02  0.14982634778E+02  0.13552951950E+03  0.00000000000E+00 0. -1.
        -11    1    3    3    0    0  0.44940400504E+03  0.65757470789E+03  0.27857500343E+03  0.84378462225E+03  0.00000000000E+00 0.  1.
         22    1    1    2    0    0 -0.54073480522E+03 -0.75658206242E+03  0.18188363190E+03  0.94757173992E+03  0.00000000000E+00 0.  1.
<mgrwt>
<rscale>  0 0.18673095E+04</rscale>
<asrwt>0</asrwt>
<pdfrwt beam="1">  1        1 0.11164959E+00 0.18673095E+04</pdfrwt>
<pdfrwt beam="2">  1       -1 0.18479440E+00 0.18673095E+04</pdfrwt>
<totfact> 0.46506771E+00</totfact>
</mgrwt>
</event>
<event>
 6    1  0.8968082E-007  0.3927983E+04  0.7818608E-02  0.8019234E-01
          2   -1    0    0  501    0  0.00000000000E+00  0.00000000000E+00  0.18220585166E+04  0.18220585166E+04  0.00000000000E+00 0. -1.
         -2   -1    0    0    0  501 -0.00000000000E+00 -0.00000000000E+00 -0.21169802003E+04  0.21169802003E+04  0.00000000000E+00 0.  1.
         23    2    1    2    0    0  0.10341545137E+03  0.17669309507E+04 -0.99846892211E+03  0.20343816725E+04  0.95020318217E+02 0.  0.
         11    1    3    3    0    0  0.60002003339E+02  0.41459865529E+03 -0.21455875755E+03  0.47066734093E+03  0.00000000000E+00 0.  1.
        -11    1    3    3    0    0  0.43413448030E+02  0.13523322954E+04 -0.78391016457E+03  0.15637143316E+04  0.00000000000E+00 0. -1.
         22    1    1    2    0    0 -0.10341545137E+03 -0.17669309507E+04  0.70354723846E+03  0.19046570444E+04  0.00000000000E+00 0. -1.
<mgrwt>
<rscale>  0 0.39279826E+04</rscale>
<asrwt>0</asrwt>
<pdfrwt beam="1">  1        2 0.28031670E+00 0.39279826E+04</pdfrwt>
<pdfrwt beam="2">  1       -2 0.32568926E+00 0.39279826E+04</pdfrwt>
<totfact> 0.14694530E-01</totfact>
</mgrwt>
</event>
<event>
 6    1  0.8968082E-007  0.9921640E+03  0.7818608E-02  0.9317181E-01
          1   -1    0    0  501    0  0.00000000000E+00  0.00000000000E+00  0.22000964315E+03  0.22000964315E+03  0.00000000000E+00 0. -1.
         -1   -1    0    0    0  501 -0.00000000000E+00 -0.00000000000E+00 -0.11185753905E+04  0.11185753905E+04  0.00000000000E+00 0.  1.
         23    2    1    2    0    0  0.10779813022E+03 -0.25068982963E+03  0.99288516142E+02  0.30409049102E+03  0.90260676548E+02 0.  0.
         13    1    3    3    0    0  0.39005004641E+02 -0.19222281900E+03  0.79657150144E+02  0.21169852173E+03  0.00000000000E+00 0.  1.
        -13    1    3    3    0    0  0.68793125578E+02 -0.58467010631E+02  0.19631365997E+02  0.92391969293E+02  0.00000000000E+00 0. -1.
         22    1    1    2    0    0 -0.10779813022E+03  0.25068982963E+03 -0.99785426346E+03  0.10344945426E+04  0.00000000000E+00 0.  1.
<mgrwt>
<rscale>  0 0.99216404E+03</rscale>
<asrwt>0</asrwt>
<pdfrwt beam="1">  1        1 0.33847637E-01 0.99216404E+03</pdfrwt>
<pdfrwt beam="2">  1       -1 0.17208852E+00 0.99216404E+03</pdfrwt>
<totfact> 0.31324284E+01</totfact>
</mgrwt>
</event>
<event>
 6    1  0.8968082E-007  0.2744107E+04  0.7818608E-02  0.8320834E-01
         -2   -1    0    0    0  501 -0.00000000000E+00  0.00000000000E+00  0.14935570494E+04  0.14935570494E+04  0.00000000000E+00 0.  1.
          2   -1    0    0  501    0  0.00000000000E+00 -0.00000000000E+00 -0.12604343612E+04  0.12604343612E+04  0.00000000000E+00 0. -1.
         23    2    1    2    0    0 -0.86821070344E+03  0.62142908739E+02 -0.94554169339E+03  0.12887606126E+04  0.95933602375E+02 0.  0.
         13    1    3    3    0    0 -0.54704183681E+03  0.64712914823E+02 -0.65309627604E+03  0.85438707758E+03  0.00000000000E+00 0. -1.
        -13    1    3    3    0    0 -0.32116886663E+03 -0.25700060846E+01 -0.29244541736E+03  0.43437353506E+03  0.00000000000E+00 0.  1.
         22    1    1    2    0    0  0.86821070344E+03 -0.62142908739E+02  0.11786643816E+04  0.14652307979E+04  0.00000000000E+00 0.  1.
<mgrwt>
<rscale>  0 0.27441069E+04</rscale>
<asrwt>0</asrwt>
<pdfrwt beam="1">  1        2 0.19391298E+00 0.27441069E+04</pdfrwt>
<pdfrwt beam="2">  1       -2 0.22977801E+00 0.27441069E+04</pdfrwt>
<totfact> 0.13075222E+00</totfact>
</mgrwt>
</event>
<event>
 6    1  0.8968082E-007  0.1486435E+04  0.7818608E-02  0.8893524E-01
          2   -1    0    0  501    0  0.00000000000E+00  0.00000000000E+00  0.74293692561E+03  0.74293692561E+03  0.00000000000E+00 0. -1.
         -2   -1    0    0    0  501 -0.00000000000E+00 -0.00000000000E+00 -0.74349832897E+03  0.74349832897E+03  0.00000000000E+00 0.  1.
         23    2    1    2    0    0 -0.24759174414E+03  0.58896217230E+03 -0.37458218163E+03  0.74611798830E+03  0.90565608874E+02 0.  0.
         11    1    3    3    0    0 -0.16993267239E+03  0.35367231608E+03 -0.18321212984E+03  0.43304492241E+03  0.00000000000E+00 0.  1.
        -11    1    3    3    0    0 -0.77659071749E+02  0.23528985623E+03 -0.19137005179E+03  0.31307306590E+03  0.00000000000E+00 0. -1.
         22    1    1    2    0    0  0.24759174414E+03 -0.58896217230E+03  0.37402077828E+03  0.74031726628E+03  0.00000000000E+00 0. -1.
<mgrwt>
<rscale>  0 0.14864351E+04</rscale>
<asrwt>0</asrwt>
<pdfrwt beam="1">  1        2 0.11429799E+00 0.14864351E+04</pdfrwt>
<pdfrwt beam="2">  1       -2 0.11438436E+00 0.14864351E+04</pdfrwt>
<totfact> 0.21935767E+01</totfact>
</mgrwt>
</event>
<event>
 6    1  0.8968082E-007  0.3100675E+04  0.7818608E-02  0.8215553E-01
         -1   -1    0    0    0  501 -0.00000000000E+00  0.00000000000E+00  0.19007841531E+04  0.19007841531E+04  0.00000000000E+00 0.  1.
          1   -1    0    0  501    0  0.00000000000E+00 -0.00000000000E+00 -0.12645026582E+04  0.12645026582E+04  0.00000000000E+00 0. -1.
         23    2    1    2    0    0  0.89161375630E+03 -0.12414808516E+04  0.57510084655E+03  0.16355832887E+04  0.90232560685E+02 0.  0.
         13    1    3    3    0    0  0.44110159654E+03 -0.55902334124E+03  0.30133988723E+03  0.77322923002E+03  0.00000000000E+00 0.  1.
        -13    1    3    3    0    0  0.45051215976E+03 -0.68245751041E+03  0.27376095932E+03  0.86235405864E+03  0.00000000000E+00 0. -1.
         22    1    1    2    0    0 -0.89161375630E+03  0.12414808516E+04  0.61180648404E+02  0.15297035226E+04  0.00000000000E+00 0.  1.
<mgrwt>
<rscale>  0 0.31006752E+04</rscale>
<asrwt>0</asrwt>
<pdfrwt beam="1">  1        1 0.19453887E+00 0.31006752E+04</pdfrwt>
<pdfrwt beam="2">  1       -1 0.29242833E+00 0.31006752E+04</pdfrwt>
<totfact> 0.29925195E-01</totfact>
</mgrwt>
</event>
<event>
 6    1  0.1373668E-006  0.3032620E+04  0.7818608E-02  0.8234477E-01
          1   -1    0    0  501    0  0.00000000000E+00  0.00000000000E+00  0.14374668543E+04  0.14374668543E+04  0.00000000000E+00 0. -1.
         -1   -1    0    0    0  501 -0.00000000000E+00 -0.00000000000E+00 -0.15994774111E+04  0.15994774111E+04  0.00000000000E+00 0.  1.
         23    2    1    2    0    0  0.33873856230E+02  0.51509858635E+03 -0.15072876978E+04  0.15960263018E+04  0.94391525625E+02 0.  0.
         13    1    3    3    0    0 -0.19625007906E+02  0.32287624909E+03 -0.99467457236E+03  0.10459501508E+04  0.00000000000E+00 0. -1.
        -13    1    3    3    0    0  0.53498864136E+02  0.19222233726E+03 -0.51261312548E+03  0.55007615093E+03  0.00000000000E+00 0.  1.
         22    1    1    2    0    0 -0.33873856230E+02 -0.51509858635E+03  0.13452771410E+04  0.14409179636E+04  0.00000000000E+00 0. -1.
<mgrwt>
<rscale>  0 0.30326198E+04</rscale>
<asrwt>0</asrwt>
<pdfrwt beam="1">  1        1 0.22114875E+00 0.30326198E+04</pdfrwt>
<pdfrwt beam="2">  1       -1 0.24607345E+00 0.30326198E+04</pdfrwt>
<totfact> 0.45398404E-01</totfact>
</mgrwt>
</event>
<event>
 6    1  0.8968082E-007  0.2502431E+04  0.7818608E-02  0.8402120E-01
         -1   -1    0    0    0  501 -0.00000000000E+00  0.00000000000E+00  0.19297749840E+04  0.19297749840E+04  0.00000000000E+00 0.  1.
          1   -1    0    0  501    0  0.00000000000E+00 -0.00000000000E+00 -0.81125510512E+03  0.81125510512E+03  0.00000000000E+00 0. -1.
         23    2    1    2    0    0 -0.36235064259E+03 -0.14441447157E+03 -0.74146640667E+03  0.84058211293E+03  0.68207980246E+02 0.  0.
         11    1    3    3    0    0 -0.24118563503E+03 -0.62494021790E+02 -0.44502326308E+03  0.51002129170E+03  0.00000000000E+00 0. -1.
        -11    1    3    3    0    0 -0.12116500756E+03 -0.81920449784E+02 -0.29644314359E+03  0.33056082122E+03  0.00000000000E+00 0.  1.
         22    1    1    2    0    0  0.36235064259E+03  0.14441447157E+03  0.18599862856E+04  0.19004479762E+04  0.00000000000E+00 0.  1.
<mgrwt>
<rscale>  0 0.25024307E+04</rscale>
<asrwt>0</asrwt>
<pdfrwt beam="1">  1        1 0.12480848E+00 0.25024307E+04</pdfrwt>
<pdfrwt beam="2">  1       -1 0.29688846E+00 0.25024307E+04</pdfrwt>
<totfact> 0.66428892E-01</totfact>
</mgrwt>
</event>
<event>
 6    1  0.8968082E-007  0.1259097E+04  0.7818608E-02  0.9062645E-01
         -1   -1    0    0    0  501 -0.00000000000E+00  0.00000000000E+00  0.61479829857E+03  0.61479829857E+03  0.00000000000E+00 0.  1.
          1   -1    0    0  501    0  0.00000000000E+00 -0.00000000000E+00 -0.64465307077E+03  0.64465307077E+03  0.00000000000E+00 0. -1.
         23    2    1    2    0    0  0.23241421971E+01  0.17969620248E+03 -0.61512318876E+03  0.64721346929E+03  0.90623455391E+02 0.  0.
         13    1    3    3    0    0  0.17972098385E+02  0.57229239687E+02 -0.92814493549E+02  0.11051114156E+03  0.00000000000E+00 0. -1.
        -13    1    3    3    0    0 -0.15647956188E+02  0.12246696279E+03 -0.52230869521E+03  0.53670232774E+03  0.00000000000E+00 0.  1.
         22    1    1    2    0    0 -0.23241421971E+01 -0.17969620248E+03  0.58526841656E+03  0.61223790004E+03  0.00000000000E+00 0.  1.
<mgrwt>
<rscale>  0 0.12590975E+04</rscale>
<asrwt>0</asrwt>
<pdfrwt beam="1">  1        1 0.99177395E-01 0.12590975E+04</pdfrwt>
<pdfrwt beam="2">  1       -1 0.94584354E-01 0.12590975E+04</pdfrwt>
<totfact> 0.32874620E+01</totfact>
</mgrwt>
</event>
<event>
 6    1  0.8968082E-007  0.2232275E+04  0.7818608E-02  0.8505114E-01
          2   -1    0    0  501    0  0.00000000000E+00  0.00000000000E+00  0.10796469881E+04  0.10796469881E+04  0.00000000000E+00 0. -1.
         -2   -1    0    0    0  501 -0.00000000000E+00 -0.00000000000E+00 -0.11538609409E+04  0.11538609409E+04  0.00000000000E+00 0.  1.
         23    2    1    2    0    0  0.77883472748E+03  0.61974248681E+03 -0.53822729132E+03  0.11353400634E+04  0.92973972916E+02 0.  0.
         13    1    3    3    0    0  0.62309086820E+03  0.44606145361E+03 -0.40682037330E+03  0.86759199314E+03  0.00000000000E+00 0. -1.
        -13    1    3    3    0    0  0.15574385928E+03  0.17368103320E+03 -0.13140691803E+03  0.26774807021E+03  0.00000000000E+00 0.  1.
         22    1    1    2    0    0 -0.77883472748E+03 -0.61974248681E+03  0.46401333856E+03  0.10981678656E+04  0.00000000000E+00 0. -1.
<mgrwt>
<rscale>  0 0.22322746E+04</rscale>
<asrwt>0</asrwt>
<pdfrwt beam="1">  1        2 0.16609954E+00 0.22322746E+04</pdfrwt>
<pdfrwt beam="2">  1       -2 0.17751707E+00 0.22322746E+04</pdfrwt>
<totfact> 0.38572704E+00</totfact>
</mgrwt>
</event>
<event>
 6    1  0.8968082E-007  0.9163429E+03  0.7818608E-02  0.9405379E-01
          2   -1    0    0  501    0  0.00000000000E+00  0.00000000000E+00  0.17475250229E+04  0.17475250229E+04  0.00000000000E+00 0. -1.
         -2   -1    0    0    0  501 -0.00000000000E+00 -0.00000000000E+00 -0.12012478933E+03  0.12012478933E+03  0.00000000000E+00 0.  1.
         23    2    1    2    0    0 -0.12373197918E+03 -0.43436294127E+03  0.91205647747E+03  0.10216607716E+04  0.89235344745E+02 0.  0.
         11    1    3    3    0    0 -0.37470283047E+02 -0.24546398881E+03  0.42569813071E+03  0.49282399536E+03  0.00000000000E+00 0. -1.
        -11    1    3    3    0    0 -0.86261696135E+02 -0.18889895246E+03  0.48635834676E+03  0.52883677626E+03  0.00000000000E+00 0.  1.
         22    1    1    2    0    0  0.12373197918E+03  0.43436294127E+03  0.71534375609E+03  0.84598904059E+03  0.00000000000E+00 0.  1.
<mgrwt>
<rscale>  0 0.91634289E+03</rscale>
<asrwt>0</asrwt>
<pdfrwt beam="1">  1        2 0.26884999E+00 0.91634289E+03</pdfrwt>
<pdfrwt beam="2">  1       -2 0.18480738E-01 0.91634289E+03</pdfrwt>
<totfact> 0.22747398E+02</totfact>
</mgrwt>
</event>
<event>
 6    1  0.8968082E-007  0.1462009E+04  0.7818608E-02  0.8910117E-01
         -1   -1    0    0    0  501 -0.00000000000E+00  0.00000000000E+00  0.25112650994E+03  0.25112650994E+03  0.00000000000E+00 0.  1.
          1   -1    0    0  501    0  0.00000000000E+00 -0.00000000000E+00 -0.21278825541E+04  0.21278825541E+04  0.00000000000E+00 0. -1.
         23    2    1    2    0    0 -0.54990842233E+03 -0.31553511922E+03 -0.35938253942E+03  0.73450791253E+03  0.91566257576E+02 0.  0.
         11    1    3    3    0    0 -0.15248598538E+03 -0.43961163455E+02 -0.76270897070E+02  0.17607330681E+03  0.00000000000E+00 0.  1.
        -11    1    3    3    0    0 -0.39742243694E+03 -0.27157395577E+03 -0.28311164235E+03  0.55843460572E+03  0.00000000000E+00 0. -1.
         22    1    1    2    0    0  0.54990842233E+03  0.31553511922E+03 -0.15173735048E+04  0.16445011515E+04  0.00000000000E+00 0. -1.
<mgrwt>
<rscale>  0 0.14620092E+04</rscale>
<asrwt>0</asrwt>
<pdfrwt beam="1">  1        1 0.32736654E+00 0.14620092E+04</pdfrwt>
<pdfrwt beam="2">  1       -1 0.38634848E-01 0.14620092E+04</pdfrwt>
<totfact> 0.15380294E+01</totfact>
</mgrwt>
</event>
<event>
 6    1  0.8968082E-007  0.4441784E+04  0.7818608E-02  0.7920909E-01
         -1   -1    0    0    0  501 -0.00000000000E+00  0.00000000000E+00  0.16202036104E+04  0.16202036104E+04  0.00000000000E+00 0.  1.
          1   -1    0    0  501    0  0.00000000000E+00 -0.00000000000E+00 -0.30442852810E+04  0.30442852810E+04  0.00000000000E+00 0. -1.
         23    2    1    2    0    0  0.15761863154E+04  0.96380841851E+03  0.58018621851E+03  0.19386166017E+04  0.91259585159E+02 0.  0.
         13    1    3    3    0    0  0.68058823626E+03  0.39657442157E+03  0.20347902391E+03  0.81355720903E+03  0.00000000000E+00 0. -1.
        -13    1    3    3    0    0  0.89559807916E+03  0.56723399694E+03  0.37670719460E+03  0.11250593927E+04  0.00000000000E+00 0.  1.
         22    1    1    2    0    0 -0.15761863154E+04 -0.96380841851E+03 -0.20042678891E+04  0.27258722897E+04  0.00000000000E+00 0. -1.
<mgrwt>
<rscale>  0 0.44417843E+04</rscale>
<asrwt>0</asrwt>
<pdfrwt beam="1">  1        1 0.46835158E+00 0.44417843E+04</pdfrwt>
<pdfrwt beam="2">  1       -1 0.24926210E+00 0.44417843E+04</pdfrwt>
<totfact> 0.29515088E-02</totfact>
</mgrwt>
</event>
<event>
 6    1  0.1847659E-006  0.3255937E+04  0.7818608E-02  0.8174198E-01
          2   -1    0    0  501    0  0.00000000000E+00  0.00000000000E+00  0.16092043209E+04  0.16092043209E+04  0.00000000000E+00 0. -1.
         -2   -1    0    0    0  501 -0.00000000000E+00 -0.00000000000E+00 -0.16469518626E+04  0.16469518626E+04  0.00000000000E+00 0.  1.
         23    2    1    2    0    0  0.80963395595E+03 -0.13830456018E+04 -0.29801219080E+03  0.16325614167E+04  0.90128987147E+02 0.  0.
         11    1    3    3    0    0  0.59082295821E+03 -0.10035114295E+04 -0.25710039032E+03  0.11925634439E+04  0.00000000000E+00 0. -1.
        -11    1    3    3    0    0  0.21881099774E+03 -0.37953417225E+03 -0.40911800478E+02  0.43999797279E+03  0.00000000000E+00 0.  1.
         22    1    1    2    0    0 -0.80963395595E+03  0.13830456018E+04  0.26026464905E+03  0.16235947668E+04  0.00000000000E+00 0.  1.
<mgrwt>
<rscale>  0 0.32559374E+04</rscale>
<asrwt>0</asrwt>
<pdfrwt beam="1">  1        2 0.24756990E+00 0.32559374E+04</pdfrwt>
<pdfrwt beam="2">  1       -2 0.25337721E+00 0.32559374E+04</pdfrwt>
<totfact> 0.56590800E-01</totfact>
</mgrwt>
</event>
<event>
 6    1  0.8968082E-007  0.2302013E+04  0.7818608E-02  0.8477128E-01
         -1   -1    0    0    0  501 -0.00000000000E+00  0.00000000000E+00  0.46959351046E+03  0.46959351046E+03  0.00000000000E+00 0.  1.
          1   -1    0    0  501    0  0.00000000000E+00 -0.00000000000E+00 -0.28211967762E+04  0.28211967762E+04  0.00000000000E+00 0. -1.
         23    2    1    2    0    0  0.44661964185E+03 -0.45621317031E+03 -0.25437901138E+04  0.26240554474E+04  0.84848609823E+02 0.  0.
         13    1    3    3    0    0  0.37572944775E+03 -0.35324179219E+03 -0.19335468331E+04  0.20011386102E+04  0.00000000000E+00 0.  1.
        -13    1    3    3    0    0  0.70890194102E+02 -0.10297137812E+03 -0.61024328072E+03  0.62291683715E+03  0.00000000000E+00 0. -1.
         22    1    1    2    0    0 -0.44661964185E+03  0.45621317031E+03  0.19218684812E+03  0.66673483923E+03  0.00000000000E+00 0.  1.
<mgrwt>
<rscale>  0 0.23020128E+04</rscale>
<asrwt>0</asrwt>
<pdfrwt beam="1">  1        1 0.43403027E+00 0.23020128E+04</pdfrwt>
<pdfrwt beam="2">  1       -1 0.72245157E-01 0.23020128E+04</pdfrwt>
<totfact> 0.14062762E+00</totfact>
</mgrwt>
</event>
<event>
 6    1  0.8968082E-007  0.2348824E+04  0.7818608E-02  0.8458916E-01
         -2   -1    0    0    0  501 -0.00000000000E+00  0.00000000000E+00  0.10755445833E+04  0.10755445833E+04  0.00000000000E+00 0.  1.
          2   -1    0    0  501    0  0.00000000000E+00 -0.00000000000E+00 -0.12823671974E+04  0.12823671974E+04  0.00000000000E+00 0. -1.
         23    2    1    2    0    0 -0.28362673046E+03  0.21194471996E+03 -0.12257993275E+04  0.12791725959E+04  0.91289935172E+02 0.  0.
         11    1    3    3    0    0 -0.89365579663E+02  0.71963466698E+02 -0.26103003927E+03  0.28513440474E+03  0.00000000000E+00 0. -1.
        -11    1    3    3    0    0 -0.19426115080E+03  0.13998125326E+03 -0.96476928821E+03  0.99403819115E+03  0.00000000000E+00 0.  1.
         22    1    1    2    0    0  0.28362673046E+03 -0.21194471996E+03  0.10189767133E+04  0.10787391848E+04  0.00000000000E+00 0.  1.
<mgrwt>
<rscale>  0 0.23488236E+04</rscale>
<asrwt>0</asrwt>
<pdfrwt beam="1">  1        2 0.19728726E+00 0.23488236E+04</pdfrwt>
<pdfrwt beam="2">  1       -2 0.16546840E+00 0.23488236E+04</pdfrwt>
<totfact> 0.35119185E+00</totfact>
</mgrwt>
</event>
<event>
 6    1  0.8968082E-007  0.1038171E+04  0.7818608E-02  0.9267642E-01
         -2   -1    0    0    0  501 -0.00000000000E+00  0.00000000000E+00  0.82236545154E+03  0.82236545154E+03  0.00000000000E+00 0.  1.
          2   -1    0    0  501    0  0.00000000000E+00 -0.00000000000E+00 -0.32765228216E+03  0.32765228216E+03  0.00000000000E+00 0. -1.
         23    2    1    2    0    0 -0.42781708797E+03 -0.25752624351E+03  0.38878639933E+03  0.63955940292E+03  0.92380402178E+02 0.  0.
         13    1    3    3    0    0 -0.33164913112E+03 -0.23003387953E+03  0.34248503023E+03  0.52934178735E+03  0.00000000000E+00 0. -1.
        -13    1    3    3    0    0 -0.96167956848E+02 -0.27492363980E+02  0.46301369103E+02  0.11021761557E+03  0.00000000000E+00 0.  1.
         22    1    1    2    0    0  0.42781708797E+03  0.25752624351E+03  0.10592677004E+03  0.51045833078E+03  0.00000000000E+00 0. -1.
<mgrwt>
<rscale>  0 0.10381713E+04</rscale>
<asrwt>0</asrwt>
<pdfrwt beam="1">  1        2 0.50408043E-01 0.10381713E+04</pdfrwt>
<pdfrwt beam="2">  1       -2 0.12651776E+00 0.10381713E+04</pdfrwt>
<totfact> 0.46082927E+01</totfact>
</mgrwt>
</event>
<event>
 6    1  0.8968082E-007  0.1188667E+04  0.7818608E-02  0.9122835E-01
         -2   -1    0    0    0  501 -0.00000000000E+00  0.00000000000E+00  0.21188621562E+03  0.21188621562E+03  0.00000000000E+00 0.  1.
          2   -1    0    0  501    0  0.00000000000E+00 -0.00000000000E+00 -0.16670835350E+04  0.16670835350E+04  0.00000000000E+00 0. -1.
         23    2    1    2    0    0  0.25583343147E+03  0.52106470058E+03 -0.55914551767E+03  0.81132374272E+03  0.92969558020E+02 0.  0.
         13    1    3    3    0    0  0.17492717631E+03  0.25140775794E+03 -0.28507149866E+03  0.41841502974E+03  0.00000000000E+00 0. -1.
        -13    1    3    3    0    0  0.80906255161E+02  0.26965694263E+03 -0.27407401901E+03  0.39290871297E+03  0.00000000000E+00 0.  1.
         22    1    1    2    0    0 -0.25583343147E+03 -0.52106470058E+03 -0.89605180167E+03  0.10676460079E+04  0.00000000000E+00 0.  1.
<mgrwt>
<rscale>  0 0.11886665E+04</rscale>
<asrwt>0</asrwt>
<pdfrwt beam="1">  1        2 0.25647440E+00 0.11886665E+04</pdfrwt>
<pdfrwt beam="2">  1       -2 0.32597879E-01 0.11886665E+04</pdfrwt>
<totfact> 0.88585734E+01</totfact>
</mgrwt>
</event>
<event>
 6    1  0.8968082E-007  0.2629796E+04  0.7818608E-02  0.8358150E-01
          2   -1    0    0  501    0  0.00000000000E+00  0.00000000000E+00  0.30785013227E+04  0.30785013227E+04  0.00000000000E+00 0. -1.
         -2   -1    0    0    0  501 -0.00000000000E+00 -0.00000000000E+00 -0.56162273389E+03  0.56162273389E+03  0.00000000000E+00 0.  1.
         23    2    1    2    0    0 -0.10283682136E+04 -0.31866754183E+03  0.21887301455E+03  0.11024243493E+04  0.91344755868E+02 0.  0.
         11    1    3    3    0    0 -0.65328824633E+03 -0.19026149798E+03  0.94737402728E+02  0.68699355593E+03  0.00000000000E+00 0. -1.
        -11    1    3    3    0    0 -0.37507996730E+03 -0.12840604385E+03  0.12413561182E+03  0.41543079338E+03  0.00000000000E+00 0.  1.
         22    1    1    2    0    0  0.10283682136E+04  0.31866754183E+03  0.22980055743E+04  0.25376997073E+04  0.00000000000E+00 0. -1.
<mgrwt>
<rscale>  0 0.26297957E+04</rscale>
<asrwt>0</asrwt>
<pdfrwt beam="1">  1        2 0.47361558E+00 0.26297957E+04</pdfrwt>
<pdfrwt beam="2">  1       -2 0.86403499E-01 0.26297957E+04</pdfrwt>
<totfact> 0.15905572E+00</totfact>
</mgrwt>
</event>
<event>
 6    1  0.8968082E-007  0.8650811E+03  0.7818608E-02  0.9470316E-01
         -1   -1    0    0    0  501 -0.00000000000E+00  0.00000000000E+00  0.63119399951E+03  0.63119399951E+03  0.00000000000E+00 0.  1.
          1   -1    0    0  501    0  0.00000000000E+00 -0.00000000000E+00 -0.29640860435E+03  0.29640860435E+03  0.00000000000E+00 0. -1.
         23    2    1    2    0    0 -0.10386373026E+03  0.86749653228E+01 -0.27545091829E+03  0.30852967783E+03  0.91947943032E+02 0.  0.
         13    1    3    3    0    0 -0.11475158311E+03 -0.15528298984E+01 -0.19145652003E+03  0.22321723986E+03  0.00000000000E+00 0.  1.
        -13    1    3    3    0    0  0.10887852842E+02  0.10227795221E+02 -0.83994398254E+02  0.85312437971E+02  0.00000000000E+00 0. -1.
         22    1    1    2    0    0  0.10386373026E+03 -0.86749653228E+01  0.61023631345E+03  0.61907292602E+03  0.00000000000E+00 0.  1.
<mgrwt>
<rscale>  0 0.86508111E+03</rscale>
<asrwt>0</asrwt>
<pdfrwt beam="1">  1        1 0.45601324E-01 0.86508111E+03</pdfrwt>
<pdfrwt beam="2">  1       -1 0.97106769E-01 0.86508111E+03</pdfrwt>
<totfact> 0.91676766E+01</totfact>
</mgrwt>
</event>
<event>
 6    1  0.8968082E-007  0.2000150E+04  0.7818608E-02  0.8606551E-01
          1   -1    0    0  501    0  0.00000000000E+00  0.00000000000E+00  0.28418122257E+04  0.28418122257E+04  0.00000000000E+00 0. -1.
         -1   -1    0    0    0  501 -0.00000000000E+00 -0.00000000000E+00 -0.35194086038E+03  0.35194086038E+03  0.00000000000E+00 0.  1.
         23    2    1    2    0    0 -0.36527257377E+03  0.75967339210E+03  0.21005246830E+04  0.22652496909E+04  0.92868199503E+02 0.  0.
         13    1    3    3    0    0 -0.32639441849E+03  0.61800521005E+03  0.17942882805E+04  0.19255996961E+04  0.00000000000E+00 0. -1.
        -13    1    3    3    0    0 -0.38878155277E+02  0.14166818205E+03  0.30623640254E+03  0.33964999486E+03  0.00000000000E+00 0.  1.
         22    1    1    2    0    0  0.36527257377E+03 -0.75967339210E+03  0.38934668231E+03  0.92850339516E+03  0.00000000000E+00 0.  1.
<mgrwt>
<rscale>  0 0.20001498E+04</rscale>
<asrwt>0</asrwt>
<pdfrwt beam="1">  1        1 0.43720187E+00 0.20001498E+04</pdfrwt>
<pdfrwt beam="2">  1       -1 0.54144750E-01 0.20001498E+04</pdfrwt>
<totfact> 0.24888749E+00</totfact>
</mgrwt>
</event>
<event>
 6    1  0.8968082E-007  0.2447355E+04  0.7818608E-02  0.8421984E-01
         -2   -1    0    0    0  501 -0.00000000000E+00  0.00000000000E+00  0.14844261166E+04  0.14844261166E+04  0.00000000000E+00 0.  1.
          2   -1    0    0  501    0  0.00000000000E+00 -0.00000000000E+00 -0.10087309722E+04  0.10087309722E+04  0.00000000000E+00 0. -1.
         23    2    1    2    0    0 -0.45715372877E+03 -0.11329034855E+04  0.26898825371E+03  0.12541302216E+04  0.89599626365E+02 0.  0.
         11    1    3    3    0    0 -0.15646693134E+03 -0.40811151844E+03  0.13971088378E+03  0.45886386122E+03  0.00000000000E+00 0. -1.
        -11    1    3    3    0    0 -0.30068679744E+03 -0.72479196702E+03  0.12927736993E+03  0.79526636040E+03  0.00000000000E+00 0.  1.
         22    1    1    2    0    0  0.45715372877E+03  0.11329034855E+04  0.20670689067E+03  0.12390268672E+04  0.00000000000E+00 0. -1.
<mgrwt>
<rscale>  0 0.24473550E+04</rscale>
<asrwt>0</asrwt>
<pdfrwt beam="1">  1        2 0.15518938E+00 0.24473550E+04</pdfrwt>
<pdfrwt beam="2">  1       -2 0.22837325E+00 0.24473550E+04</pdfrwt>
<totfact> 0.19492187E+00</totfact>
</mgrwt>
</event>
<event>
 6    1  0.8968082E-007  0.2365937E+04  0.7818608E-02  0.8452368E-01
         -2   -1    0    0    0  501 -0.00000000000E+00  0.00000000000E+00  0.67186149202E+03  0.67186149202E+03  0.00000000000E+00 0.  1.
          2   -1    0    0  501    0  0.00000000000E+00 -0.00000000000E+00 -0.20828907386E+04  0.20828907386E+04  0.00000000000E+00 0. -1.
         23    2    1    2    0    0  0.84416102131E+02 -0.58684004022E+03  0.48303806423E+03  0.77006124989E+03  0.90339614722E+02 0.  0.
         13    1    3    3    0    0 -0.10715722523E+02 -0.15521941829E+03  0.97947780055E+02  0.18385228348E+03  0.00000000000E+00 0. -1.
        -13    1    3    3    0    0  0.95131824654E+02 -0.43162062194E+03  0.38509028417E+03  0.58620896642E+03  0.00000000000E+00 0.  1.
         22    1    1    2    0    0 -0.84416102131E+02  0.58684004022E+03 -0.18940673108E+04  0.19846909807E+04  0.00000000000E+00 0. -1.
<mgrwt>
<rscale>  0 0.23659367E+04</rscale>
<asrwt>0</asrwt>
<pdfrwt beam="1">  1        2 0.32044473E+00 0.23659367E+04</pdfrwt>
<pdfrwt beam="2">  1       -2 0.10336331E+00 0.23659367E+04</pdfrwt>
<totfact> 0.41341326E+00</totfact>
</mgrwt>
</event>
<event>
 6    1  0.8968082E-007  0.6325020E+04  0.7818608E-02  0.7651359E-01
          2   -1    0    0  501    0  0.00000000000E+00  0.00000000000E+00  0.17791843303E+04  0.17791843303E+04  0.00000000000E+00 0. -1.
         -2   -1    0    0    0  501 -0.00000000000E+00 -0.00000000000E+00 -0.56213799052E+04  0.56213799052E+04  0.00000000000E+00 0.  1.
         23    2    1    2    0    0  0.19937604719E+04  0.22858352684E+04 -0.29664041280E+04  0.42434873673E+04  0.86648096034E+02 0.  0.
         13    1    3    3    0    0  0.11204505442E+04  0.12239049428E+04 -0.16451640573E+04  0.23366466371E+04  0.00000000000E+00 0. -1.
        -13    1    3    3    0    0  0.87330992768E+03  0.10619303255E+04 -0.13212400706E+04  0.19068407302E+04  0.00000000000E+00 0.  1.
         22    1    1    2    0    0 -0.19937604719E+04 -0.22858352684E+04 -0.87579144691E+03  0.31570768682E+04  0.00000000000E+00 0. -1.
<mgrwt>
<rscale>  0 0.63250205E+04</rscale>
<asrwt>0</asrwt>
<pdfrwt beam="1">  1        2 0.27372067E+00 0.63250205E+04</pdfrwt>
<pdfrwt beam="2">  1       -2 0.86482767E+00 0.63250205E+04</pdfrwt>
<totfact> 0.13592745E-04</totfact>
</mgrwt>
</event>
<event>
 6    1  0.8968082E-007  0.1886458E+04  0.7818608E-02  0.8661627E-01
         -2   -1    0    0    0  501 -0.00000000000E+00  0.00000000000E+00  0.88680567524E+03  0.88680567524E+03  0.00000000000E+00 0.  1.
          2   -1    0    0  501    0  0.00000000000E+00 -0.00000000000E+00 -0.10032420040E+04  0.10032420040E+04  0.00000000000E+00 0. -1.
         23    2    1    2    0    0 -0.37580021169E+03  0.21323155257E+03  0.77913821404E+03  0.89568996905E+03  0.92253292379E+02 0.  0.
         13    1    3    3    0    0 -0.33698165071E+03  0.16380925659E+03  0.61777160703E+03  0.72251772567E+03  0.00000000000E+00 0.  1.
        -13    1    3    3    0    0 -0.38818560977E+02  0.49422295975E+02  0.16136660702E+03  0.17317224338E+03  0.00000000000E+00 0. -1.
         22    1    1    2    0    0  0.37580021169E+03 -0.21323155257E+03 -0.89557454282E+03  0.99435771021E+03  0.00000000000E+00 0. -1.
<mgrwt>
<rscale>  0 0.18864577E+04</rscale>
<asrwt>0</asrwt>
<pdfrwt beam="1">  1        2 0.15434492E+00 0.18864577E+04</pdfrwt>
<pdfrwt beam="2">  1       -2 0.13643164E+00 0.18864577E+04</pdfrwt>
<totfact> 0.90248214E+00</totfact>
</mgrwt>
</event>
<event>
 6    1  0.8968082E-007  0.1984595E+04  0.7818608E-02  0.8613857E-01
          2   -1    0    0  501    0  0.00000000000E+00  0.00000000000E+00  0.11426485362E+04  0.11426485362E+04  0.00000000000E+00 0. -1.
         -2   -1    0    0    0  501 -0.00000000000E+00 -0.00000000000E+00 -0.86172959512E+03  0.86172959512E+03  0.00000000000E+00 0.  1.
         23    2    1    2    0    0 -0.35859010691E+03 -0.22163935622E+03 -0.76407182670E+03  0.87756112144E+03  0.92719450583E+02 0.  0.
         11    1    3    3    0    0 -0.17030474973E+03 -0.15565161506E+03 -0.44480089776E+03  0.50107781002E+03  0.00000000000E+00 0. -1.
        -11    1    3    3    0    0 -0.18828535718E+03 -0.65987741160E+02 -0.31927092894E+03  0.37648331142E+03  0.00000000000E+00 0.  1.
         22    1    1    2    0    0  0.35859010691E+03  0.22163935622E+03  0.10449907677E+04  0.11268170098E+04  0.00000000000E+00 0. -1.
<mgrwt>
<rscale>  0 0.19845947E+04</rscale>
<asrwt>0</asrwt>
<pdfrwt beam="1">  1        2 0.17579208E+00 0.19845947E+04</pdfrwt>
<pdfrwt beam="2">  1       -2 0.13257378E+00 0.19845947E+04</pdfrwt>
<totfact> 0.78851334E+00</totfact>
</mgrwt>
</event>
<event>
 6    1  0.8968082E-007  0.1188691E+04  0.7818608E-02  0.9122813E-01
          2   -1    0    0  501    0  0.00000000000E+00  0.00000000000E+00  0.12710889456E+04  0.12710889456E+04  0.00000000000E+00 0. -1.
         -2   -1    0    0    0  501 -0.00000000000E+00 -0.00000000000E+00 -0.27790854544E+03  0.27790854544E+03  0.00000000000E+00 0.  1.
         23    2    1    2    0    0 -0.44060861263E+03 -0.39101489527E+03  0.56288567866E+03  0.81948933812E+03  0.87714823178E+02 0.  0.
         11    1    3    3    0    0 -0.30679114787E+03 -0.31725501222E+03  0.39239411080E+03  0.59054609420E+03  0.00000000000E+00 0. -1.
        -11    1    3    3    0    0 -0.13381746477E+03 -0.73759883044E+02  0.17049156786E+03  0.22894324392E+03  0.00000000000E+00 0.  1.
         22    1    1    2    0    0  0.44060861263E+03  0.39101489527E+03  0.43029472155E+03  0.72950815296E+03  0.00000000000E+00 0.  1.
<mgrwt>
<rscale>  0 0.11886908E+04</rscale>
<asrwt>0</asrwt>
<pdfrwt beam="1">  1        2 0.19555214E+00 0.11886908E+04</pdfrwt>
<pdfrwt beam="2">  1       -2 0.42755161E-01 0.11886908E+04</pdfrwt>
<totfact> 0.87976222E+01</totfact>
</mgrwt>
</event>
<event>
 6    1  0.8968082E-007  0.4406404E+04  0.7818608E-02  0.7927231E-01
         -2   -1    0    0    0  501 -0.00000000000E+00  0.00000000000E+00  0.12981425467E+04  0.12981425467E+04  0.00000000000E+00 0.  1.
          2   -1    0    0  501    0  0.00000000000E+00 -0.00000000000E+00 -0.37392648096E+04  0.37392648096E+04  0.00000000000E+00 0. -1.
         23    2    1    2    0    0 -0.16747656427E+04  0.73232943633E+03  0.18168187080E+03  0.18404951140E+04  0.11518507264E+03 0.  0.
         13    1    3    3    0    0 -0.12769321758E+04  0.53363199676E+03  0.93204813979E+02  0.13870854433E+04  0.00000000000E+00 0. -1.
        -13    1    3    3    0    0 -0.39783346693E+03  0.19869743957E+03  0.88477056825E+02  0.45340967070E+03  0.00000000000E+00 0.  1.
         22    1    1    2    0    0  0.16747656427E+04 -0.73232943633E+03 -0.26228041337E+04  0.31969122423E+04  0.00000000000E+00 0. -1.
<mgrwt>
<rscale>  0 0.44064039E+04</rscale>
<asrwt>0</asrwt>
<pdfrwt beam="1">  1        2 0.57527150E+00 0.44064039E+04</pdfrwt>
<pdfrwt beam="2">  1       -2 0.19971424E+00 0.44064039E+04</pdfrwt>
<totfact> 0.55498740E-02</totfact>
</mgrwt>
</event>
<event>
 6    1  0.8968082E-007  0.4089393E+04  0.7818608E-02  0.7986752E-01
          2   -1    0    0  501    0  0.00000000000E+00  0.00000000000E+00  0.19833862204E+04  0.19833862204E+04  0.00000000000E+00 0. -1.
         -2   -1    0    0    0  501 -0.00000000000E+00 -0.00000000000E+00 -0.21079024794E+04  0.21079024794E+04  0.00000000000E+00 0.  1.
         23    2    1    2    0    0  0.14290054356E+04  0.60285352994E+03 -0.13937457913E+04  0.20871847805E+04  0.91236307255E+02 0.  0.
         11    1    3    3    0    0  0.59097519386E+03  0.28249716984E+03 -0.63282694607E+03  0.91078333011E+03  0.00000000000E+00 0. -1.
        -11    1    3    3    0    0  0.83803024175E+03  0.32035636011E+03 -0.76091884523E+03  0.11764014504E+04  0.00000000000E+00 0.  1.
         22    1    1    2    0    0 -0.14290054356E+04 -0.60285352994E+03  0.12692295323E+04  0.20041039193E+04  0.00000000000E+00 0. -1.
<mgrwt>
<rscale>  0 0.40893935E+04</rscale>
<asrwt>0</asrwt>
<pdfrwt beam="1">  1        2 0.30513634E+00 0.40893935E+04</pdfrwt>
<pdfrwt beam="2">  1       -2 0.32429269E+00 0.40893935E+04</pdfrwt>
<totfact> 0.12038875E-01</totfact>
</mgrwt>
</event>
<event>
 6    1  0.8968082E-007  0.7651959E+03  0.7818608E-02  0.9611807E-01
         -1   -1    0    0    0  501 -0.00000000000E+00  0.00000000000E+00  0.12584811658E+03  0.12584811658E+03  0.00000000000E+00 0.  1.
          1   -1    0    0  501    0  0.00000000000E+00 -0.00000000000E+00 -0.11631576570E+04  0.11631576570E+04  0.00000000000E+00 0. -1.
         23    2    1    2    0    0  0.67831831063E+02  0.20891610424E+03 -0.10507667441E+02  0.23897283015E+03  0.93544142303E+02 0.  0.
         13    1    3    3    0    0  0.44250821017E+02  0.25385198797E+02 -0.17131247416E+02  0.53814710969E+02  0.00000000000E+00 0. -1.
        -13    1    3    3    0    0  0.23581010046E+02  0.18353090544E+03  0.66235799746E+01  0.18515811918E+03  0.00000000000E+00 0.  1.
         22    1    1    2    0    0 -0.67831831063E+02 -0.20891610424E+03 -0.10268018730E+04  0.10500329435E+04  0.00000000000E+00 0. -1.
<mgrwt>
<rscale>  0 0.76519592E+03</rscale>
<asrwt>0</asrwt>
<pdfrwt beam="1">  1        1 0.17894733E+00 0.76519592E+03</pdfrwt>
<pdfrwt beam="2">  1       -1 0.19361249E-01 0.76519592E+03</pdfrwt>
<totfact> 0.24862135E+02</totfact>
</mgrwt>
</event>
<event>
 6    1  0.1456096E-006  0.2966600E+04  0.7818608E-02  0.8253333E-01
          2   -1    0    0  501    0  0.00000000000E+00  0.00000000000E+00  0.27202018968E+04  0.27202018968E+04  0.00000000000E+00 0. -1.
         -2   -1    0    0    0  501 -0.00000000000E+00 -0.00000000000E+00 -0.80882936088E+03  0.80882936088E+03  0.00000000000E+00 0.  1.
         23    2    1    2    0    0 -0.64341851868E+03 -0.57151675430E+03 -0.47860062999E+03  0.98883628005E+03  0.90110127593E+02 0.  0.
         11    1    3    3    0    0 -0.23256385522E+03 -0.21853182355E+03 -0.22677244347E+03  0.39149437515E+03  0.00000000000E+00 0.  1.
        -11    1    3    3    0    0 -0.41085466346E+03 -0.35298493075E+03 -0.25182818652E+03  0.59734190490E+03  0.00000000000E+00 0. -1.
         22    1    1    2    0    0  0.64341851868E+03  0.57151675430E+03  0.23899731659E+04  0.25401949776E+04  0.00000000000E+00 0. -1.
<mgrwt>
<rscale>  0 0.29666002E+04</rscale>
<asrwt>0</asrwt>
<pdfrwt beam="1">  1        2 0.41849259E+00 0.29666002E+04</pdfrwt>
<pdfrwt beam="2">  1       -2 0.12443529E+00 0.29666002E+04</pdfrwt>
<totfact> 0.10747343E+00</totfact>
</mgrwt>
</event>
<event>
 6    1  0.8968082E-007  0.1591963E+04  0.7818608E-02  0.8825501E-01
         -4   -1    0    0    0  501 -0.00000000000E+00  0.00000000000E+00  0.89682557242E+03  0.89682557242E+03  0.00000000000E+00 0.  1.
          4   -1    0    0  501    0  0.00000000000E+00 -0.00000000000E+00 -0.70647697995E+03  0.70647697995E+03  0.00000000000E+00 0. -1.
         23    2    1    2    0    0 -0.16266850930E+03 -0.58747305499E+03  0.60685842770E+03  0.86501664766E+03  0.91602484715E+02 0.  0.
         13    1    3    3    0    0 -0.28302644187E+02 -0.17410356080E+03  0.12566129352E+03  0.21657296748E+03  0.00000000000E+00 0. -1.
        -13    1    3    3    0    0 -0.13436586512E+03 -0.41336949419E+03  0.48119713417E+03  0.64844368018E+03  0.00000000000E+00 0.  1.
         22    1    1    2    0    0  0.16266850930E+03  0.58747305499E+03 -0.41650983523E+03  0.73828590471E+03  0.00000000000E+00 0. -1.
<mgrwt>
<rscale>  0 0.15919631E+04</rscale>
<asrwt>0</asrwt>
<pdfrwt beam="1">  1        4 0.10868877E+00 0.15919631E+04</pdfrwt>
<pdfrwt beam="2">  1       -4 0.13797317E+00 0.15919631E+04</pdfrwt>
<totfact> 0.48112414E-01</totfact>
</mgrwt>
</event>
<event>
 6    1  0.8968082E-007  0.2057166E+04  0.7818608E-02  0.8580351E-01
          2   -1    0    0  501    0  0.00000000000E+00  0.00000000000E+00  0.11326551568E+04  0.11326551568E+04  0.00000000000E+00 0. -1.
         -2   -1    0    0    0  501 -0.00000000000E+00 -0.00000000000E+00 -0.93407312684E+03  0.93407312684E+03  0.00000000000E+00 0.  1.
         23    2    1    2    0    0  0.53012368914E+03 -0.73607605536E+03  0.58241359181E+03  0.10817583587E+04  0.90313175275E+02 0.  0.
         13    1    3    3    0    0  0.42984748098E+03 -0.63755241010E+03  0.51798353628E+03  0.92711858809E+03  0.00000000000E+00 0. -1.
        -13    1    3    3    0    0  0.10027620815E+03 -0.98523645260E+02  0.64430055535E+02  0.15463977061E+03  0.00000000000E+00 0.  1.
         22    1    1    2    0    0 -0.53012368914E+03  0.73607605536E+03 -0.38383156189E+03  0.98496992490E+03  0.00000000000E+00 0.  1.
<mgrwt>
<rscale>  0 0.20571658E+04</rscale>
<asrwt>0</asrwt>
<pdfrwt beam="1">  1        2 0.17425464E+00 0.20571658E+04</pdfrwt>
<pdfrwt beam="2">  1       -2 0.14370356E+00 0.20571658E+04</pdfrwt>
<totfact> 0.64543455E+00</totfact>
</mgrwt>
</event>
<event>
 6    1  0.8968082E-007  0.1469395E+04  0.7818608E-02  0.8905064E-01
          1   -1    0    0  501    0  0.00000000000E+00  0.00000000000E+00  0.61815056404E+03  0.61815056404E+03  0.00000000000E+00 0. -1.
         -1   -1    0    0    0  501 -0.00000000000E+00 -0.00000000000E+00 -0.87321863855E+03  0.87321863855E+03  0.00000000000E+00 0.  1.
         23    2    1    2    0    0  0.69331116751E+03  0.22027361762E+02  0.10877347662E+03  0.70807726852E+03  0.91521414564E+02 0.  0.
         13    1    3    3    0    0  0.62799231227E+03  0.46847198875E+02  0.10068072023E+03  0.63773475030E+03  0.00000000000E+00 0. -1.
        -13    1    3    3    0    0  0.65318855234E+02 -0.24819837113E+02  0.80927563894E+01  0.70342518219E+02  0.00000000000E+00 0.  1.
         22    1    1    2    0    0 -0.69331116751E+03 -0.22027361762E+02 -0.36384155113E+03  0.78329193407E+03  0.00000000000E+00 0.  1.
<mgrwt>
<rscale>  0 0.14693952E+04</rscale>
<asrwt>0</asrwt>
<pdfrwt beam="1">  1        1 0.95100087E-01 0.14693952E+04</pdfrwt>
<pdfrwt beam="2">  1       -1 0.13434133E+00 0.14693952E+04</pdfrwt>
<totfact> 0.14837808E+01</totfact>
</mgrwt>
</event>
<event>
 6    1  0.8968082E-007  0.2420807E+04  0.7818608E-02  0.8431754E-01
         -2   -1    0    0    0  501 -0.00000000000E+00  0.00000000000E+00  0.54070222497E+03  0.54070222497E+03  0.00000000000E+00 0.  1.
          2   -1    0    0  501    0  0.00000000000E+00 -0.00000000000E+00 -0.27095818250E+04  0.27095818250E+04  0.00000000000E+00 0. -1.
         23    2    1    2    0    0  0.88061182802E+02  0.39407429751E+03 -0.26155875931E+04  0.26481234776E+04  0.90609998118E+02 0.  0.
         13    1    3    3    0    0  0.89676534049E+02  0.19671694807E+03 -0.14157389011E+04  0.14321508561E+04  0.00000000000E+00 0. -1.
        -13    1    3    3    0    0 -0.16153512475E+01  0.19735734945E+03 -0.11998486920E+04  0.12159726216E+04  0.00000000000E+00 0.  1.
         22    1    1    2    0    0 -0.88061182802E+02 -0.39407429751E+03  0.44670799304E+03  0.60216057237E+03  0.00000000000E+00 0.  1.
<mgrwt>
<rscale>  0 0.24208072E+04</rscale>
<asrwt>0</asrwt>
<pdfrwt beam="1">  1        2 0.41685874E+00 0.24208072E+04</pdfrwt>
<pdfrwt beam="2">  1       -2 0.83184958E-01 0.24208072E+04</pdfrwt>
<totfact> 0.29773821E+00</totfact>
</mgrwt>
</event>
<event>
 6    1  0.8968082E-007  0.3532459E+04  0.7818608E-02  0.8106140E-01
         -2   -1    0    0    0  501 -0.00000000000E+00  0.00000000000E+00  0.26516192986E+04  0.26516192986E+04  0.00000000000E+00 0.  1.
          2   -1    0    0  501    0  0.00000000000E+00 -0.00000000000E+00 -0.11764757439E+04  0.11764757439E+04  0.00000000000E+00 0. -1.
         23    2    1    2    0    0 -0.33707414096E+03 -0.10034217240E+04 -0.79258104080E+03  0.13254866085E+04  0.90862040996E+02 0.  0.
         11    1    3    3    0    0 -0.12230845266E+03 -0.49409717928E+03 -0.35675399306E+03  0.62158248988E+03  0.00000000000E+00 0.  1.
        -11    1    3    3    0    0 -0.21476568830E+03 -0.50932454472E+03 -0.43582704774E+03  0.70390411866E+03  0.00000000000E+00 0. -1.
         22    1    1    2    0    0  0.33707414096E+03  0.10034217240E+04  0.22677245955E+04  0.25026084340E+04  0.00000000000E+00 0.  1.
<mgrwt>
<rscale>  0 0.35324585E+04</rscale>
<asrwt>0</asrwt>
<pdfrwt beam="1">  1        2 0.18099627E+00 0.35324585E+04</pdfrwt>
<pdfrwt beam="2">  1       -2 0.40794143E+00 0.35324585E+04</pdfrwt>
<totfact> 0.10548251E-01</totfact>
</mgrwt>
</event>
<event>
 6    1  0.8968082E-007  0.1152253E+04  0.7818608E-02  0.9155708E-01
          1   -1    0    0  501    0  0.00000000000E+00  0.00000000000E+00  0.25098956682E+04  0.25098956682E+04  0.00000000000E+00 0. -1.
         -1   -1    0    0    0  501 -0.00000000000E+00 -0.00000000000E+00 -0.13224512232E+03  0.13224512232E+03  0.00000000000E+00 0.  1.
         23    2    1    2    0    0  0.74832409115E+02 -0.25416370497E+03  0.23600406253E+04  0.23766051287E+04  0.90890630421E+02 0.  0.
         11    1    3    3    0    0  0.16768131131E+02 -0.68565645402E+02  0.10308513187E+04  0.10332651447E+04  0.00000000000E+00 0. -1.
        -11    1    3    3    0    0  0.58064277984E+02 -0.18559805957E+03  0.13291893066E+04  0.13433399841E+04  0.00000000000E+00 0.  1.
         22    1    1    2    0    0 -0.74832409115E+02  0.25416370497E+03  0.17609920637E+02  0.26553566180E+03  0.00000000000E+00 0.  1.
<mgrwt>
<rscale>  0 0.11522525E+04</rscale>
<asrwt>0</asrwt>
<pdfrwt beam="1">  1        1 0.38613776E+00 0.11522525E+04</pdfrwt>
<pdfrwt beam="2">  1       -1 0.20345405E-01 0.11522525E+04</pdfrwt>
<totfact> 0.26518049E+01</totfact>
</mgrwt>
</event>
<event>
 6    1  0.8968082E-007  0.2214699E+04  0.7818608E-02  0.8512335E-01
         -2   -1    0    0    0  501 -0.00000000000E+00  0.00000000000E+00  0.18626975487E+04  0.18626975487E+04  0.00000000000E+00 0.  1.
          2   -1    0    0  501    0  0.00000000000E+00 -0.00000000000E+00 -0.65830500598E+03  0.65830500598E+03  0.00000000000E+00 0. -1.
         23    2    1    2    0    0 -0.69027544415E+03  0.86309563796E+03  0.62386788655E+03  0.12726343616E+04  0.94724914048E+02 0.  0.
         11    1    3    3    0    0 -0.54693375927E+03  0.66957921655E+03  0.53048226029E+03  0.10143393381E+04  0.00000000000E+00 0.  1.
        -11    1    3    3    0    0 -0.14334168488E+03  0.19351642142E+03  0.93385626259E+02  0.25829502352E+03  0.00000000000E+00 0. -1.
         22    1    1    2    0    0  0.69027544415E+03 -0.86309563796E+03  0.58052465614E+03  0.12483681931E+04  0.00000000000E+00 0. -1.
<mgrwt>
<rscale>  0 0.22146992E+04</rscale>
<asrwt>0</asrwt>
<pdfrwt beam="1">  1        2 0.10127769E+00 0.22146992E+04</pdfrwt>
<pdfrwt beam="2">  1       -2 0.28656885E+00 0.22146992E+04</pdfrwt>
<totfact> 0.15519992E+00</totfact>
</mgrwt>
</event>
<event>
 6    1  0.8968082E-007  0.1733666E+04  0.7818608E-02  0.8742393E-01
          1   -1    0    0  501    0  0.00000000000E+00  0.00000000000E+00  0.18733179799E+04  0.18733179799E+04  0.00000000000E+00 0. -1.
         -1   -1    0    0    0  501 -0.00000000000E+00 -0.00000000000E+00 -0.40110636969E+03  0.40110636969E+03  0.00000000000E+00 0.  1.
         23    2    1    2    0    0 -0.58259101831E+03 -0.42114384954E+03  0.13681703813E+04  0.15480642365E+04  0.88533899654E+02 0.  0.
         13    1    3    3    0    0 -0.33261480451E+03 -0.20725765481E+03  0.81792346994E+03  0.90696590142E+03  0.00000000000E+00 0. -1.
        -13    1    3    3    0    0 -0.24997621380E+03 -0.21388619473E+03  0.55024691138E+03  0.64109833508E+03  0.00000000000E+00 0.  1.
         22    1    1    2    0    0  0.58259101831E+03  0.42114384954E+03  0.10404122892E+03  0.72636011312E+03  0.00000000000E+00 0.  1.
<mgrwt>
<rscale>  0 0.17336664E+04</rscale>
<asrwt>0</asrwt>
<pdfrwt beam="1">  1        1 0.28820276E+00 0.17336664E+04</pdfrwt>
<pdfrwt beam="2">  1       -1 0.61708673E-01 0.17336664E+04</pdfrwt>
<totfact> 0.91817720E+00</totfact>
</mgrwt>
</event>
<event>
 6    1  0.8968082E-007  0.6020223E+04  0.7818608E-02  0.7687899E-01
          1   -1    0    0  501    0  0.00000000000E+00  0.00000000000E+00  0.27297799869E+04  0.27297799869E+04  0.00000000000E+00 0. -1.
         -1   -1    0    0    0  501 -0.00000000000E+00 -0.00000000000E+00 -0.33192310668E+04  0.33192310668E+04  0.00000000000E+00 0.  1.
         23    2    1    2    0    0 -0.39418487203E+03  0.74440792724E+03 -0.31977466542E+04  0.33080749584E+04  0.90837163180E+02 0.  0.
         11    1    3    3    0    0 -0.28724317994E+03  0.46316967983E+03 -0.21473582648E+04  0.22154417876E+04  0.00000000000E+00 0.  1.
        -11    1    3    3    0    0 -0.10694169208E+03  0.28123824740E+03 -0.10503883894E+04  0.10926331708E+04  0.00000000000E+00 0. -1.
         22    1    1    2    0    0  0.39418487203E+03 -0.74440792724E+03  0.26082955743E+04  0.27409360953E+04  0.00000000000E+00 0. -1.
<mgrwt>
<rscale>  0 0.60202228E+04</rscale>
<asrwt>0</asrwt>
<pdfrwt beam="1">  1        1 0.41996615E+00 0.60202228E+04</pdfrwt>
<pdfrwt beam="2">  1       -1 0.51065093E+00 0.60202228E+04</pdfrwt>
<totfact> 0.80417680E-04</totfact>
</mgrwt>
</event>
<event>
 6    1  0.8968082E-007  0.2441274E+04  0.7818608E-02  0.8424211E-01
         -1   -1    0    0    0  501 -0.00000000000E+00  0.00000000000E+00  0.37634927780E+03  0.37634927780E+03  0.00000000000E+00 0.  1.
          1   -1    0    0  501    0  0.00000000000E+00 -0.00000000000E+00 -0.39589662235E+04  0.39589662235E+04  0.00000000000E+00 0. -1.
         23    2    1    2    0    0 -0.31325738632E+03 -0.11361304829E+04 -0.12414154385E+04  0.17142189442E+04  0.92258513399E+02 0.  0.
         13    1    3    3    0    0 -0.87579338102E+02 -0.20854448474E+03 -0.20699925740E+03  0.30660990712E+03  0.00000000000E+00 0. -1.
        -13    1    3    3    0    0 -0.22567804822E+03 -0.92758599820E+03 -0.10344161811E+04  0.14076090371E+04  0.00000000000E+00 0.  1.
         22    1    1    2    0    0  0.31325738632E+03  0.11361304829E+04 -0.23412015072E+04  0.26210965571E+04  0.00000000000E+00 0. -1.
<mgrwt>
<rscale>  0 0.24412735E+04</rscale>
<asrwt>0</asrwt>
<pdfrwt beam="1">  1        1 0.60907172E+00 0.24412735E+04</pdfrwt>
<pdfrwt beam="2">  1       -1 0.57899889E-01 0.24412735E+04</pdfrwt>
<totfact> 0.28207531E-01</totfact>
</mgrwt>
</event>
<event>
 6    1  0.8968082E-007  0.1473596E+04  0.7818608E-02  0.8902204E-01
         -2   -1    0    0    0  501 -0.00000000000E+00  0.00000000000E+00  0.41367659296E+03  0.41367659296E+03  0.00000000000E+00 0.  1.
          2   -1    0    0  501    0  0.00000000000E+00 -0.00000000000E+00 -0.13123076537E+04  0.13123076537E+04  0.00000000000E+00 0. -1.
         23    2    1    2    0    0  0.32665648454E+03  0.65724402464E+03 -0.44348023835E+03  0.86236602202E+03  0.91248382575E+02 0.  0.
         13    1    3    3    0    0  0.19166261600E+03  0.31431547284E+03 -0.18340704757E+03  0.41129906386E+03  0.00000000000E+00 0.  1.
        -13    1    3    3    0    0  0.13499386855E+03  0.34292855180E+03 -0.26007319078E+03  0.45106695816E+03  0.00000000000E+00 0. -1.
         22    1    1    2    0    0 -0.32665648454E+03 -0.65724402464E+03 -0.45515082242E+03  0.86361822466E+03  0.00000000000E+00 0. -1.
<mgrwt>
<rscale>  0 0.14735955E+04</rscale>
<asrwt>0</asrwt>
<pdfrwt beam="1">  1        2 0.20189348E+00 0.14735955E+04</pdfrwt>
<pdfrwt beam="2">  1       -2 0.63642553E-01 0.14735955E+04</pdfrwt>
<totfact> 0.35958760E+01</totfact>
</mgrwt>
</event>
<event>
 6    1  0.2005760E-006  0.3544206E+04  0.7818608E-02  0.8103393E-01
          1   -1    0    0  501    0  0.00000000000E+00  0.00000000000E+00  0.27495574811E+04  0.27495574811E+04  0.00000000000E+00 0. -1.
         -1   -1    0    0    0  501 -0.00000000000E+00 -0.00000000000E+00 -0.11421288233E+04  0.11421288233E+04  0.00000000000E+00 0.  1.
         23    2    1    2    0    0 -0.51453111298E+03 -0.24633614510E+03 -0.10368474223E+04  0.11865763712E+04  0.86528289361E+02 0.  0.
         11    1    3    3    0    0 -0.41742803892E+03 -0.16001175775E+03 -0.80654740987E+03  0.92215435512E+03  0.00000000000E+00 0. -1.
        -11    1    3    3    0    0 -0.97103074053E+02 -0.86324387343E+02 -0.23030001248E+03  0.26442201608E+03  0.00000000000E+00 0.  1.
         22    1    1    2    0    0  0.51453111298E+03  0.24633614510E+03  0.26442760801E+04  0.27051099332E+04  0.00000000000E+00 0. -1.
<mgrwt>
<rscale>  0 0.35442059E+04</rscale>
<asrwt>0</asrwt>
<pdfrwt beam="1">  1        1 0.42300884E+00 0.35442059E+04</pdfrwt>
<pdfrwt beam="2">  1       -1 0.17571213E+00 0.35442059E+04</pdfrwt>
<totfact> 0.16438500E-01</totfact>
</mgrwt>
</event>
<event>
 6    1  0.8968082E-007  0.9475510E+03  0.7818608E-02  0.9368018E-01
         -1   -1    0    0    0  501 -0.00000000000E+00  0.00000000000E+00  0.11504289398E+03  0.11504289398E+03  0.00000000000E+00 0.  1.
          1   -1    0    0  501    0  0.00000000000E+00 -0.00000000000E+00 -0.19511265120E+04  0.19511265120E+04  0.00000000000E+00 0. -1.
         23    2    1    2    0    0  0.21640967677E+03 -0.25714541927E+03 -0.21218115319E+03  0.40785214740E+03  0.91463749730E+02 0.  0.
         11    1    3    3    0    0  0.37344040624E+02 -0.52579010470E+02 -0.25374583501E+01  0.64541214794E+02  0.00000000000E+00 0. -1.
        -11    1    3    3    0    0  0.17906563615E+03 -0.20456640880E+03 -0.20964369484E+03  0.34331093260E+03  0.00000000000E+00 0.  1.
         22    1    1    2    0    0 -0.21640967677E+03  0.25714541927E+03 -0.16239024648E+04  0.16583172586E+04  0.00000000000E+00 0. -1.
<mgrwt>
<rscale>  0 0.94755103E+03</rscale>
<asrwt>0</asrwt>
<pdfrwt beam="1">  1        1 0.30017332E+00 0.94755103E+03</pdfrwt>
<pdfrwt beam="2">  1       -1 0.17698906E-01 0.94755103E+03</pdfrwt>
<totfact> 0.81544910E+01</totfact>
</mgrwt>
</event>
<event>
 6    1  0.8968082E-007  0.1928298E+04  0.7818608E-02  0.8640898E-01
         -1   -1    0    0    0  501 -0.00000000000E+00  0.00000000000E+00  0.86577806703E+03  0.86577806703E+03  0.00000000000E+00 0.  1.
          1   -1    0    0  501    0  0.00000000000E+00 -0.00000000000E+00 -0.10736965301E+04  0.10736965301E+04  0.00000000000E+00 0. -1.
         23    2    1    2    0    0 -0.42182917226E+02 -0.51673443169E+03  0.71081935778E+03  0.88454661150E+03  0.91458608801E+02 0.  0.
         13    1    3    3    0    0  0.27493790669E+01 -0.17761687665E+02  0.43911620665E+01  0.18501863103E+02  0.00000000000E+00 0. -1.
        -13    1    3    3    0    0 -0.44932296293E+02 -0.49897274403E+03  0.70642819572E+03  0.86604474840E+03  0.00000000000E+00 0.  1.
         22    1    1    2    0    0  0.42182917226E+02  0.51673443169E+03 -0.91873782089E+03  0.10549279857E+04  0.00000000000E+00 0. -1.
<mgrwt>
<rscale>  0 0.19282976E+04</rscale>
<asrwt>0</asrwt>
<pdfrwt beam="1">  1        1 0.16518408E+00 0.19282976E+04</pdfrwt>
<pdfrwt beam="2">  1       -1 0.13319663E+00 0.19282976E+04</pdfrwt>
<totfact> 0.59077409E+00</totfact>
</mgrwt>
</event>
<event>
 6    1  0.8968082E-007  0.5381326E+04  0.7818608E-02  0.7772233E-01
         -2   -1    0    0    0  501 -0.00000000000E+00  0.00000000000E+00  0.38254538801E+04  0.38254538801E+04  0.00000000000E+00 0.  1.
          2   -1    0    0  501    0  0.00000000000E+00 -0.00000000000E+00 -0.18924987215E+04  0.18924987215E+04  0.00000000000E+00 0. -1.
         23    2    1    2    0    0  0.14784909277E+04  0.20111635144E+04  0.20319769458E+04  0.32198494373E+04  0.88238232543E+02 0.  0.
         11    1    3    3    0    0  0.99865360337E+03  0.13947748402E+04  0.14407217716E+04  0.22401752381E+04  0.00000000000E+00 0.  1.
        -11    1    3    3    0    0  0.47983732436E+03  0.61638867415E+03  0.59125517426E+03  0.97967419919E+03  0.00000000000E+00 0. -1.
         22    1    1    2    0    0 -0.14784909277E+04 -0.20111635144E+04 -0.99021787172E+02  0.24981031643E+04  0.00000000000E+00 0. -1.
<mgrwt>
<rscale>  0 0.53813257E+04</rscale>
<asrwt>0</asrwt>
<pdfrwt beam="1">  1        2 0.29115365E+00 0.53813257E+04</pdfrwt>
<pdfrwt beam="2">  1       -2 0.58853137E+00 0.53813257E+04</pdfrwt>
<totfact> 0.31051546E-03</totfact>
</mgrwt>
</event>
<event>
 6    1  0.8968082E-007  0.1256898E+04  0.7818608E-02  0.9064462E-01
         -2   -1    0    0    0  501 -0.00000000000E+00  0.00000000000E+00  0.25732385485E+03  0.25732385485E+03  0.00000000000E+00 0.  1.
          2   -1    0    0  501    0  0.00000000000E+00 -0.00000000000E+00 -0.15348283147E+04  0.15348283147E+04  0.00000000000E+00 0. -1.
         23    2    1    2    0    0  0.47613883907E+02  0.44026503152E+03 -0.12711894535E+04  0.13492749188E+04  0.92302761295E+02 0.  0.
         13    1    3    3    0    0  0.45158365494E+02  0.11894166789E+03 -0.44386942117E+03  0.46174285201E+03  0.00000000000E+00 0. -1.
        -13    1    3    3    0    0  0.24555184129E+01  0.32132336362E+03 -0.82732003238E+03  0.88753206677E+03  0.00000000000E+00 0.  1.
         22    1    1    2    0    0 -0.47613883907E+02 -0.44026503152E+03 -0.63150062844E+01  0.44287725074E+03  0.00000000000E+00 0.  1.
<mgrwt>
<rscale>  0 0.12568977E+04</rscale>
<asrwt>0</asrwt>
<pdfrwt beam="1">  1        2 0.23612743E+00 0.12568977E+04</pdfrwt>
<pdfrwt beam="2">  1       -2 0.39588285E-01 0.12568977E+04</pdfrwt>
<totfact> 0.71949598E+01</totfact>
</mgrwt>
</event>
<event>
 6    1  0.8968082E-007  0.2954356E+04  0.7818608E-02  0.8256886E-01
         -2   -1    0    0    0  501 -0.00000000000E+00  0.00000000000E+00  0.10992787319E+04  0.10992787319E+04  0.00000000000E+00 0.  1.
          2   -1    0    0  501    0  0.00000000000E+00 -0.00000000000E+00 -0.19849882692E+04  0.19849882692E+04  0.00000000000E+00 0. -1.
         23    2    1    2    0    0  0.82062980102E+03  0.11239685214E+04  0.69425129988E+02  0.13963627562E+04  0.90942789044E+02 0.  0.
         11    1    3    3    0    0  0.52990846682E+03  0.78655866507E+03  0.24535554073E+02  0.94872520269E+03  0.00000000000E+00 0.  1.
        -11    1    3    3    0    0  0.29072133420E+03  0.33740985629E+03  0.44889575915E+02  0.44763755350E+03  0.00000000000E+00 0. -1.
         22    1    1    2    0    0 -0.82062980102E+03 -0.11239685214E+04 -0.95513466733E+03  0.16879042449E+04  0.00000000000E+00 0. -1.
<mgrwt>
<rscale>  0 0.29543564E+04</rscale>
<asrwt>0</asrwt>
<pdfrwt beam="1">  1        2 0.30538281E+00 0.29543564E+04</pdfrwt>
<pdfrwt beam="2">  1       -2 0.16911981E+00 0.29543564E+04</pdfrwt>
<totfact> 0.12655652E+00</totfact>
</mgrwt>
</event>
<event>
 6    1  0.8968082E-007  0.2131362E+04  0.7818608E-02  0.8547552E-01
          1   -1    0    0  501    0  0.00000000000E+00  0.00000000000E+00  0.89772254484E+03  0.89772254484E+03  0.00000000000E+00 0. -1.
         -1   -1    0    0    0  501 -0.00000000000E+00 -0.00000000000E+00 -0.12650639843E+04  0.12650639843E+04  0.00000000000E+00 0.  1.
         23    2    1    2    0    0  0.38635841721E+03  0.52814417401E+03 -0.10350149987E+04  0.12279084212E+04  0.91071116740E+02 0.  0.
         13    1    3    3    0    0  0.27987445436E+03  0.44284654893E+03 -0.83758392906E+03  0.98792186651E+03  0.00000000000E+00 0. -1.
        -13    1    3    3    0    0  0.10648396285E+03  0.85297625082E+02 -0.19743106959E+03  0.23998655468E+03  0.00000000000E+00 0.  1.
         22    1    1    2    0    0 -0.38635841721E+03 -0.52814417401E+03  0.66767355918E+03  0.93487810795E+03  0.00000000000E+00 0. -1.
<mgrwt>
<rscale>  0 0.21313624E+04</rscale>
<asrwt>0</asrwt>
<pdfrwt beam="1">  1        1 0.13811116E+00 0.21313624E+04</pdfrwt>
<pdfrwt beam="2">  1       -1 0.19462523E+00 0.21313624E+04</pdfrwt>
<totfact> 0.27487948E+00</totfact>
</mgrwt>
</event>
<event>
 6    1  0.8968082E-007  0.1567331E+04  0.7818608E-02  0.8840873E-01
         -2   -1    0    0    0  501 -0.00000000000E+00  0.00000000000E+00  0.54015728742E+03  0.54015728742E+03  0.00000000000E+00 0.  1.
          2   -1    0    0  501    0  0.00000000000E+00 -0.00000000000E+00 -0.11369494104E+04  0.11369494104E+04  0.00000000000E+00 0. -1.
         23    2    1    2    0    0 -0.19651602147E+02 -0.66483731658E+03  0.13843851416E+03  0.68566384380E+03  0.92600440075E+02 0.  0.
         11    1    3    3    0    0  0.26789029435E+02 -0.22326278059E+03  0.17858994422E+02  0.22557230543E+03  0.00000000000E+00 0. -1.
        -11    1    3    3    0    0 -0.46440631582E+02 -0.44157453599E+03  0.12057951974E+03  0.46009153837E+03  0.00000000000E+00 0.  1.
         22    1    1    2    0    0  0.19651602147E+02  0.66483731658E+03 -0.73523063710E+03  0.99144285399E+03  0.00000000000E+00 0. -1.
<mgrwt>
<rscale>  0 0.15673309E+04</rscale>
<asrwt>0</asrwt>
<pdfrwt beam="1">  1        2 0.17491529E+00 0.15673309E+04</pdfrwt>
<pdfrwt beam="2">  1       -2 0.83101121E-01 0.15673309E+04</pdfrwt>
<totfact> 0.25217342E+01</totfact>
</mgrwt>
</event>
<event>
 6    1  0.8968082E-007  0.1235032E+04  0.7818608E-02  0.9082734E-01
          1   -1    0    0  501    0  0.00000000000E+00  0.00000000000E+00  0.73938792342E+03  0.73938792342E+03  0.00000000000E+00 0. -1.
         -1   -1    0    0    0  501 -0.00000000000E+00 -0.00000000000E+00 -0.51573165250E+03  0.51573165250E+03  0.00000000000E+00 0.  1.
         23    2    1    2    0    0  0.19620269693E+03 -0.58059744308E+03  0.69243965627E+02  0.62311320789E+03  0.88805708611E+02 0.  0.
         13    1    3    3    0    0  0.11995570726E+03 -0.23205875470E+03  0.97918917782E+01  0.26141254462E+03  0.00000000000E+00 0. -1.
        -13    1    3    3    0    0  0.76246989668E+02 -0.34853868838E+03  0.59452073849E+02  0.36170066328E+03  0.00000000000E+00 0.  1.
         22    1    1    2    0    0 -0.19620269693E+03  0.58059744308E+03  0.15441230529E+03  0.63200636802E+03  0.00000000000E+00 0. -1.
<mgrwt>
<rscale>  0 0.12350316E+04</rscale>
<asrwt>0</asrwt>
<pdfrwt beam="1">  1        1 0.11375199E+00 0.12350316E+04</pdfrwt>
<pdfrwt beam="2">  1       -1 0.79343331E-01 0.12350316E+04</pdfrwt>
<totfact> 0.39266735E+01</totfact>
</mgrwt>
</event>
<event>
 6    1  0.8968082E-007  0.1492658E+04  0.7818608E-02  0.8889350E-01
         -2   -1    0    0    0  501 -0.00000000000E+00  0.00000000000E+00  0.96945948853E+03  0.96945948853E+03  0.00000000000E+00 0.  1.
          2   -1    0    0  501    0  0.00000000000E+00 -0.00000000000E+00 -0.57455394315E+03  0.57455394315E+03  0.00000000000E+00 0. -1.
         23    2    1    2    0    0 -0.37952433158E+03  0.22328698893E+03  0.81806738137E+03  0.93330749825E+03  0.89066537698E+02 0.  0.
         11    1    3    3    0    0 -0.17251135956E+03  0.56515601830E+02  0.37457919360E+03  0.41624963028E+03  0.00000000000E+00 0. -1.
        -11    1    3    3    0    0 -0.20701297202E+03  0.16677138710E+03  0.44348818777E+03  0.51705786797E+03  0.00000000000E+00 0.  1.
         22    1    1    2    0    0  0.37952433158E+03 -0.22328698893E+03 -0.42316183599E+03  0.61070593343E+03  0.00000000000E+00 0. -1.
<mgrwt>
<rscale>  0 0.14926577E+04</rscale>
<asrwt>0</asrwt>
<pdfrwt beam="1">  1        2 0.88392914E-01 0.14926577E+04</pdfrwt>
<pdfrwt beam="2">  1       -2 0.14914761E+00 0.14926577E+04</pdfrwt>
<totfact> 0.15354740E+01</totfact>
</mgrwt>
</event>
<event>
 6    1  0.8968082E-007  0.1188376E+04  0.7818608E-02  0.9123092E-01
         -2   -1    0    0    0  501 -0.00000000000E+00  0.00000000000E+00  0.11103511991E+03  0.11103511991E+03  0.00000000000E+00 0.  1.
          2   -1    0    0  501    0  0.00000000000E+00 -0.00000000000E+00 -0.31797107527E+04  0.31797107527E+04  0.00000000000E+00 0. -1.
         23    2    1    2    0    0  0.32796187460E+03  0.27164406007E+03 -0.26760194240E+04  0.27114977523E+04  0.98947544386E+02 0.  0.
         13    1    3    3    0    0  0.17042364133E+03  0.15651003370E+03 -0.11494151781E+04  0.11724738205E+04  0.00000000000E+00 0.  1.
        -13    1    3    3    0    0  0.15753823327E+03  0.11513402637E+03 -0.15266042460E+04  0.15390239318E+04  0.00000000000E+00 0. -1.
         22    1    1    2    0    0 -0.32796187460E+03 -0.27164406007E+03 -0.39265620876E+03  0.57924812027E+03  0.00000000000E+00 0.  1.
<mgrwt>
<rscale>  0 0.11883763E+04</rscale>
<asrwt>0</asrwt>
<pdfrwt beam="1">  1        2 0.48918620E+00 0.11883763E+04</pdfrwt>
<pdfrwt beam="2">  1       -2 0.17082329E-01 0.11883763E+04</pdfrwt>
<totfact> 0.37828111E+01</totfact>
</mgrwt>
</event>
<event>
 6    1  0.8968082E-007  0.8254733E+03  0.7818608E-02  0.9523860E-01
          2   -1    0    0  501    0  0.00000000000E+00  0.00000000000E+00  0.83008774571E+03  0.83008774571E+03  0.00000000000E+00 0. -1.
         -2   -1    0    0    0  501 -0.00000000000E+00 -0.00000000000E+00 -0.20522110170E+03  0.20522110170E+03  0.00000000000E+00 0.  1.
         23    2    1    2    0    0 -0.24664285554E+03  0.10568096135E+03  0.70091565583E+03  0.75640991235E+03  0.94191481200E+02 0.  0.
         11    1    3    3    0    0 -0.16421229651E+03  0.91960780697E+02  0.37014310696E+03  0.41524496763E+03  0.00000000000E+00 0.  1.
        -11    1    3    3    0    0 -0.82430559030E+02  0.13720180653E+02  0.33077254888E+03  0.34116494472E+03  0.00000000000E+00 0. -1.
         22    1    1    2    0    0  0.24664285554E+03 -0.10568096135E+03 -0.76049011815E+02  0.27889893506E+03  0.00000000000E+00 0.  1.
<mgrwt>
<rscale>  0 0.82547325E+03</rscale>
<asrwt>0</asrwt>
<pdfrwt beam="1">  1        2 0.12770581E+00 0.82547325E+03</pdfrwt>
<pdfrwt beam="2">  1       -2 0.31572478E-01 0.82547325E+03</pdfrwt>
<totfact> 0.30658498E+02</totfact>
</mgrwt>
</event>
<event>
 6    1  0.8968082E-007  0.9737416E+03  0.7818608E-02  0.9337823E-01
         -2   -1    0    0    0  501 -0.00000000000E+00  0.00000000000E+00  0.15236138127E+03  0.15236138127E+03  0.00000000000E+00 0.  1.
          2   -1    0    0  501    0  0.00000000000E+00 -0.00000000000E+00 -0.15557955900E+04  0.15557955900E+04  0.00000000000E+00 0. -1.
         23    2    1    2    0    0 -0.18863078146E+03  0.18292939511E+03  0.21781446298E+01  0.27819514547E+03  0.91340348921E+02 0.  0.
         11    1    3    3    0    0 -0.54802188170E+02  0.12616180538E+02  0.22653448300E+02  0.60626945821E+02  0.00000000000E+00 0. -1.
        -11    1    3    3    0    0 -0.13382859329E+03  0.17031321457E+03 -0.20475303670E+02  0.21756819965E+03  0.00000000000E+00 0.  1.
         22    1    1    2    0    0  0.18863078146E+03 -0.18292939511E+03 -0.14056123533E+04  0.14299618258E+04  0.00000000000E+00 0. -1.
<mgrwt>
<rscale>  0 0.97374158E+03</rscale>
<asrwt>0</asrwt>
<pdfrwt beam="1">  1        2 0.23935316E+00 0.97374158E+03</pdfrwt>
<pdfrwt beam="2">  1       -2 0.23440213E-01 0.97374158E+03</pdfrwt>
<totfact> 0.19015872E+02</totfact>
</mgrwt>
</event>
<event>
 6    1  0.8968082E-007  0.2688159E+04  0.7818608E-02  0.8338857E-01
         -2   -1    0    0    0  501 -0.00000000000E+00  0.00000000000E+00  0.62913090756E+03  0.62913090756E+03  0.00000000000E+00 0.  1.
          2   -1    0    0  501    0  0.00000000000E+00 -0.00000000000E+00 -0.28715008995E+04  0.28715008995E+04  0.00000000000E+00 0. -1.
         23    2    1    2    0    0 -0.10936932732E+04 -0.39401399014E+03 -0.24821579850E+03  0.11923720843E+04  0.93424325236E+02 0.  0.
         13    1    3    3    0    0 -0.30313256553E+03 -0.65397091407E+02 -0.67387134642E+02  0.31734391087E+03  0.00000000000E+00 0. -1.
        -13    1    3    3    0    0 -0.79056070770E+03 -0.32861689874E+03 -0.18082866385E+03  0.87502817347E+03  0.00000000000E+00 0.  1.
         22    1    1    2    0    0  0.10936932732E+04  0.39401399014E+03 -0.19941541935E+04  0.23082597227E+04  0.00000000000E+00 0. -1.
<mgrwt>
<rscale>  0 0.26881592E+04</rscale>
<asrwt>0</asrwt>
<pdfrwt beam="1">  1        2 0.44176937E+00 0.26881592E+04</pdfrwt>
<pdfrwt beam="2">  1       -2 0.96789371E-01 0.26881592E+04</pdfrwt>
<totfact> 0.16381806E+00</totfact>
</mgrwt>
</event>
<event>
 6    1  0.8968082E-007  0.5637092E+04  0.7818608E-02  0.7737102E-01
         -2   -1    0    0    0  501 -0.00000000000E+00  0.00000000000E+00  0.24490982880E+04  0.24490982880E+04  0.00000000000E+00 0.  1.
          2   -1    0    0  501    0  0.00000000000E+00 -0.00000000000E+00 -0.32437255090E+04  0.32437255090E+04  0.00000000000E+00 0. -1.
         23    2    1    2    0    0  0.25122219578E+03 -0.27982592248E+04 -0.61575840428E+03  0.28776219687E+04  0.90457178576E+02 0.  0.
         11    1    3    3    0    0  0.14351970381E+03 -0.20446638357E+04 -0.44392750750E+03  0.20972171414E+04  0.00000000000E+00 0. -1.
        -11    1    3    3    0    0  0.10770249197E+03 -0.75359538915E+03 -0.17183089678E+03  0.78040482727E+03  0.00000000000E+00 0.  1.
         22    1    1    2    0    0 -0.25122219578E+03  0.27982592248E+04 -0.17886881667E+03  0.28152018284E+04  0.00000000000E+00 0. -1.
<mgrwt>
<rscale>  0 0.56370924E+04</rscale>
<asrwt>0</asrwt>
<pdfrwt beam="1">  1        2 0.49903469E+00 0.56370924E+04</pdfrwt>
<pdfrwt beam="2">  1       -2 0.37678436E+00 0.56370924E+04</pdfrwt>
<totfact> 0.88197564E-03</totfact>
</mgrwt>
</event>
<event>
 6    1  0.8968082E-007  0.3913533E+04  0.7818608E-02  0.8022220E-01
          1   -1    0    0  501    0  0.00000000000E+00  0.00000000000E+00  0.17326315722E+04  0.17326315722E+04  0.00000000000E+00 0. -1.
         -1   -1    0    0    0  501 -0.00000000000E+00 -0.00000000000E+00 -0.22098961660E+04  0.22098961660E+04  0.00000000000E+00 0.  1.
         23    2    1    2    0    0  0.30476467699E+02  0.45111113784E+03  0.16780170104E+04  0.17403313648E+04  0.92639615451E+02 0.  0.
         11    1    3    3    0    0 -0.14959565770E+02  0.34177097713E+03  0.12955543645E+04  0.13399598132E+04  0.00000000000E+00 0.  1.
        -11    1    3    3    0    0  0.45436033469E+02  0.10934016070E+03  0.38246264583E+03  0.40037155161E+03  0.00000000000E+00 0. -1.
         22    1    1    2    0    0 -0.30476467699E+02 -0.45111113784E+03 -0.21552816042E+04  0.22021963735E+04  0.00000000000E+00 0.  1.
<mgrwt>
<rscale>  0 0.39135334E+04</rscale>
<asrwt>0</asrwt>
<pdfrwt beam="1">  1        1 0.26655870E+00 0.39135334E+04</pdfrwt>
<pdfrwt beam="2">  1       -1 0.33998403E+00 0.39135334E+04</pdfrwt>
<totfact> 0.64569108E-02</totfact>
</mgrwt>
</event>
<event>
 6    1  0.8968082E-007  0.3503939E+04  0.7818608E-02  0.8112857E-01
          1   -1    0    0  501    0  0.00000000000E+00  0.00000000000E+00  0.28333935721E+04  0.28333935721E+04  0.00000000000E+00 0. -1.
         -1   -1    0    0    0  501 -0.00000000000E+00 -0.00000000000E+00 -0.10832933438E+04  0.10832933438E+04  0.00000000000E+00 0.  1.
         23    2    1    2    0    0 -0.82090731887E+03 -0.10781038135E+04  0.21148211573E+04  0.25133986295E+04  0.92236024970E+02 0.  0.
         11    1    3    3    0    0 -0.23985338248E+03 -0.25097529072E+03  0.56042159530E+03  0.65923486416E+03  0.00000000000E+00 0. -1.
        -11    1    3    3    0    0 -0.58105393640E+03 -0.82712852277E+03  0.15543995620E+04  0.18541637653E+04  0.00000000000E+00 0.  1.
         22    1    1    2    0    0  0.82090731887E+03  0.10781038135E+04 -0.36472092896E+03  0.14032882864E+04  0.00000000000E+00 0.  1.
<mgrwt>
<rscale>  0 0.35039386E+04</rscale>
<asrwt>0</asrwt>
<pdfrwt beam="1">  1        1 0.43590670E+00 0.35039386E+04</pdfrwt>
<pdfrwt beam="2">  1       -1 0.16666052E+00 0.35039386E+04</pdfrwt>
<totfact> 0.16747575E-01</totfact>
</mgrwt>
</event>
<event>
 6    1  0.8968082E-007  0.2726500E+04  0.7818608E-02  0.8326458E-01
         -1   -1    0    0    0  501 -0.00000000000E+00  0.00000000000E+00  0.16627874617E+04  0.16627874617E+04  0.00000000000E+00 0.  1.
          1   -1    0    0  501    0  0.00000000000E+00 -0.00000000000E+00 -0.11176713527E+04  0.11176713527E+04  0.00000000000E+00 0. -1.
         23    2    1    2    0    0  0.66533233288E+03 -0.12543564190E+03  0.14776976358E+04  0.16280224744E+04  0.92009025858E+02 0.  0.
         13    1    3    3    0    0  0.24462701148E+03 -0.91078991573E+02  0.58064409828E+03  0.63662023713E+03  0.00000000000E+00 0.  1.
        -13    1    3    3    0    0  0.42070532140E+03 -0.34356650324E+02  0.89705353753E+03  0.99140223727E+03  0.00000000000E+00 0. -1.
         22    1    1    2    0    0 -0.66533233288E+03  0.12543564190E+03 -0.93258152689E+03  0.11524363400E+04  0.00000000000E+00 0. -1.
<mgrwt>
<rscale>  0 0.27264995E+04</rscale>
<asrwt>0</asrwt>
<pdfrwt beam="1">  1        1 0.17194944E+00 0.27264995E+04</pdfrwt>
<pdfrwt beam="2">  1       -1 0.25581346E+00 0.27264995E+04</pdfrwt>
<totfact> 0.68436158E-01</totfact>
</mgrwt>
</event>
<event>
 6    1  0.8968082E-007  0.6577737E+03  0.7818608E-02  0.9792301E-01
          2   -1    0    0  501    0  0.00000000000E+00  0.00000000000E+00  0.16322691747E+03  0.16322691747E+03  0.00000000000E+00 0. -1.
         -2   -1    0    0    0  501 -0.00000000000E+00 -0.00000000000E+00 -0.66267601408E+03  0.66267601408E+03  0.00000000000E+00 0.  1.
         23    2    1    2    0    0  0.13217453696E+03  0.20795389505E+03  0.74963163989E+01  0.26224649146E+03  0.89454440016E+02 0.  0.
         13    1    3    3    0    0  0.65902593480E+02  0.16852208923E+03 -0.15933503281E+02  0.18165000114E+03  0.00000000000E+00 0. -1.
        -13    1    3    3    0    0  0.66271943481E+02  0.39431805818E+02  0.23429819679E+02  0.80596490327E+02  0.00000000000E+00 0.  1.
         22    1    1    2    0    0 -0.13217453696E+03 -0.20795389505E+03 -0.50694541300E+03  0.56365644009E+03  0.00000000000E+00 0.  1.
<mgrwt>
<rscale>  0 0.65777371E+03</rscale>
<asrwt>0</asrwt>
<pdfrwt beam="1">  1        2 0.25111833E-01 0.65777371E+03</pdfrwt>
<pdfrwt beam="2">  1       -2 0.10195016E+00 0.65777371E+03</pdfrwt>
<totfact> 0.17394964E+02</totfact>
</mgrwt>
</event>
<event>
 6    1  0.8968082E-007  0.1627902E+04  0.7818608E-02  0.8803588E-01
         -2   -1    0    0    0  501 -0.00000000000E+00  0.00000000000E+00  0.42216940180E+03  0.42216940180E+03  0.00000000000E+00 0.  1.
          2   -1    0    0  501    0  0.00000000000E+00 -0.00000000000E+00 -0.15693131201E+04  0.15693131201E+04  0.00000000000E+00 0. -1.
         23    2    1    2    0    0  0.29469863094E+03 -0.70921187345E+03 -0.25516398676E+03  0.81442831499E+03  0.91411463176E+02 0.  0.
         11    1    3    3    0    0  0.17137955460E+03 -0.29566124315E+03 -0.10513251516E+03  0.35754631613E+03  0.00000000000E+00 0.  1.
        -11    1    3    3    0    0  0.12331907634E+03 -0.41355063030E+03 -0.15003147160E+03  0.45688199886E+03  0.00000000000E+00 0. -1.
         22    1    1    2    0    0 -0.29469863094E+03  0.70921187345E+03 -0.89197973155E+03  0.11770542069E+04  0.00000000000E+00 0. -1.
<mgrwt>
<rscale>  0 0.16279017E+04</rscale>
<asrwt>0</asrwt>
<pdfrwt beam="1">  1        2 0.24143279E+00 0.16279017E+04</pdfrwt>
<pdfrwt beam="2">  1       -2 0.64949139E-01 0.16279017E+04</pdfrwt>
<totfact> 0.24276248E+01</totfact>
</mgrwt>
</event>
<event>
 6    1  0.8968082E-007  0.1405455E+04  0.7818608E-02  0.8949879E-01
         -2   -1    0    0    0  501 -0.00000000000E+00  0.00000000000E+00  0.74770058546E+03  0.74770058546E+03  0.00000000000E+00 0.  1.
          2   -1    0    0  501    0  0.00000000000E+00 -0.00000000000E+00 -0.66045972254E+03  0.66045972254E+03  0.00000000000E+00 0. -1.
         23    2    1    2    0    0  0.17623754171E+03  0.15800139999E+03  0.70362400382E+03  0.74789347565E+03  0.90740281301E+02 0.  0.
         13    1    3    3    0    0  0.13646281386E+02  0.47721712904E+02  0.22706775666E+03  0.23242923438E+03  0.00000000000E+00 0. -1.
        -13    1    3    3    0    0  0.16259126032E+03  0.11027968709E+03  0.47655624717E+03  0.51546424127E+03  0.00000000000E+00 0.  1.
         22    1    1    2    0    0 -0.17623754171E+03 -0.15800139999E+03 -0.61638314090E+03  0.66026683235E+03  0.00000000000E+00 0. -1.
<mgrwt>
<rscale>  0 0.14054553E+04</rscale>
<asrwt>0</asrwt>
<pdfrwt beam="1">  1        2 0.10160919E+00 0.14054553E+04</pdfrwt>
<pdfrwt beam="2">  1       -2 0.11503086E+00 0.14054553E+04</pdfrwt>
<totfact> 0.25269621E+01</totfact>
</mgrwt>
</event>
<event>
 6    1  0.8968082E-007  0.4827178E+04  0.7818608E-02  0.7855734E-01
          2   -1    0    0  501    0  0.00000000000E+00  0.00000000000E+00  0.36235558235E+04  0.36235558235E+04  0.00000000000E+00 0. -1.
         -2   -1    0    0    0  501 -0.00000000000E+00 -0.00000000000E+00 -0.16076503445E+04  0.16076503445E+04  0.00000000000E+00 0.  1.
         23    2    1    2    0    0 -0.87548295488E+03  0.14145369630E+04  0.29021619869E+04  0.33463094011E+04  0.88640769084E+02 0.  0.
         13    1    3    3    0    0 -0.45064913005E+03  0.74708356679E+03  0.14351617510E+04  0.16795558180E+04  0.00000000000E+00 0.  1.
        -13    1    3    3    0    0 -0.42483382483E+03  0.66745339622E+03  0.14670002358E+04  0.16667535831E+04  0.00000000000E+00 0. -1.
         22    1    1    2    0    0  0.87548295488E+03 -0.14145369630E+04 -0.88625650795E+03  0.18848967669E+04  0.00000000000E+00 0.  1.
<mgrwt>
<rscale>  0 0.48271775E+04</rscale>
<asrwt>0</asrwt>
<pdfrwt beam="1">  1        2 0.55747012E+00 0.48271775E+04</pdfrwt>
<pdfrwt beam="2">  1       -2 0.24733082E+00 0.48271775E+04</pdfrwt>
<totfact> 0.32622981E-02</totfact>
</mgrwt>
</event>
<event>
 6    1  0.8968082E-007  0.1960597E+04  0.7818608E-02  0.8625268E-01
         -1   -1    0    0    0  501 -0.00000000000E+00  0.00000000000E+00  0.39675464100E+03  0.39675464100E+03  0.00000000000E+00 0.  1.
          1   -1    0    0  501    0  0.00000000000E+00 -0.00000000000E+00 -0.24221149522E+04  0.24221149522E+04  0.00000000000E+00 0. -1.
         23    2    1    2    0    0 -0.79795661207E+03 -0.50776302273E+03 -0.13739056705E+04  0.16704135902E+04  0.90037374765E+02 0.  0.
         13    1    3    3    0    0 -0.30933297776E+03 -0.16577155469E+03 -0.44897380744E+03  0.56986364969E+03  0.00000000000E+00 0. -1.
        -13    1    3    3    0    0 -0.48862363431E+03 -0.34199146804E+03 -0.92493186307E+03  0.11005499405E+04  0.00000000000E+00 0.  1.
         22    1    1    2    0    0  0.79795661207E+03  0.50776302273E+03 -0.65145464071E+03  0.11484560030E+04  0.00000000000E+00 0.  1.
<mgrwt>
<rscale>  0 0.19605972E+04</rscale>
<asrwt>0</asrwt>
<pdfrwt beam="1">  1        1 0.37263307E+00 0.19605972E+04</pdfrwt>
<pdfrwt beam="2">  1       -1 0.61039176E-01 0.19605972E+04</pdfrwt>
<totfact> 0.38879716E+00</totfact>
</mgrwt>
</event>
<event>
 6    1  0.8968082E-007  0.5519812E+04  0.7818608E-02  0.7752969E-01
          1   -1    0    0  501    0  0.00000000000E+00  0.00000000000E+00  0.34312959508E+04  0.34312959508E+04  0.00000000000E+00 0. -1.
         -1   -1    0    0    0  501 -0.00000000000E+00 -0.00000000000E+00 -0.22198848167E+04  0.22198848167E+04  0.00000000000E+00 0.  1.
         23    2    1    2    0    0  0.18050085218E+04  0.25853870507E+03  0.27259343254E+04  0.32808055814E+04  0.89829232600E+02 0.  0.
         13    1    3    3    0    0  0.10978348043E+04  0.14180007067E+03  0.15800703822E+04  0.19292410244E+04  0.00000000000E+00 0.  1.
        -13    1    3    3    0    0  0.70717371749E+03  0.11673863440E+03  0.11458639432E+04  0.13515645570E+04  0.00000000000E+00 0. -1.
         22    1    1    2    0    0 -0.18050085218E+04 -0.25853870507E+03 -0.15145231913E+04  0.23703751861E+04  0.00000000000E+00 0.  1.
<mgrwt>
<rscale>  0 0.55198122E+04</rscale>
<asrwt>0</asrwt>
<pdfrwt beam="1">  1        1 0.52789169E+00 0.55198122E+04</pdfrwt>
<pdfrwt beam="2">  1       -1 0.34152074E+00 0.55198122E+04</pdfrwt>
<totfact> 0.34637993E-03</totfact>
</mgrwt>
</event>
<event>
 6    1  0.8968082E-007  0.4579397E+03  0.7818608E-02  0.1025380E+00
          2   -1    0    0  501    0  0.00000000000E+00  0.00000000000E+00  0.77688948354E+03  0.77688948354E+03  0.00000000000E+00 0. -1.
         -2   -1    0    0    0  501 -0.00000000000E+00 -0.00000000000E+00 -0.67483476767E+02  0.67483476767E+02  0.00000000000E+00 0.  1.
         23    2    1    2    0    0 -0.13198600499E+03  0.15029229374E+03  0.20272069281E+03  0.29963624734E+03  0.93156440228E+02 0.  0.
         11    1    3    3    0    0 -0.11092674481E+03  0.58701128836E+02  0.10053149532E+03  0.16080157584E+03  0.00000000000E+00 0.  1.
        -11    1    3    3    0    0 -0.21059260181E+02  0.91591164902E+02  0.10218919749E+03  0.13883467150E+03  0.00000000000E+00 0. -1.
         22    1    1    2    0    0  0.13198600499E+03 -0.15029229374E+03  0.50668531396E+03  0.54473671297E+03  0.00000000000E+00 0. -1.
<mgrwt>
<rscale>  0 0.45793975E+03</rscale>
<asrwt>0</asrwt>
<pdfrwt beam="1">  1        2 0.11952145E+00 0.45793975E+03</pdfrwt>
<pdfrwt beam="2">  1       -2 0.10382074E-01 0.45793975E+03</pdfrwt>
<totfact> 0.23105366E+03</totfact>
</mgrwt>
</event>
<event>
 6    1  0.8968082E-007  0.1012877E+04  0.7818608E-02  0.9294534E-01
         -1   -1    0    0    0  501 -0.00000000000E+00  0.00000000000E+00  0.15486193263E+03  0.15486193263E+03  0.00000000000E+00 0.  1.
          1   -1    0    0  501    0  0.00000000000E+00 -0.00000000000E+00 -0.16561831345E+04  0.16561831345E+04  0.00000000000E+00 0. -1.
         23    2    1    2    0    0 -0.14357143542E+03  0.40115021668E+03 -0.27992132072E+03  0.51746402093E+03  0.88762682216E+02 0.  0.
         13    1    3    3    0    0 -0.96870580455E+02  0.25373790572E+03 -0.22717090405E+03  0.35408114014E+03  0.00000000000E+00 0.  1.
        -13    1    3    3    0    0 -0.46700854966E+02  0.14741231096E+03 -0.52750416674E+02  0.16338288079E+03  0.00000000000E+00 0. -1.
         22    1    1    2    0    0  0.14357143542E+03 -0.40115021668E+03 -0.12213998812E+04  0.12935810462E+04  0.00000000000E+00 0. -1.
<mgrwt>
<rscale>  0 0.10128765E+04</rscale>
<asrwt>0</asrwt>
<pdfrwt beam="1">  1        1 0.25479742E+00 0.10128765E+04</pdfrwt>
<pdfrwt beam="2">  1       -1 0.23824912E-01 0.10128765E+04</pdfrwt>
<totfact> 0.77896568E+01</totfact>
</mgrwt>
</event>
<event>
 6    1  0.8968082E-007  0.3283505E+04  0.7818608E-02  0.8167105E-01
          1   -1    0    0  501    0  0.00000000000E+00  0.00000000000E+00  0.31399907980E+04  0.31399907980E+04  0.00000000000E+00 0. -1.
         -1   -1    0    0    0  501 -0.00000000000E+00 -0.00000000000E+00 -0.85839479992E+03  0.85839479992E+03  0.00000000000E+00 0.  1.
         23    2    1    2    0    0 -0.35979329695E+03 -0.15943541043E+04  0.13132876759E+04  0.20986389745E+04  0.90248540994E+02 0.  0.
         11    1    3    3    0    0 -0.10511318432E+03 -0.66279425909E+03  0.55056435479E+03  0.86802426243E+03  0.00000000000E+00 0. -1.
        -11    1    3    3    0    0 -0.25468011263E+03 -0.93155984520E+03  0.76272332115E+03  0.12306147121E+04  0.00000000000E+00 0.  1.
         22    1    1    2    0    0  0.35979329695E+03  0.15943541043E+04  0.96830832211E+03  0.18997466234E+04  0.00000000000E+00 0.  1.
<mgrwt>
<rscale>  0 0.32835053E+04</rscale>
<asrwt>0</asrwt>
<pdfrwt beam="1">  1        1 0.48307550E+00 0.32835053E+04</pdfrwt>
<pdfrwt beam="2">  1       -1 0.13206074E+00 0.32835053E+04</pdfrwt>
<totfact> 0.19062134E-01</totfact>
</mgrwt>
</event>
<event>
 6    1  0.8968082E-007  0.1068082E+04  0.7818608E-02  0.9236872E-01
          2   -1    0    0  501    0  0.00000000000E+00  0.00000000000E+00  0.75402035009E+03  0.75402035009E+03  0.00000000000E+00 0. -1.
         -2   -1    0    0    0  501 -0.00000000000E+00 -0.00000000000E+00 -0.37823909711E+03  0.37823909711E+03  0.00000000000E+00 0.  1.
         23    2    1    2    0    0  0.12994987904E+03  0.76641232978E+02 -0.34907061973E+03  0.39187367814E+03  0.94624692350E+02 0.  0.
         13    1    3    3    0    0  0.67262788435E+02 -0.83657317610E+01 -0.18204747306E+03  0.19425640433E+03  0.00000000000E+00 0. -1.
        -13    1    3    3    0    0  0.62687090601E+02  0.85006964739E+02 -0.16702314667E+03  0.19761727380E+03  0.00000000000E+00 0.  1.
         22    1    1    2    0    0 -0.12994987904E+03 -0.76641232978E+02  0.72485187272E+03  0.74038576907E+03  0.00000000000E+00 0. -1.
<mgrwt>
<rscale>  0 0.10680823E+04</rscale>
<asrwt>0</asrwt>
<pdfrwt beam="1">  1        2 0.11600313E+00 0.10680823E+04</pdfrwt>
<pdfrwt beam="2">  1       -2 0.58190631E-01 0.10680823E+04</pdfrwt>
<totfact> 0.10238080E+02</totfact>
</mgrwt>
</event>
<event>
 6    1  0.8968082E-007  0.3837992E+03  0.7818608E-02  0.1049538E+00
         -2   -1    0    0    0  501 -0.00000000000E+00  0.00000000000E+00  0.15640395979E+03  0.15640395979E+03  0.00000000000E+00 0.  1.
          2   -1    0    0  501    0  0.00000000000E+00 -0.00000000000E+00 -0.23545092533E+03  0.23545092533E+03  0.00000000000E+00 0. -1.
         23    2    1    2    0    0 -0.24585467218E+02 -0.84275306738E+02  0.12036632404E+03  0.17397319112E+03  0.89843456862E+02 0.  0.
         11    1    3    3    0    0 -0.42055283095E+02 -0.12891039458E+02  0.76897083746E+02  0.88588866248E+02  0.00000000000E+00 0. -1.
        -11    1    3    3    0    0  0.17469815877E+02 -0.71384267279E+02  0.43469240294E+02  0.85384324870E+02  0.00000000000E+00 0.  1.
         22    1    1    2    0    0  0.24585467218E+02  0.84275306738E+02 -0.19941328958E+03  0.21788169401E+03  0.00000000000E+00 0. -1.
<mgrwt>
<rscale>  0 0.38379920E+03</rscale>
<asrwt>0</asrwt>
<pdfrwt beam="1">  1        2 0.36223219E-01 0.38379920E+03</pdfrwt>
<pdfrwt beam="2">  1       -2 0.24062148E-01 0.38379920E+03</pdfrwt>
<totfact> 0.21801105E+03</totfact>
</mgrwt>
</event>
<event>
 6    1  0.8968082E-007  0.2257539E+04  0.7818608E-02  0.8494853E-01
         -1   -1    0    0    0  501 -0.00000000000E+00  0.00000000000E+00  0.43978729214E+03  0.43978729214E+03  0.00000000000E+00 0.  1.
          1   -1    0    0  501    0  0.00000000000E+00 -0.00000000000E+00 -0.28971297441E+04  0.28971297441E+04  0.00000000000E+00 0. -1.
         23    2    1    2    0    0 -0.10506593717E+04 -0.40735858187E+03 -0.12162183875E+04  0.16605474252E+04  0.91675817140E+02 0.  0.
         13    1    3    3    0    0 -0.55067177894E+03 -0.16856231924E+03 -0.59257325107E+03  0.82631454149E+03  0.00000000000E+00 0.  1.
        -13    1    3    3    0    0 -0.49998759277E+03 -0.23879626262E+03 -0.62364513645E+03  0.83423288366E+03  0.00000000000E+00 0. -1.
         22    1    1    2    0    0  0.10506593717E+04  0.40735858187E+03 -0.12411240644E+04  0.16763696110E+04  0.00000000000E+00 0. -1.
<mgrwt>
<rscale>  0 0.22575392E+04</rscale>
<asrwt>0</asrwt>
<pdfrwt beam="1">  1        1 0.44571226E+00 0.22575392E+04</pdfrwt>
<pdfrwt beam="2">  1       -1 0.67659585E-01 0.22575392E+04</pdfrwt>
<totfact> 0.14252322E+00</totfact>
</mgrwt>
</event>
<event>
 6    1  0.1111336E-006  0.3046487E+04  0.7818608E-02  0.8230579E-01
          2   -1    0    0  501    0  0.00000000000E+00  0.00000000000E+00  0.12136548559E+04  0.12136548559E+04  0.00000000000E+00 0. -1.
         -2   -1    0    0    0  501 -0.00000000000E+00 -0.00000000000E+00 -0.19118046347E+04  0.19118046347E+04  0.00000000000E+00 0.  1.
         23    2    1    2    0    0  0.21530519959E+03 -0.49664709630E+03 -0.18086494162E+04  0.18900550580E+04  0.89892960989E+02 0.  0.
         11    1    3    3    0    0  0.10921819916E+03 -0.33886694711E+03 -0.10895607809E+04  0.11462556949E+04  0.00000000000E+00 0. -1.
        -11    1    3    3    0    0  0.10608700043E+03 -0.15778014918E+03 -0.71908863535E+03  0.74379936315E+03  0.00000000000E+00 0.  1.
         22    1    1    2    0    0 -0.21530519959E+03  0.49664709630E+03  0.11104996375E+04  0.12354044326E+04  0.00000000000E+00 0. -1.
<mgrwt>
<rscale>  0 0.30464871E+04</rscale>
<asrwt>0</asrwt>
<pdfrwt beam="1">  1        2 0.18671613E+00 0.30464871E+04</pdfrwt>
<pdfrwt beam="2">  1       -2 0.29412379E+00 0.30464871E+04</pdfrwt>
<totfact> 0.54725821E-01</totfact>
</mgrwt>
</event>
<event>
 6    1  0.8968082E-007  0.1009065E+04  0.7818608E-02  0.9298658E-01
          2   -1    0    0  501    0  0.00000000000E+00  0.00000000000E+00  0.64778773767E+03  0.64778773767E+03  0.00000000000E+00 0. -1.
         -2   -1    0    0    0  501 -0.00000000000E+00 -0.00000000000E+00 -0.39295782696E+03  0.39295782696E+03  0.00000000000E+00 0.  1.
         23    2    1    2    0    0  0.20461856928E+03  0.30199620114E+03 -0.22432626781E+03  0.43853205780E+03  0.94433187458E+02 0.  0.
         13    1    3    3    0    0  0.16514687845E+02  0.93024656038E+02 -0.71775747258E+02  0.11865108276E+03  0.00000000000E+00 0. -1.
        -13    1    3    3    0    0  0.18810388144E+03  0.20897154510E+03 -0.15255052055E+03  0.31988097504E+03  0.00000000000E+00 0.  1.
         22    1    1    2    0    0 -0.20461856928E+03 -0.30199620114E+03  0.47915617851E+03  0.60221350683E+03  0.00000000000E+00 0. -1.
<mgrwt>
<rscale>  0 0.10090654E+04</rscale>
<asrwt>0</asrwt>
<pdfrwt beam="1">  1        2 0.99659652E-01 0.10090654E+04</pdfrwt>
<pdfrwt beam="2">  1       -2 0.60455050E-01 0.10090654E+04</pdfrwt>
<totfact> 0.11491237E+02</totfact>
</mgrwt>
</event>
<event>
 6    1  0.8968082E-007  0.1384802E+04  0.7818608E-02  0.8964894E-01
         -1   -1    0    0    0  501 -0.00000000000E+00  0.00000000000E+00  0.10990868251E+04  0.10990868251E+04  0.00000000000E+00 0.  1.
          1   -1    0    0  501    0  0.00000000000E+00 -0.00000000000E+00 -0.43619751882E+03  0.43619751882E+03  0.00000000000E+00 0. -1.
         23    2    1    2    0    0  0.20457283926E+03 -0.13563565584E+03  0.10470216832E+04  0.10794282694E+04  0.93080105552E+02 0.  0.
         11    1    3    3    0    0  0.15857270573E+03 -0.53177816579E+02  0.70964772673E+03  0.72909058370E+03  0.00000000000E+00 0.  1.
        -11    1    3    3    0    0  0.46000133527E+02 -0.82457839259E+02  0.33737395646E+03  0.35033768572E+03  0.00000000000E+00 0. -1.
         22    1    1    2    0    0 -0.20457283926E+03  0.13563565584E+03 -0.38413237689E+03  0.45585607451E+03  0.00000000000E+00 0. -1.
<mgrwt>
<rscale>  0 0.13848017E+04</rscale>
<asrwt>0</asrwt>
<pdfrwt beam="1">  1        1 0.67107311E-01 0.13848017E+04</pdfrwt>
<pdfrwt beam="2">  1       -1 0.16909028E+00 0.13848017E+04</pdfrwt>
<totfact> 0.13028094E+01</totfact>
</mgrwt>
</event>
<event>
 6    1  0.8968082E-007  0.2404212E+04  0.7818608E-02  0.8437928E-01
          2   -1    0    0  501    0  0.00000000000E+00  0.00000000000E+00  0.13732828652E+04  0.13732828652E+04  0.00000000000E+00 0. -1.
         -2   -1    0    0    0  501 -0.00000000000E+00 -0.00000000000E+00 -0.10522656701E+04  0.10522656701E+04  0.00000000000E+00 0.  1.
         23    2    1    2    0    0 -0.32575756712E+03 -0.79657903791E+03 -0.68362521665E+03  0.11026870416E+04  0.88989430284E+02 0.  0.
         13    1    3    3    0    0 -0.19404823654E+03 -0.58007568034E+03 -0.47525988412E+03  0.77460600984E+03  0.00000000000E+00 0.  1.
        -13    1    3    3    0    0 -0.13170933058E+03 -0.21650335757E+03 -0.20836533253E+03  0.32808103176E+03  0.00000000000E+00 0. -1.
         22    1    1    2    0    0  0.32575756712E+03  0.79657903791E+03  0.10046424117E+04  0.13228614937E+04  0.00000000000E+00 0. -1.
<mgrwt>
<rscale>  0 0.24042116E+04</rscale>
<asrwt>0</asrwt>
<pdfrwt beam="1">  1        2 0.21127429E+00 0.24042116E+04</pdfrwt>
<pdfrwt beam="2">  1       -2 0.16188703E+00 0.24042116E+04</pdfrwt>
<totfact> 0.32878786E+00</totfact>
</mgrwt>
</event>
<event>
 6    1  0.8968082E-007  0.2620951E+04  0.7818608E-02  0.8361119E-01
         -2   -1    0    0    0  501 -0.00000000000E+00  0.00000000000E+00  0.45590358974E+03  0.45590358974E+03  0.00000000000E+00 0.  1.
          2   -1    0    0  501    0  0.00000000000E+00 -0.00000000000E+00 -0.37669067946E+04  0.37669067946E+04  0.00000000000E+00 0. -1.
         23    2    1    2    0    0 -0.39938097551E+03 -0.82419572268E+03 -0.31641152059E+04  0.32952437630E+04  0.90568582296E+02 0.  0.
         13    1    3    3    0    0 -0.94974168837E+02 -0.28993619408E+03 -0.10076224056E+04  0.10527991269E+04  0.00000000000E+00 0. -1.
        -13    1    3    3    0    0 -0.30440680667E+03 -0.53425952860E+03 -0.21564928004E+04  0.22424446361E+04  0.00000000000E+00 0.  1.
         22    1    1    2    0    0  0.39938097551E+03  0.82419572268E+03 -0.14688799893E+03  0.92756662139E+03  0.00000000000E+00 0.  1.
<mgrwt>
<rscale>  0 0.26209512E+04</rscale>
<asrwt>0</asrwt>
<pdfrwt beam="1">  1        2 0.57952412E+00 0.26209512E+04</pdfrwt>
<pdfrwt beam="2">  1       -2 0.70139014E-01 0.26209512E+04</pdfrwt>
<totfact> 0.85150718E-01</totfact>
</mgrwt>
</event>
<event>
 6    1  0.8968082E-007  0.1676479E+04  0.7818608E-02  0.8774894E-01
          2   -1    0    0  501    0  0.00000000000E+00  0.00000000000E+00  0.45771218461E+04  0.45771218461E+04  0.00000000000E+00 0. -1.
         -2   -1    0    0    0  501 -0.00000000000E+00 -0.00000000000E+00 -0.15351244503E+03  0.15351244503E+03  0.00000000000E+00 0.  1.
         23    2    1    2    0    0 -0.64093362188E+03  0.52881285188E+03  0.19842555367E+04  0.21536425924E+04  0.10231051115E+03 0.  0.
         11    1    3    3    0    0 -0.45911193745E+03  0.43319200638E+03  0.15299432844E+04  0.16550424584E+04  0.00000000000E+00 0. -1.
        -11    1    3    3    0    0 -0.18182168443E+03  0.95620845502E+02  0.45431225226E+03  0.49860013395E+03  0.00000000000E+00 0.  1.
         22    1    1    2    0    0  0.64093362188E+03 -0.52881285188E+03  0.24393538644E+04  0.25769916988E+04  0.00000000000E+00 0. -1.
<mgrwt>
<rscale>  0 0.16764786E+04</rscale>
<asrwt>0</asrwt>
<pdfrwt beam="1">  1        2 0.70417249E+00 0.16764786E+04</pdfrwt>
<pdfrwt beam="2">  1       -2 0.23617303E-01 0.16764786E+04</pdfrwt>
<totfact> 0.16092177E+00</totfact>
</mgrwt>
</event>
<event>
 6    1  0.8968082E-007  0.1186624E+04  0.7818608E-02  0.9124646E-01
         -1   -1    0    0    0  501 -0.00000000000E+00  0.00000000000E+00  0.10471825761E+04  0.10471825761E+04  0.00000000000E+00 0.  1.
          1   -1    0    0  501    0  0.00000000000E+00 -0.00000000000E+00 -0.33615816736E+03  0.33615816736E+03  0.00000000000E+00 0. -1.
         23    2    1    2    0    0 -0.24144219996E+03 -0.35132846000E+03  0.83299344139E+03  0.93994197526E+03  0.88807774007E+02 0.  0.
         11    1    3    3    0    0 -0.96440329425E+02 -0.12326095229E+03  0.39998979143E+03  0.42951814019E+03  0.00000000000E+00 0. -1.
        -11    1    3    3    0    0 -0.14500187054E+03 -0.22806750771E+03  0.43300364996E+03  0.51042383507E+03  0.00000000000E+00 0.  1.
         22    1    1    2    0    0  0.24144219996E+03  0.35132846000E+03 -0.12196903264E+03  0.44339876821E+03  0.00000000000E+00 0. -1.
<mgrwt>
<rscale>  0 0.11866237E+04</rscale>
<asrwt>0</asrwt>
<pdfrwt beam="1">  1        1 0.51716641E-01 0.11866237E+04</pdfrwt>
<pdfrwt beam="2">  1       -1 0.16110501E+00 0.11866237E+04</pdfrwt>
<totfact> 0.21448960E+01</totfact>
</mgrwt>
</event>
<event>
 6    1  0.8968082E-007  0.4002370E+04  0.7818608E-02  0.8004069E-01
          2   -1    0    0  501    0  0.00000000000E+00  0.00000000000E+00  0.26062653470E+04  0.26062653470E+04  0.00000000000E+00 0. -1.
         -2   -1    0    0    0  501 -0.00000000000E+00 -0.00000000000E+00 -0.15365820545E+04  0.15365820545E+04  0.00000000000E+00 0.  1.
         23    2    1    2    0    0 -0.14510865801E+03 -0.15080641686E+04  0.18867601653E+04  0.24215314295E+04  0.92932681773E+02 0.  0.
         11    1    3    3    0    0 -0.57941659234E+02 -0.10346717807E+04  0.12684658369E+04  0.16379586408E+04  0.00000000000E+00 0. -1.
        -11    1    3    3    0    0 -0.87166998778E+02 -0.47339238796E+03  0.61829432837E+03  0.78357278867E+03  0.00000000000E+00 0.  1.
         22    1    1    2    0    0  0.14510865801E+03  0.15080641686E+04 -0.81707687282E+03  0.17213159720E+04  0.00000000000E+00 0.  1.
<mgrwt>
<rscale>  0 0.40023696E+04</rscale>
<asrwt>0</asrwt>
<pdfrwt beam="1">  1        2 0.40096390E+00 0.40023696E+04</pdfrwt>
<pdfrwt beam="2">  1       -2 0.23639724E+00 0.40023696E+04</pdfrwt>
<totfact> 0.18560347E-01</totfact>
</mgrwt>
</event>
<event>
 6    1  0.8968082E-007  0.3765397E+04  0.7818608E-02  0.8053622E-01
         -2   -1    0    0    0  501 -0.00000000000E+00  0.00000000000E+00  0.18020119526E+04  0.18020119526E+04  0.00000000000E+00 0.  1.
          2   -1    0    0  501    0  0.00000000000E+00 -0.00000000000E+00 -0.19669981125E+04  0.19669981125E+04  0.00000000000E+00 0. -1.
         23    2    1    2    0    0 -0.15349447523E+04  0.93668508924E+03  0.47185042309E+03  0.18613950143E+04  0.93350032324E+02 0.  0.
         11    1    3    3    0    0 -0.27566128384E+03  0.18075903316E+03  0.51166169092E+02  0.33358799190E+03  0.00000000000E+00 0.  1.
        -11    1    3    3    0    0 -0.12592834684E+04  0.75592605608E+03  0.42068425400E+03  0.15278070224E+04  0.00000000000E+00 0. -1.
         22    1    1    2    0    0  0.15349447523E+04 -0.93668508924E+03 -0.63683658301E+03  0.19076150509E+04  0.00000000000E+00 0.  1.
<mgrwt>
<rscale>  0 0.37653972E+04</rscale>
<asrwt>0</asrwt>
<pdfrwt beam="1">  1        2 0.30261509E+00 0.37653972E+04</pdfrwt>
<pdfrwt beam="2">  1       -2 0.27723261E+00 0.37653972E+04</pdfrwt>
<totfact> 0.24537644E-01</totfact>
</mgrwt>
</event>
<event>
 6    1  0.8968082E-007  0.2184340E+04  0.7818608E-02  0.8524974E-01
         -2   -1    0    0    0  501 -0.00000000000E+00  0.00000000000E+00  0.71441549712E+03  0.71441549712E+03  0.00000000000E+00 0.  1.
          2   -1    0    0  501    0  0.00000000000E+00 -0.00000000000E+00 -0.16696664142E+04  0.16696664142E+04  0.00000000000E+00 0. -1.
         23    2    1    2    0    0  0.10219535716E+04 -0.14449709592E+03 -0.94327363632E+02  0.10400365705E+04  0.86659697519E+02 0.  0.
         13    1    3    3    0    0  0.25705451003E+03 -0.71658003217E+02 -0.38964809556E+02  0.26968527385E+03  0.00000000000E+00 0. -1.
        -13    1    3    3    0    0  0.76489906159E+03 -0.72839092706E+02 -0.55362554076E+02  0.77035129665E+03  0.00000000000E+00 0.  1.
         22    1    1    2    0    0 -0.10219535716E+04  0.14449709592E+03 -0.86092355340E+03  0.13440453408E+04  0.00000000000E+00 0. -1.
<mgrwt>
<rscale>  0 0.21843402E+04</rscale>
<asrwt>0</asrwt>
<pdfrwt beam="1">  1        2 0.25687176E+00 0.21843402E+04</pdfrwt>
<pdfrwt beam="2">  1       -2 0.10991008E+00 0.21843402E+04</pdfrwt>
<totfact> 0.61437324E+00</totfact>
</mgrwt>
</event>
<event>
 6    1  0.8968082E-007  0.1966660E+04  0.7818608E-02  0.8622369E-01
          1   -1    0    0  501    0  0.00000000000E+00  0.00000000000E+00  0.20612449907E+04  0.20612449907E+04  0.00000000000E+00 0. -1.
         -1   -1    0    0    0  501 -0.00000000000E+00 -0.00000000000E+00 -0.46910391135E+03  0.46910391135E+03  0.00000000000E+00 0.  1.
         23    2    1    2    0    0  0.14080798356E+03 -0.41027774197E+03 -0.33451593394E+03  0.55546613067E+03  0.92124906922E+02 0.  0.
         13    1    3    3    0    0  0.50371643110E+02 -0.10139809717E+03 -0.42646886278E+02  0.12098608783E+03  0.00000000000E+00 0. -1.
        -13    1    3    3    0    0  0.90436340455E+02 -0.30887964480E+03 -0.29186904766E+03  0.43448004284E+03  0.00000000000E+00 0.  1.
         22    1    1    2    0    0 -0.14080798356E+03  0.41027774197E+03  0.19266570133E+04  0.19748827714E+04  0.00000000000E+00 0. -1.
<mgrwt>
<rscale>  0 0.19666602E+04</rscale>
<asrwt>0</asrwt>
<pdfrwt beam="1">  1        1 0.31711461E+00 0.19666602E+04</pdfrwt>
<pdfrwt beam="2">  1       -1 0.72169834E-01 0.19666602E+04</pdfrwt>
<totfact> 0.48798580E+00</totfact>
</mgrwt>
</event>
<event>
 6    1  0.8968082E-007  0.2430621E+04  0.7818608E-02  0.8428128E-01
         -1   -1    0    0    0  501 -0.00000000000E+00  0.00000000000E+00  0.90684540954E+03  0.90684540954E+03  0.00000000000E+00 0.  1.
          1   -1    0    0  501    0  0.00000000000E+00 -0.00000000000E+00 -0.16287010969E+04  0.16287010969E+04  0.00000000000E+00 0. -1.
         23    2    1    2    0    0 -0.23625912851E+03  0.79522712962E+03  0.56241204861E+03  0.10066422645E+04  0.93897671416E+02 0.  0.
         13    1    3    3    0    0 -0.97627443380E+02  0.37772058928E+03  0.31846470900E+03  0.50361069503E+03  0.00000000000E+00 0. -1.
        -13    1    3    3    0    0 -0.13863168513E+03  0.41750654034E+03  0.24394733961E+03  0.50303156944E+03  0.00000000000E+00 0.  1.
         22    1    1    2    0    0  0.23625912851E+03 -0.79522712962E+03 -0.12842677360E+04  0.15289042420E+04  0.00000000000E+00 0. -1.
<mgrwt>
<rscale>  0 0.24306214E+04</rscale>
<asrwt>0</asrwt>
<pdfrwt beam="1">  1        1 0.25056940E+00 0.24306214E+04</pdfrwt>
<pdfrwt beam="2">  1       -1 0.13951468E+00 0.24306214E+04</pdfrwt>
<totfact> 0.20159527E+00</totfact>
</mgrwt>
</event>
<event>
 6    1  0.8968082E-007  0.1852449E+04  0.7818608E-02  0.8678894E-01
          2   -1    0    0  501    0  0.00000000000E+00  0.00000000000E+00  0.15526212544E+04  0.15526212544E+04  0.00000000000E+00 0. -1.
         -2   -1    0    0    0  501 -0.00000000000E+00 -0.00000000000E+00 -0.55254442244E+03  0.55254442244E+03  0.00000000000E+00 0.  1.
         23    2    1    2    0    0  0.26859925990E+03  0.86042462693E+03  0.27029403110E+03  0.94539887379E+03  0.90796840653E+02 0.  0.
         13    1    3    3    0    0  0.11309592094E+03  0.27806432083E+03  0.12631301135E+03  0.32567688080E+03  0.00000000000E+00 0. -1.
        -13    1    3    3    0    0  0.15550333896E+03  0.58236030610E+03  0.14398101975E+03  0.61972199299E+03  0.00000000000E+00 0.  1.
         22    1    1    2    0    0 -0.26859925990E+03 -0.86042462693E+03  0.72978280087E+03  0.11597668031E+04  0.00000000000E+00 0. -1.
<mgrwt>
<rscale>  0 0.18524494E+04</rscale>
<asrwt>0</asrwt>
<pdfrwt beam="1">  1        2 0.23886481E+00 0.18524494E+04</pdfrwt>
<pdfrwt beam="2">  1       -2 0.85006834E-01 0.18524494E+04</pdfrwt>
<totfact> 0.13427362E+01</totfact>
</mgrwt>
</event>
<event>
 6    1  0.8968082E-007  0.8307166E+04  0.7818608E-02  0.7455851E-01
         -2   -1    0    0    0  501 -0.00000000000E+00  0.00000000000E+00  0.50105064034E+04  0.50105064034E+04  0.00000000000E+00 0.  1.
          2   -1    0    0  501    0  0.00000000000E+00 -0.00000000000E+00 -0.34432148711E+04  0.34432148711E+04  0.00000000000E+00 0. -1.
         23    2    1    2    0    0 -0.37773198156E+04 -0.11980254378E+04 -0.48097215694E+03  0.39929148362E+04  0.92869449058E+02 0.  0.
         11    1    3    3    0    0 -0.87605772204E+03 -0.27931319226E+03 -0.72203918065E+02  0.92233746400E+03  0.00000000000E+00 0.  1.
        -11    1    3    3    0    0 -0.29012620935E+04 -0.91871224558E+03 -0.40876823888E+03  0.30705773722E+04  0.00000000000E+00 0. -1.
         22    1    1    2    0    0  0.37773198156E+04  0.11980254378E+04  0.20482636893E+04  0.44608064383E+04  0.00000000000E+00 0.  1.
<mgrwt>
<rscale>  0 0.83071656E+04</rscale>
<asrwt>0</asrwt>
<pdfrwt beam="1">  1        2 0.52972537E+00 0.83071656E+04</pdfrwt>
<pdfrwt beam="2">  1       -2 0.77084714E+00 0.83071656E+04</pdfrwt>
<totfact> 0.58422641E-05</totfact>
</mgrwt>
</event>
<event>
 6    1  0.8968082E-007  0.1693398E+04  0.7818608E-02  0.8765138E-01
          1   -1    0    0  501    0  0.00000000000E+00  0.00000000000E+00  0.13788046689E+04  0.13788046689E+04  0.00000000000E+00 0. -1.
         -1   -1    0    0    0  501 -0.00000000000E+00 -0.00000000000E+00 -0.51994282908E+03  0.51994282908E+03  0.00000000000E+00 0.  1.
         23    2    1    2    0    0 -0.17802307043E+03  0.13402348956E+03  0.13437218555E+04  0.13651336449E+04  0.91361557826E+02 0.  0.
         11    1    3    3    0    0 -0.18617619562E+03  0.13791924248E+03  0.13003367866E+04  0.13208175694E+04  0.00000000000E+00 0. -1.
        -11    1    3    3    0    0  0.81531251861E+01 -0.38957529165E+01  0.43385068907E+02  0.44316075471E+02  0.00000000000E+00 0.  1.
         22    1    1    2    0    0  0.17802307043E+03 -0.13402348956E+03 -0.48486001568E+03  0.53361385304E+03  0.00000000000E+00 0.  1.
<mgrwt>
<rscale>  0 0.16933985E+04</rscale>
<asrwt>0</asrwt>
<pdfrwt beam="1">  1        1 0.21212379E+00 0.16933985E+04</pdfrwt>
<pdfrwt beam="2">  1       -1 0.79991205E-01 0.16933985E+04</pdfrwt>
<totfact> 0.11812754E+01</totfact>
</mgrwt>
</event>
<event>
 6    1  0.8968082E-007  0.1520358E+04  0.7818608E-02  0.8871027E-01
         -2   -1    0    0    0  501 -0.00000000000E+00  0.00000000000E+00  0.39243356651E+03  0.39243356651E+03  0.00000000000E+00 0.  1.
          2   -1    0    0  501    0  0.00000000000E+00 -0.00000000000E+00 -0.14725347238E+04  0.14725347238E+04  0.00000000000E+00 0. -1.
         23    2    1    2    0    0  0.65554376013E+03  0.29245389303E+03 -0.24534675485E+03  0.76402241815E+03  0.90930326773E+02 0.  0.
         13    1    3    3    0    0  0.19174242161E+03  0.68435723953E+02 -0.11027915410E+03  0.23153854190E+03  0.00000000000E+00 0.  1.
        -13    1    3    3    0    0  0.46380133853E+03  0.22401816908E+03 -0.13506760075E+03  0.53248387625E+03  0.00000000000E+00 0. -1.
         22    1    1    2    0    0 -0.65554376013E+03 -0.29245389303E+03 -0.83475440241E+03  0.11009458721E+04  0.00000000000E+00 0.  1.
<mgrwt>
<rscale>  0 0.15203579E+04</rscale>
<asrwt>0</asrwt>
<pdfrwt beam="1">  1        2 0.22654381E+00 0.15203579E+04</pdfrwt>
<pdfrwt beam="2">  1       -2 0.60374394E-01 0.15203579E+04</pdfrwt>
<totfact> 0.32438177E+01</totfact>
</mgrwt>
</event>
<event>
 6    1  0.8968082E-007  0.2821542E+04  0.7818608E-02  0.8296612E-01
         -2   -1    0    0    0  501 -0.00000000000E+00  0.00000000000E+00  0.62198925967E+03  0.62198925967E+03  0.00000000000E+00 0.  1.
          2   -1    0    0  501    0  0.00000000000E+00 -0.00000000000E+00 -0.31998535544E+04  0.31998535544E+04  0.00000000000E+00 0. -1.
         23    2    1    2    0    0 -0.11060291585E+04 -0.85138743099E+02 -0.24676698665E+04  0.27070818904E+04  0.91371143106E+02 0.  0.
         13    1    3    3    0    0 -0.65748133008E+03 -0.47251506822E+02 -0.13559402047E+04  0.15076764384E+04  0.00000000000E+00 0.  1.
        -13    1    3    3    0    0 -0.44854782842E+03 -0.37887236277E+02 -0.11117296619E+04  0.11994054519E+04  0.00000000000E+00 0. -1.
         22    1    1    2    0    0  0.11060291585E+04  0.85138743099E+02 -0.11019442819E+03  0.11147609237E+04  0.00000000000E+00 0. -1.
<mgrwt>
<rscale>  0 0.28215418E+04</rscale>
<asrwt>0</asrwt>
<pdfrwt beam="1">  1        2 0.49228518E+00 0.28215418E+04</pdfrwt>
<pdfrwt beam="2">  1       -2 0.95690652E-01 0.28215418E+04</pdfrwt>
<totfact> 0.10319557E+00</totfact>
</mgrwt>
</event>
<event>
 6    1  0.8968082E-007  0.3322279E+04  0.7818608E-02  0.8157250E-01
         -1   -1    0    0    0  501 -0.00000000000E+00  0.00000000000E+00  0.25074657259E+04  0.25074657259E+04  0.00000000000E+00 0.  1.
          1   -1    0    0  501    0  0.00000000000E+00 -0.00000000000E+00 -0.11004672372E+04  0.11004672372E+04  0.00000000000E+00 0. -1.
         23    2    1    2    0    0  0.19423470805E+02 -0.10452621408E+04 -0.69608246963E+03  0.12593376954E+04  0.91926125148E+02 0.  0.
         13    1    3    3    0    0 -0.28065689860E+02 -0.19238974636E+03 -0.10963628683E+03  0.22320755552E+03  0.00000000000E+00 0. -1.
        -13    1    3    3    0    0  0.47489160665E+02 -0.85287239440E+03 -0.58644618280E+03  0.10361301399E+04  0.00000000000E+00 0.  1.
         22    1    1    2    0    0 -0.19423470805E+02  0.10452621408E+04  0.21030809583E+04  0.23485952677E+04  0.00000000000E+00 0.  1.
<mgrwt>
<rscale>  0 0.33222787E+04</rscale>
<asrwt>0</asrwt>
<pdfrwt beam="1">  1        1 0.16930265E+00 0.33222787E+04</pdfrwt>
<pdfrwt beam="2">  1       -1 0.38576396E+00 0.33222787E+04</pdfrwt>
<totfact> 0.93746513E-02</totfact>
</mgrwt>
</event>
<event>
 6    1  0.8968082E-007  0.3762441E+04  0.7818608E-02  0.8054263E-01
          2   -1    0    0  501    0  0.00000000000E+00  0.00000000000E+00  0.15653440125E+04  0.15653440125E+04  0.00000000000E+00 0. -1.
         -2   -1    0    0    0  501 -0.00000000000E+00 -0.00000000000E+00 -0.22608387309E+04  0.22608387309E+04  0.00000000000E+00 0.  1.
         23    2    1    2    0    0 -0.41719129728E+03  0.13775613556E+04 -0.15779548331E+04  0.21378522897E+04  0.93525882379E+02 0.  0.
         13    1    3    3    0    0 -0.17486597253E+03  0.67321666528E+03 -0.70632825287E+03  0.99131144832E+03  0.00000000000E+00 0. -1.
        -13    1    3    3    0    0 -0.24232532475E+03  0.70434469027E+03 -0.87162658018E+03  0.11465408414E+04  0.00000000000E+00 0.  1.
         22    1    1    2    0    0  0.41719129728E+03 -0.13775613556E+04  0.88246011466E+03  0.16883304537E+04  0.00000000000E+00 0. -1.
<mgrwt>
<rscale>  0 0.37624409E+04</rscale>
<asrwt>0</asrwt>
<pdfrwt beam="1">  1        2 0.24082216E+00 0.37624409E+04</pdfrwt>
<pdfrwt beam="2">  1       -2 0.34782134E+00 0.37624409E+04</pdfrwt>
<totfact> 0.15056712E-01</totfact>
</mgrwt>
</event>
<event>
 6    1  0.8968082E-007  0.3194997E+04  0.7818608E-02  0.8190140E-01
          2   -1    0    0  501    0  0.00000000000E+00  0.00000000000E+00  0.30768786299E+04  0.30768786299E+04  0.00000000000E+00 0. -1.
         -2   -1    0    0    0  501 -0.00000000000E+00 -0.00000000000E+00 -0.82941270217E+03  0.82941270217E+03  0.00000000000E+00 0.  1.
         23    2    1    2    0    0 -0.89856970258E+01 -0.14193870267E+04  0.23164663631E+03  0.14408770282E+04  0.87898645535E+02 0.  0.
         11    1    3    3    0    0 -0.25822152439E+02 -0.36005336625E+03  0.28428527996E+02  0.36209583167E+03  0.00000000000E+00 0. -1.
        -11    1    3    3    0    0  0.16836455413E+02 -0.10593336604E+04  0.20321810832E+03  0.10787811965E+04  0.00000000000E+00 0.  1.
         22    1    1    2    0    0  0.89856970258E+01  0.14193870267E+04  0.20158192914E+04  0.24654143039E+04  0.00000000000E+00 0. -1.
<mgrwt>
<rscale>  0 0.31949975E+04</rscale>
<asrwt>0</asrwt>
<pdfrwt beam="1">  1        2 0.47336594E+00 0.31949975E+04</pdfrwt>
<pdfrwt beam="2">  1       -2 0.12760196E+00 0.31949975E+04</pdfrwt>
<totfact> 0.59657770E-01</totfact>
</mgrwt>
</event>
<event>
 6    1  0.8968082E-007  0.2508045E+04  0.7818608E-02  0.8400125E-01
         -1   -1    0    0    0  501 -0.00000000000E+00  0.00000000000E+00  0.96243009924E+03  0.96243009924E+03  0.00000000000E+00 0.  1.
          1   -1    0    0  501    0  0.00000000000E+00 -0.00000000000E+00 -0.16339601779E+04  0.16339601779E+04  0.00000000000E+00 0. -1.
         23    2    1    2    0    0  0.60090688778E+02 -0.85878437740E+03  0.60555903330E+03  0.10562350585E+04  0.88370006985E+02 0.  0.
         11    1    3    3    0    0  0.80771578278E+02 -0.54788996475E+03  0.38458265009E+03  0.67424867525E+03  0.00000000000E+00 0.  1.
        -11    1    3    3    0    0 -0.20680889500E+02 -0.31089441266E+03  0.22097638321E+03  0.38198638320E+03  0.00000000000E+00 0. -1.
         22    1    1    2    0    0 -0.60090688778E+02  0.85878437740E+03 -0.12770891120E+04  0.15401552187E+04  0.00000000000E+00 0. -1.
<mgrwt>
<rscale>  0 0.25080450E+04</rscale>
<asrwt>0</asrwt>
<pdfrwt beam="1">  1        1 0.25137849E+00 0.25080450E+04</pdfrwt>
<pdfrwt beam="2">  1       -1 0.14806617E+00 0.25080450E+04</pdfrwt>
<totfact> 0.16963523E+00</totfact>
</mgrwt>
</event>
<event>
 6    1  0.8968082E-007  0.5487520E+04  0.7818608E-02  0.7757409E-01
          2   -1    0    0  501    0  0.00000000000E+00  0.00000000000E+00  0.28031488832E+04  0.28031488832E+04  0.00000000000E+00 0. -1.
         -2   -1    0    0    0  501 -0.00000000000E+00 -0.00000000000E+00 -0.26856295283E+04  0.26856295283E+04  0.00000000000E+00 0.  1.
         23    2    1    2    0    0 -0.92150311051E+03  0.20902871850E+04 -0.14600620638E+04  0.27125882827E+04  0.88800129002E+02 0.  0.
         11    1    3    3    0    0 -0.65556771353E+03  0.14152410121E+04 -0.10312920419E+04  0.18698233673E+04  0.00000000000E+00 0. -1.
        -11    1    3    3    0    0 -0.26593539698E+03  0.67504617289E+03 -0.42877002197E+03  0.84276491541E+03  0.00000000000E+00 0.  1.
         22    1    1    2    0    0  0.92150311051E+03 -0.20902871850E+04  0.15775814187E+04  0.27761901288E+04  0.00000000000E+00 0. -1.
<mgrwt>
<rscale>  0 0.54875202E+04</rscale>
<asrwt>0</asrwt>
<pdfrwt beam="1">  1        2 0.43125368E+00 0.54875202E+04</pdfrwt>
<pdfrwt beam="2">  1       -2 0.41317377E+00 0.54875202E+04</pdfrwt>
<totfact> 0.98224897E-03</totfact>
</mgrwt>
</event>
<event>
 6    1  0.9699611E-007  0.2104092E+04  0.7818608E-02  0.8559443E-01
          1   -1    0    0  501    0  0.00000000000E+00  0.00000000000E+00  0.22282429893E+04  0.22282429893E+04  0.00000000000E+00 0. -1.
         -1   -1    0    0    0  501 -0.00000000000E+00 -0.00000000000E+00 -0.49671444024E+03  0.49671444024E+03  0.00000000000E+00 0.  1.
         23    2    1    2    0    0 -0.23032279430E+03  0.53039597331E+03  0.20025643979E+04  0.20863425930E+04  0.90513918308E+02 0.  0.
         13    1    3    3    0    0 -0.11398385086E+03  0.36374171543E+03  0.12513949466E+04  0.13081627063E+04  0.00000000000E+00 0.  1.
        -13    1    3    3    0    0 -0.11633894344E+03  0.16665425788E+03  0.75116945129E+03  0.77817988665E+03  0.00000000000E+00 0. -1.
         22    1    1    2    0    0  0.23032279430E+03 -0.53039597331E+03 -0.27103584887E+03  0.63861483654E+03  0.00000000000E+00 0.  1.
<mgrwt>
<rscale>  0 0.21040917E+04</rscale>
<asrwt>0</asrwt>
<pdfrwt beam="1">  1        1 0.34280661E+00 0.21040917E+04</pdfrwt>
<pdfrwt beam="2">  1       -1 0.76417607E-01 0.21040917E+04</pdfrwt>
<totfact> 0.32931418E+00</totfact>
</mgrwt>
</event>
<event>
 6    1  0.8968082E-007  0.4873452E+03  0.7818608E-02  0.1017136E+00
          2   -1    0    0  501    0  0.00000000000E+00  0.00000000000E+00  0.17752801834E+04  0.17752801834E+04  0.00000000000E+00 0. -1.
         -2   -1    0    0    0  501 -0.00000000000E+00 -0.00000000000E+00 -0.33446180426E+02  0.33446180426E+02  0.00000000000E+00 0.  1.
         23    2    1    2    0    0  0.16293951931E+03 -0.13456987242E+03  0.12819514722E+04  0.13026134519E+04  0.93508772135E+02 0.  0.
         11    1    3    3    0    0  0.94646514985E+02 -0.10836558016E+03  0.61222542690E+03  0.62890463117E+03  0.00000000000E+00 0.  1.
        -11    1    3    3    0    0  0.68293004322E+02 -0.26204292260E+02  0.66972604526E+03  0.67370882069E+03  0.00000000000E+00 0. -1.
         22    1    1    2    0    0 -0.16293951931E+03  0.13456987242E+03  0.45988253079E+03  0.50611291195E+03  0.00000000000E+00 0.  1.
<mgrwt>
<rscale>  0 0.48734522E+03</rscale>
<asrwt>0</asrwt>
<pdfrwt beam="1">  1        2 0.27311995E+00 0.48734522E+03</pdfrwt>
<pdfrwt beam="2">  1       -2 0.51455676E-02 0.48734522E+03</pdfrwt>
<totfact> 0.18085173E+03</totfact>
</mgrwt>
</event>
<event>
 6    1  0.8968082E-007  0.6349565E+03  0.7818608E-02  0.9835424E-01
          2   -1    0    0  501    0  0.00000000000E+00  0.00000000000E+00  0.13191024156E+04  0.13191024156E+04  0.00000000000E+00 0. -1.
         -2   -1    0    0    0  501 -0.00000000000E+00 -0.00000000000E+00 -0.76409866202E+02  0.76409866202E+02  0.00000000000E+00 0.  1.
         23    2    1    2    0    0 -0.16589205494E+03 -0.25433358437E+03  0.78020878144E+03  0.84225196183E+03  0.91961288284E+02 0.  0.
         11    1    3    3    0    0 -0.13812381607E+03 -0.15377020899E+03  0.43476293635E+03  0.48139617423E+03  0.00000000000E+00 0.  1.
        -11    1    3    3    0    0 -0.27768238876E+02 -0.10056337538E+03  0.34544584509E+03  0.36085578760E+03  0.00000000000E+00 0. -1.
         22    1    1    2    0    0  0.16589205494E+03  0.25433358437E+03  0.46248376797E+03  0.55326031998E+03  0.00000000000E+00 0.  1.
<mgrwt>
<rscale>  0 0.63495650E+03</rscale>
<asrwt>0</asrwt>
<pdfrwt beam="1">  1        2 0.20293882E+00 0.63495650E+03</pdfrwt>
<pdfrwt beam="2">  1       -2 0.11755365E-01 0.63495650E+03</pdfrwt>
<totfact> 0.85993993E+02</totfact>
</mgrwt>
</event>
<event>
 6    1  0.8968082E-007  0.1420210E+04  0.7818608E-02  0.8939318E-01
         -1   -1    0    0    0  501 -0.00000000000E+00  0.00000000000E+00  0.23693881794E+03  0.23693881794E+03  0.00000000000E+00 0.  1.
          1   -1    0    0  501    0  0.00000000000E+00 -0.00000000000E+00 -0.21281841358E+04  0.21281841358E+04  0.00000000000E+00 0. -1.
         23    2    1    2    0    0  0.34215567133E+03 -0.37227124492E+03 -0.17728897770E+04  0.18458307265E+04  0.91085270509E+02 0.  0.
         13    1    3    3    0    0  0.19853070338E+03 -0.17735414298E+03 -0.79385008316E+03  0.83729737056E+03  0.00000000000E+00 0.  1.
        -13    1    3    3    0    0  0.14362496796E+03 -0.19491710194E+03 -0.97903969381E+03  0.10085333560E+04  0.00000000000E+00 0. -1.
         22    1    1    2    0    0 -0.34215567133E+03  0.37227124492E+03 -0.11835554094E+03  0.51929222726E+03  0.00000000000E+00 0.  1.
<mgrwt>
<rscale>  0 0.14202105E+04</rscale>
<asrwt>0</asrwt>
<pdfrwt beam="1">  1        1 0.32741294E+00 0.14202105E+04</pdfrwt>
<pdfrwt beam="2">  1       -1 0.36452126E-01 0.14202105E+04</pdfrwt>
<totfact> 0.17143052E+01</totfact>
</mgrwt>
</event>
<event>
 6    1  0.8968082E-007  0.2548700E+04  0.7818608E-02  0.8385838E-01
         -2   -1    0    0    0  501 -0.00000000000E+00  0.00000000000E+00  0.89456410197E+03  0.89456410197E+03  0.00000000000E+00 0.  1.
          2   -1    0    0  501    0  0.00000000000E+00 -0.00000000000E+00 -0.18153741356E+04  0.18153741356E+04  0.00000000000E+00 0. -1.
         23    2    1    2    0    0 -0.65588580274E+03  0.89775313078E+03  0.19798693916E+03  0.11326451334E+04  0.86829143273E+02 0.  0.
         11    1    3    3    0    0 -0.38239962436E+03  0.48635064643E+03  0.14780745492E+03  0.63609234214E+03  0.00000000000E+00 0. -1.
        -11    1    3    3    0    0 -0.27348617838E+03  0.41140248435E+03  0.50179484238E+02  0.49655279128E+03  0.00000000000E+00 0.  1.
         22    1    1    2    0    0  0.65588580274E+03 -0.89775313078E+03 -0.11187969728E+04  0.15772931041E+04  0.00000000000E+00 0.  1.
<mgrwt>
<rscale>  0 0.25487005E+04</rscale>
<asrwt>0</asrwt>
<pdfrwt beam="1">  1        2 0.27928833E+00 0.25487005E+04</pdfrwt>
<pdfrwt beam="2">  1       -2 0.13762525E+00 0.25487005E+04</pdfrwt>
<totfact> 0.28222656E+00</totfact>
</mgrwt>
</event>
<event>
 6    1  0.8968082E-007  0.2242067E+04  0.7818608E-02  0.8501120E-01
          2   -1    0    0  501    0  0.00000000000E+00  0.00000000000E+00  0.19389117224E+04  0.19389117224E+04  0.00000000000E+00 0. -1.
         -2   -1    0    0    0  501 -0.00000000000E+00 -0.00000000000E+00 -0.64815523650E+03  0.64815523650E+03  0.00000000000E+00 0.  1.
         23    2    1    2    0    0  0.76604965550E+02  0.10002669927E+04  0.78796835761E+02  0.10137746876E+04  0.12299511514E+03 0.  0.
         13    1    3    3    0    0  0.95652541701E+02  0.46655905680E+03  0.51324092786E+02  0.47902079779E+03  0.00000000000E+00 0. -1.
        -13    1    3    3    0    0 -0.19047576152E+02  0.53370793593E+03  0.27472742975E+02  0.53475388979E+03  0.00000000000E+00 0.  1.
         22    1    1    2    0    0 -0.76604965550E+02 -0.10002669927E+04  0.12119596501E+04  0.15732922713E+04  0.00000000000E+00 0. -1.
<mgrwt>
<rscale>  0 0.22420667E+04</rscale>
<asrwt>0</asrwt>
<pdfrwt beam="1">  1        2 0.29829411E+00 0.22420667E+04</pdfrwt>
<pdfrwt beam="2">  1       -2 0.99716191E-01 0.22420667E+04</pdfrwt>
<totfact> 0.54725533E+00</totfact>
</mgrwt>
</event>
<event>
 6    1  0.8968082E-007  0.1893360E+04  0.7818608E-02  0.8658169E-01
         -2   -1    0    0    0  501 -0.00000000000E+00  0.00000000000E+00  0.86520658521E+03  0.86520658521E+03  0.00000000000E+00 0.  1.
          2   -1    0    0  501    0  0.00000000000E+00 -0.00000000000E+00 -0.10358254493E+04  0.10358254493E+04  0.00000000000E+00 0. -1.
         23    2    1    2    0    0  0.96842046730E+02 -0.11050109202E+03 -0.10222955502E+04  0.10367739416E+04  0.90681534560E+02 0.  0.
         11    1    3    3    0    0  0.91352493826E+02 -0.89195355285E+02 -0.57797242887E+03  0.59190642679E+03  0.00000000000E+00 0.  1.
        -11    1    3    3    0    0  0.54895529036E+01 -0.21305736734E+02 -0.44432312132E+03  0.44486751482E+03  0.00000000000E+00 0. -1.
         22    1    1    2    0    0 -0.96842046730E+02  0.11050109202E+03  0.85167668614E+03  0.86425809286E+03  0.00000000000E+00 0.  1.
<mgrwt>
<rscale>  0 0.18933600E+04</rscale>
<asrwt>0</asrwt>
<pdfrwt beam="1">  1        2 0.15935776E+00 0.18933600E+04</pdfrwt>
<pdfrwt beam="2">  1       -2 0.13310871E+00 0.18933600E+04</pdfrwt>
<totfact> 0.91581731E+00</totfact>
</mgrwt>
</event>
<event>
 6    1  0.8968082E-007  0.2082749E+04  0.7818608E-02  0.8568881E-01
         -2   -1    0    0    0  501 -0.00000000000E+00  0.00000000000E+00  0.31953302150E+03  0.31953302150E+03  0.00000000000E+00 0.  1.
          2   -1    0    0  501    0  0.00000000000E+00 -0.00000000000E+00 -0.33938927776E+04  0.33938927776E+04  0.00000000000E+00 0. -1.
         23    2    1    2    0    0  0.41035838318E+03 -0.62284458155E+02 -0.32391563335E+04  0.32668485176E+04  0.88837649869E+02 0.  0.
         11    1    3    3    0    0  0.29547338563E+03 -0.51128033671E+02 -0.20039903823E+04  0.20263010758E+04  0.00000000000E+00 0. -1.
        -11    1    3    3    0    0  0.11488499755E+03 -0.11156424484E+02 -0.12351659512E+04  0.12405474419E+04  0.00000000000E+00 0.  1.
         22    1    1    2    0    0 -0.41035838318E+03  0.62284458155E+02  0.16479657741E+03  0.44657728144E+03  0.00000000000E+00 0.  1.
<mgrwt>
<rscale>  0 0.20827490E+04</rscale>
<asrwt>0</asrwt>
<pdfrwt beam="1">  1        2 0.52213741E+00 0.20827490E+04</pdfrwt>
<pdfrwt beam="2">  1       -2 0.49158921E-01 0.20827490E+04</pdfrwt>
<totfact> 0.34940003E+00</totfact>
</mgrwt>
</event>
<event>
 6    1  0.8968082E-007  0.1677825E+04  0.7818608E-02  0.8774114E-01
          2   -1    0    0  501    0  0.00000000000E+00  0.00000000000E+00  0.92292871249E+03  0.92292871249E+03  0.00000000000E+00 0. -1.
         -2   -1    0    0    0  501 -0.00000000000E+00 -0.00000000000E+00 -0.76254426822E+03  0.76254426822E+03  0.00000000000E+00 0.  1.
         23    2    1    2    0    0  0.30066017194E+03  0.17676301569E+03  0.84414677837E+03  0.91789716540E+03  0.91157666284E+02 0.  0.
         13    1    3    3    0    0  0.90104229538E+02  0.98205831508E+02  0.36767172147E+03  0.39108266683E+03  0.00000000000E+00 0.  1.
        -13    1    3    3    0    0  0.21055594240E+03  0.78557184180E+02  0.47647505690E+03  0.52681449858E+03  0.00000000000E+00 0. -1.
         22    1    1    2    0    0 -0.30066017194E+03 -0.17676301569E+03 -0.68376233411E+03  0.76757581531E+03  0.00000000000E+00 0.  1.
<mgrwt>
<rscale>  0 0.16778248E+04</rscale>
<asrwt>0</asrwt>
<pdfrwt beam="1">  1        2 0.14198903E+00 0.16778248E+04</pdfrwt>
<pdfrwt beam="2">  1       -2 0.11731450E+00 0.16778248E+04</pdfrwt>
<totfact> 0.15147875E+01</totfact>
</mgrwt>
</event>
<event>
 6    1  0.8968082E-007  0.2828112E+04  0.7818608E-02  0.8294594E-01
         -2   -1    0    0    0  501 -0.00000000000E+00  0.00000000000E+00  0.63441488743E+03  0.63441488743E+03  0.00000000000E+00 0.  1.
          2   -1    0    0  501    0  0.00000000000E+00 -0.00000000000E+00 -0.31518079905E+04  0.31518079905E+04  0.00000000000E+00 0. -1.
         23    2    1    2    0    0  0.16846311543E+03  0.22427687531E+03 -0.31135202314E+04  0.31274000708E+04  0.89123696655E+02 0.  0.
         13    1    3    3    0    0  0.12124470468E+03  0.96309987241E+02 -0.18783150057E+04  0.18846864866E+04  0.00000000000E+00 0. -1.
        -13    1    3    3    0    0  0.47218410746E+02  0.12796688807E+03 -0.12352052257E+04  0.12427135842E+04  0.00000000000E+00 0.  1.
         22    1    1    2    0    0 -0.16846311543E+03 -0.22427687531E+03  0.59612712834E+03  0.65882280714E+03  0.00000000000E+00 0.  1.
<mgrwt>
<rscale>  0 0.28281117E+04</rscale>
<asrwt>0</asrwt>
<pdfrwt beam="1">  1        2 0.48489355E+00 0.28281117E+04</pdfrwt>
<pdfrwt beam="2">  1       -2 0.97602288E-01 0.28281117E+04</pdfrwt>
<totfact> 0.10579400E+00</totfact>
</mgrwt>
</event>
<event>
 6    1  0.8968082E-007  0.3613704E+04  0.7818608E-02  0.8087360E-01
          2   -1    0    0  501    0  0.00000000000E+00  0.00000000000E+00  0.14553800600E+04  0.14553800600E+04  0.00000000000E+00 0. -1.
         -2   -1    0    0    0  501 -0.00000000000E+00 -0.00000000000E+00 -0.22432043143E+04  0.22432043143E+04  0.00000000000E+00 0.  1.
         23    2    1    2    0    0 -0.40893086592E+03  0.16914996064E+04 -0.88733045756E+03  0.19555132753E+04  0.91002512639E+02 0.  0.
         13    1    3    3    0    0 -0.16462507671E+03  0.67407859131E+03 -0.30408148525E+03  0.75759416102E+03  0.00000000000E+00 0. -1.
        -13    1    3    3    0    0 -0.24430578921E+03  0.10174210151E+04 -0.58324897231E+03  0.11979191143E+04  0.00000000000E+00 0.  1.
         22    1    1    2    0    0  0.40893086592E+03 -0.16914996064E+04  0.99506203188E+02  0.17430710990E+04  0.00000000000E+00 0. -1.
<mgrwt>
<rscale>  0 0.36137044E+04</rscale>
<asrwt>0</asrwt>
<pdfrwt beam="1">  1        2 0.22390462E+00 0.36137044E+04</pdfrwt>
<pdfrwt beam="2">  1       -2 0.34510836E+00 0.36137044E+04</pdfrwt>
<totfact> 0.18288184E-01</totfact>
</mgrwt>
</event>
<event>
 6    1  0.8968082E-007  0.2243053E+04  0.7818608E-02  0.8500719E-01
          1   -1    0    0  501    0  0.00000000000E+00  0.00000000000E+00  0.13956984218E+04  0.13956984218E+04  0.00000000000E+00 0. -1.
         -1   -1    0    0    0  501 -0.00000000000E+00 -0.00000000000E+00 -0.90121332649E+03  0.90121332649E+03  0.00000000000E+00 0.  1.
         23    2    1    2    0    0 -0.32273498115E+02  0.11167937777E+04  0.17729034362E+03  0.11354977690E+04  0.98251701613E+02 0.  0.
         13    1    3    3    0    0  0.20093437986E+02  0.76644088240E+02  0.24142661528E+02  0.82830734742E+02  0.00000000000E+00 0.  1.
        -13    1    3    3    0    0 -0.52366936101E+02  0.10401496895E+04  0.15314768209E+03  0.10526670343E+04  0.00000000000E+00 0. -1.
         22    1    1    2    0    0  0.32273498115E+02 -0.11167937777E+04  0.31719475164E+03  0.11614139792E+04  0.00000000000E+00 0.  1.
<mgrwt>
<rscale>  0 0.22430533E+04</rscale>
<asrwt>0</asrwt>
<pdfrwt beam="1">  1        1 0.21472283E+00 0.22430533E+04</pdfrwt>
<pdfrwt beam="2">  1       -1 0.13864820E+00 0.22430533E+04</pdfrwt>
<totfact> 0.30214035E+00</totfact>
</mgrwt>
</event>
<event>
 6    1  0.8968082E-007  0.1807263E+04  0.7818608E-02  0.8702446E-01
          1   -1    0    0  501    0  0.00000000000E+00  0.00000000000E+00  0.19263252784E+04  0.19263252784E+04  0.00000000000E+00 0. -1.
         -1   -1    0    0    0  501 -0.00000000000E+00 -0.00000000000E+00 -0.42389011616E+03  0.42389011616E+03  0.00000000000E+00 0.  1.
         23    2    1    2    0    0  0.31213797901E+03 -0.50723986406E+03 -0.12608114946E+03  0.61620623221E+03  0.95348134462E+02 0.  0.
         13    1    3    3    0    0  0.61779178804E+00 -0.48765750064E+02 -0.13345305597E+02  0.50562607008E+02  0.00000000000E+00 0. -1.
        -13    1    3    3    0    0  0.31152018722E+03 -0.45847411399E+03 -0.11273584386E+03  0.56564362521E+03  0.00000000000E+00 0.  1.
         22    1    1    2    0    0 -0.31213797901E+03  0.50723986406E+03  0.16285163117E+04  0.17340091623E+04  0.00000000000E+00 0. -1.
<mgrwt>
<rscale>  0 0.18072634E+04</rscale>
<asrwt>0</asrwt>
<pdfrwt beam="1">  1        1 0.29635773E+00 0.18072634E+04</pdfrwt>
<pdfrwt beam="2">  1       -1 0.65213865E-01 0.18072634E+04</pdfrwt>
<totfact> 0.75167884E+00</totfact>
</mgrwt>
</event>
<event>
 6    1  0.8968082E-007  0.1723423E+04  0.7818608E-02  0.8748117E-01
          2   -1    0    0  501    0  0.00000000000E+00  0.00000000000E+00  0.38413209774E+04  0.38413209774E+04  0.00000000000E+00 0. -1.
         -2   -1    0    0    0  501 -0.00000000000E+00 -0.00000000000E+00 -0.19330512635E+03  0.19330512635E+03  0.00000000000E+00 0.  1.
         23    2    1    2    0    0 -0.35609452315E+03  0.57909275373E+03  0.59691089135E+03  0.90870332769E+03  0.85366262064E+02 0.  0.
         13    1    3    3    0    0 -0.28228599096E+03  0.46207684260E+03  0.51841989731E+03  0.74963963281E+03  0.00000000000E+00 0. -1.
        -13    1    3    3    0    0 -0.73808532192E+02  0.11701591113E+03  0.78490994046E+02  0.15906369488E+03  0.00000000000E+00 0.  1.
         22    1    1    2    0    0  0.35609452315E+03 -0.57909275373E+03  0.30511049597E+04  0.31259227760E+04  0.00000000000E+00 0. -1.
<mgrwt>
<rscale>  0 0.17234234E+04</rscale>
<asrwt>0</asrwt>
<pdfrwt beam="1">  1        2 0.59097240E+00 0.17234234E+04</pdfrwt>
<pdfrwt beam="2">  1       -2 0.29739253E-01 0.17234234E+04</pdfrwt>
<totfact> 0.45846844E+00</totfact>
</mgrwt>
</event>
<event>
 6    1  0.8968082E-007  0.5081242E+03  0.7818608E-02  0.1011680E+00
         -2   -1    0    0    0  501 -0.00000000000E+00  0.00000000000E+00  0.64012498104E+03  0.64012498104E+03  0.00000000000E+00 0.  1.
          2   -1    0    0  501    0  0.00000000000E+00 -0.00000000000E+00 -0.10083586494E+03  0.10083586494E+03  0.00000000000E+00 0. -1.
         23    2    1    2    0    0  0.23797362055E+03 -0.58647376544E+02  0.24007376527E+03  0.35417823904E+03  0.87953700241E+02 0.  0.
         11    1    3    3    0    0  0.30301169024E+02 -0.38299806054E+01 -0.19341987412E+01  0.30603442950E+02  0.00000000000E+00 0. -1.
        -11    1    3    3    0    0  0.20767245153E+03 -0.54817395939E+02  0.24200796401E+03  0.32357479609E+03  0.00000000000E+00 0.  1.
         22    1    1    2    0    0 -0.23797362055E+03  0.58647376544E+02  0.29921535083E+03  0.38678260694E+03  0.00000000000E+00 0. -1.
<mgrwt>
<rscale>  0 0.50812422E+03</rscale>
<asrwt>0</asrwt>
<pdfrwt beam="1">  1        2 0.15513210E-01 0.50812422E+03</pdfrwt>
<pdfrwt beam="2">  1       -2 0.98480764E-01 0.50812422E+03</pdfrwt>
<totfact> 0.33350131E+02</totfact>
</mgrwt>
</event>
<event>
 6    1  0.8968082E-007  0.3200560E+04  0.7818608E-02  0.8188669E-01
          2   -1    0    0  501    0  0.00000000000E+00  0.00000000000E+00  0.11788259789E+04  0.11788259789E+04  0.00000000000E+00 0. -1.
         -2   -1    0    0    0  501 -0.00000000000E+00 -0.00000000000E+00 -0.21724120947E+04  0.21724120947E+04  0.00000000000E+00 0.  1.
         23    2    1    2    0    0  0.25819692932E+02  0.11085437221E+04 -0.17035407992E+04  0.20345864520E+04  0.89190445880E+02 0.  0.
         11    1    3    3    0    0  0.45258577684E+02  0.10378669663E+04 -0.15797491238E+04  0.18907203581E+04  0.00000000000E+00 0.  1.
        -11    1    3    3    0    0 -0.19438884752E+02  0.70676755828E+02 -0.12379167543E+03  0.14386609385E+03  0.00000000000E+00 0. -1.
         22    1    1    2    0    0 -0.25819692932E+02 -0.11085437221E+04  0.70995468338E+03  0.13166516217E+04  0.00000000000E+00 0. -1.
<mgrwt>
<rscale>  0 0.32005598E+04</rscale>
<asrwt>0</asrwt>
<pdfrwt beam="1">  1        2 0.18135784E+00 0.32005598E+04</pdfrwt>
<pdfrwt beam="2">  1       -2 0.33421725E+00 0.32005598E+04</pdfrwt>
<totfact> 0.32081198E-01</totfact>
</mgrwt>
</event>
<event>
 6    1  0.8968082E-007  0.1287516E+04  0.7818608E-02  0.9039524E-01
         -2   -1    0    0    0  501 -0.00000000000E+00  0.00000000000E+00  0.14424306250E+03  0.14424306250E+03  0.00000000000E+00 0.  1.
          2   -1    0    0  501    0  0.00000000000E+00 -0.00000000000E+00 -0.28730970246E+04  0.28730970246E+04  0.00000000000E+00 0. -1.
         23    2    1    2    0    0  0.26990151263E+03  0.58060865583E+03 -0.14053646585E+04  0.15471097737E+04  0.92442364237E+02 0.  0.
         13    1    3    3    0    0  0.11550492877E+02  0.10479025487E+03 -0.22147051879E+03  0.24528269832E+03  0.00000000000E+00 0.  1.
        -13    1    3    3    0    0  0.25835101975E+03  0.47581840096E+03 -0.11838941398E+04  0.13018270754E+04  0.00000000000E+00 0. -1.
         22    1    1    2    0    0 -0.26990151263E+03 -0.58060865583E+03 -0.13234893036E+04  0.14702303134E+04  0.00000000000E+00 0.  1.
<mgrwt>
<rscale>  0 0.12875159E+04</rscale>
<asrwt>0</asrwt>
<pdfrwt beam="1">  1        2 0.44201491E+00 0.12875159E+04</pdfrwt>
<pdfrwt beam="2">  1       -2 0.22191241E-01 0.12875159E+04</pdfrwt>
<totfact> 0.36757297E+01</totfact>
</mgrwt>
</event>
<event>
 6    1  0.8968082E-007  0.1237976E+04  0.7818608E-02  0.9080251E-01
          2   -1    0    0  501    0  0.00000000000E+00  0.00000000000E+00  0.34185503547E+04  0.34185503547E+04  0.00000000000E+00 0. -1.
         -2   -1    0    0    0  501 -0.00000000000E+00 -0.00000000000E+00 -0.11207854961E+03  0.11207854961E+03  0.00000000000E+00 0.  1.
         23    2    1    2    0    0  0.13096633369E+03 -0.19563909683E+03  0.32844968188E+04  0.32941765057E+04  0.90844160892E+02 0.  0.
         13    1    3    3    0    0  0.83243414950E+02 -0.49374032261E+02  0.10869194616E+04  0.10912200407E+04  0.00000000000E+00 0. -1.
        -13    1    3    3    0    0  0.47722918737E+02 -0.14626506457E+03  0.21975773571E+04  0.22029564650E+04  0.00000000000E+00 0.  1.
         22    1    1    2    0    0 -0.13096633369E+03  0.19563909683E+03  0.21974986298E+02  0.23645239857E+03  0.00000000000E+00 0.  1.
<mgrwt>
<rscale>  0 0.12379760E+04</rscale>
<asrwt>0</asrwt>
<pdfrwt beam="1">  1        2 0.52593074E+00 0.12379760E+04</pdfrwt>
<pdfrwt beam="2">  1       -2 0.17242856E-01 0.12379760E+04</pdfrwt>
<totfact> 0.25777259E+01</totfact>
</mgrwt>
</event>
<event>
 6    1  0.8968082E-007  0.1263035E+04  0.7818608E-02  0.9059403E-01
          1   -1    0    0  501    0  0.00000000000E+00  0.00000000000E+00  0.18699669677E+04  0.18699669677E+04  0.00000000000E+00 0. -1.
         -1   -1    0    0    0  501 -0.00000000000E+00 -0.00000000000E+00 -0.21327355974E+03  0.21327355974E+03  0.00000000000E+00 0.  1.
         23    2    1    2    0    0 -0.18964787523E+03  0.57675066786E+03  0.56456250997E+03  0.83369759189E+03  0.87824812002E+02 0.  0.
         13    1    3    3    0    0 -0.56079824207E+01  0.95308120413E+02  0.62130867684E+02  0.11390931482E+03  0.00000000000E+00 0.  1.
        -13    1    3    3    0    0 -0.18403989281E+03  0.48144254744E+03  0.50243164229E+03  0.71978827707E+03  0.00000000000E+00 0. -1.
         22    1    1    2    0    0  0.18964787523E+03 -0.57675066786E+03  0.10921308980E+04  0.12495429356E+04  0.00000000000E+00 0. -1.
<mgrwt>
<rscale>  0 0.12630353E+04</rscale>
<asrwt>0</asrwt>
<pdfrwt beam="1">  1        1 0.28768721E+00 0.12630353E+04</pdfrwt>
<pdfrwt beam="2">  1       -1 0.32811318E-01 0.12630353E+04</pdfrwt>
<totfact> 0.31357583E+01</totfact>
</mgrwt>
</event>
<event>
 6    1  0.8968082E-007  0.2848940E+04  0.7818608E-02  0.8288234E-01
          2   -1    0    0  501    0  0.00000000000E+00  0.00000000000E+00  0.13788585313E+04  0.13788585313E+04  0.00000000000E+00 0. -1.
         -2   -1    0    0    0  501 -0.00000000000E+00 -0.00000000000E+00 -0.14715901472E+04  0.14715901472E+04  0.00000000000E+00 0.  1.
         23    2    1    2    0    0 -0.72684898562E+03 -0.70657837985E+03  0.95241718177E+03  0.13944615686E+04  0.99308224921E+02 0.  0.
         11    1    3    3    0    0 -0.44225263832E+03 -0.36124019096E+03  0.53128536842E+03  0.77996539305E+03  0.00000000000E+00 0. -1.
        -11    1    3    3    0    0 -0.28459634730E+03 -0.34533818889E+03  0.42113181336E+03  0.61449617560E+03  0.00000000000E+00 0.  1.
         22    1    1    2    0    0  0.72684898562E+03  0.70657837985E+03 -0.10451487976E+04  0.14559871098E+04  0.00000000000E+00 0.  1.
<mgrwt>
<rscale>  0 0.28489399E+04</rscale>
<asrwt>0</asrwt>
<pdfrwt beam="1">  1        2 0.21213208E+00 0.28489399E+04</pdfrwt>
<pdfrwt beam="2">  1       -2 0.22639848E+00 0.28489399E+04</pdfrwt>
<totfact> 0.11615632E+00</totfact>
</mgrwt>
</event>
<event>
 6    1  0.8968082E-007  0.1552384E+04  0.7818608E-02  0.8850347E-01
         -2   -1    0    0    0  501 -0.00000000000E+00  0.00000000000E+00  0.38750391208E+03  0.38750391208E+03  0.00000000000E+00 0.  1.
          2   -1    0    0  501    0  0.00000000000E+00 -0.00000000000E+00 -0.15547556705E+04  0.15547556705E+04  0.00000000000E+00 0. -1.
         23    2    1    2    0    0 -0.38982767439E+03  0.13741994031E+03  0.23227693017E+03  0.48296851981E+03  0.91957398401E+02 0.  0.
         13    1    3    3    0    0 -0.29334668267E+03  0.59627882249E+02  0.17033930324E+03  0.34441724522E+03  0.00000000000E+00 0.  1.
        -13    1    3    3    0    0 -0.96480991716E+02  0.77792058061E+02  0.61937626932E+02  0.13855127459E+03  0.00000000000E+00 0. -1.
         22    1    1    2    0    0  0.38982767439E+03 -0.13741994031E+03 -0.13995286886E+04  0.14592910628E+04  0.00000000000E+00 0. -1.
<mgrwt>
<rscale>  0 0.15523839E+04</rscale>
<asrwt>0</asrwt>
<pdfrwt beam="1">  1        2 0.23919318E+00 0.15523839E+04</pdfrwt>
<pdfrwt beam="2">  1       -2 0.59615987E-01 0.15523839E+04</pdfrwt>
<totfact> 0.29868785E+01</totfact>
</mgrwt>
</event>
<event>
 6    1  0.8968082E-007  0.1997170E+04  0.7818608E-02  0.8607945E-01
          1   -1    0    0  501    0  0.00000000000E+00  0.00000000000E+00  0.36339343413E+04  0.36339343413E+04  0.00000000000E+00 0. -1.
         -1   -1    0    0    0  501 -0.00000000000E+00 -0.00000000000E+00 -0.27440566327E+03  0.27440566327E+03  0.00000000000E+00 0.  1.
         23    2    1    2    0    0 -0.71173294205E+03  0.69732298870E+03  0.17348401763E+04  0.20024449763E+04  0.85395047747E+02 0.  0.
         13    1    3    3    0    0 -0.36672518191E+03  0.30143771073E+03  0.84471765290E+03  0.96896850600E+03  0.00000000000E+00 0. -1.
        -13    1    3    3    0    0 -0.34500776015E+03  0.39588527797E+03  0.89012252343E+03  0.10334764703E+04  0.00000000000E+00 0.  1.
         22    1    1    2    0    0  0.71173294205E+03 -0.69732298870E+03  0.16246885017E+04  0.19058950283E+04  0.00000000000E+00 0. -1.
<mgrwt>
<rscale>  0 0.19971702E+04</rscale>
<asrwt>0</asrwt>
<pdfrwt beam="1">  1        1 0.55906679E+00 0.19971702E+04</pdfrwt>
<pdfrwt beam="2">  1       -1 0.42216259E-01 0.19971702E+04</pdfrwt>
<totfact> 0.10048207E+00</totfact>
</mgrwt>
</event>
<event>
 6    1  0.8968082E-007  0.1255878E+04  0.7818608E-02  0.9065305E-01
          1   -1    0    0  501    0  0.00000000000E+00  0.00000000000E+00  0.53167685628E+03  0.53167685628E+03  0.00000000000E+00 0. -1.
         -1   -1    0    0    0  501 -0.00000000000E+00 -0.00000000000E+00 -0.74163022249E+03  0.74163022249E+03  0.00000000000E+00 0.  1.
         23    2    1    2    0    0 -0.23096765786E+03 -0.53995649128E+02 -0.69122165445E+03  0.73676187623E+03  0.93643459914E+02 0.  0.
         11    1    3    3    0    0 -0.12542574044E+03 -0.37073745262E+01 -0.47103962811E+03  0.48746660628E+03  0.00000000000E+00 0.  1.
        -11    1    3    3    0    0 -0.10554191742E+03 -0.50288274601E+02 -0.22018202634E+03  0.24929526995E+03  0.00000000000E+00 0. -1.
         22    1    1    2    0    0  0.23096765786E+03  0.53995649128E+02  0.48126828824E+03  0.53654520254E+03  0.00000000000E+00 0. -1.
<mgrwt>
<rscale>  0 0.12558784E+04</rscale>
<asrwt>0</asrwt>
<pdfrwt beam="1">  1        1 0.81796440E-01 0.12558784E+04</pdfrwt>
<pdfrwt beam="2">  1       -1 0.11409696E+00 0.12558784E+04</pdfrwt>
<totfact> 0.28068118E+01</totfact>
</mgrwt>
</event>
<event>
 6    1  0.8968082E-007  0.2621488E+04  0.7818608E-02  0.8360939E-01
         -1   -1    0    0    0  501 -0.00000000000E+00  0.00000000000E+00  0.87977528287E+03  0.87977528287E+03  0.00000000000E+00 0.  1.
          1   -1    0    0  501    0  0.00000000000E+00 -0.00000000000E+00 -0.19528276965E+04  0.19528276965E+04  0.00000000000E+00 0. -1.
         23    2    1    2    0    0 -0.32025550002E+03 -0.81818168971E+03  0.51197169886E+03  0.10203429815E+04  0.83665505389E+02 0.  0.
         11    1    3    3    0    0 -0.18071873134E+03 -0.51749294458E+03  0.35916704660E+03  0.65533134742E+03  0.00000000000E+00 0.  1.
        -11    1    3    3    0    0 -0.13953676868E+03 -0.30068874514E+03  0.15280465226E+03  0.36501163409E+03  0.00000000000E+00 0. -1.
         22    1    1    2    0    0  0.32025550002E+03  0.81818168971E+03 -0.15850241125E+04  0.18122599979E+04  0.00000000000E+00 0. -1.
<mgrwt>
<rscale>  0 0.26214878E+04</rscale>
<asrwt>0</asrwt>
<pdfrwt beam="1">  1        1 0.30043503E+00 0.26214878E+04</pdfrwt>
<pdfrwt beam="2">  1       -1 0.13535004E+00 0.26214878E+04</pdfrwt>
<totfact> 0.12903121E+00</totfact>
</mgrwt>
</event>
<event>
 6    1  0.8968082E-007  0.1707653E+04  0.7818608E-02  0.8757011E-01
          1   -1    0    0  501    0  0.00000000000E+00  0.00000000000E+00  0.49671709655E+03  0.49671709655E+03  0.00000000000E+00 0. -1.
         -1   -1    0    0    0  501 -0.00000000000E+00 -0.00000000000E+00 -0.14676761317E+04  0.14676761317E+04  0.00000000000E+00 0.  1.
         23    2    1    2    0    0 -0.17828750201E+02 -0.43664953936E+03 -0.13274288581E+04  0.14004327516E+04  0.90353937693E+02 0.  0.
         11    1    3    3    0    0  0.82650986591E+01 -0.32680454595E+03 -0.10814620507E+04  0.11297918792E+04  0.00000000000E+00 0.  1.
        -11    1    3    3    0    0 -0.26093848860E+02 -0.10984499341E+03 -0.24596680734E+03  0.27064087245E+03  0.00000000000E+00 0. -1.
         22    1    1    2    0    0  0.17828750201E+02  0.43664953936E+03  0.35646982291E+03  0.56396047663E+03  0.00000000000E+00 0. -1.
<mgrwt>
<rscale>  0 0.17076532E+04</rscale>
<asrwt>0</asrwt>
<pdfrwt beam="1">  1        1 0.76418016E-01 0.17076532E+04</pdfrwt>
<pdfrwt beam="2">  1       -1 0.22579632E+00 0.17076532E+04</pdfrwt>
<totfact> 0.42814626E+00</totfact>
</mgrwt>
</event>
<event>
 6    1  0.8968082E-007  0.1456129E+04  0.7818608E-02  0.8914162E-01
         -1   -1    0    0    0  501 -0.00000000000E+00  0.00000000000E+00  0.65906778740E+03  0.65906778740E+03  0.00000000000E+00 0.  1.
          1   -1    0    0  501    0  0.00000000000E+00 -0.00000000000E+00 -0.80428488163E+03  0.80428488163E+03  0.00000000000E+00 0. -1.
         23    2    1    2    0    0  0.14825253780E+03 -0.69475981426E+03  0.74727949145E+02  0.71968215288E+03  0.87681926944E+02 0.  0.
         11    1    3    3    0    0  0.15176296763E+03 -0.56093297808E+03  0.47249418103E+02  0.58301827737E+03  0.00000000000E+00 0.  1.
        -11    1    3    3    0    0 -0.35104298276E+01 -0.13382683618E+03  0.27478531042E+02  0.13666387551E+03  0.00000000000E+00 0. -1.
         22    1    1    2    0    0 -0.14825253780E+03  0.69475981426E+03 -0.21994504338E+03  0.74367051615E+03  0.00000000000E+00 0.  1.
<mgrwt>
<rscale>  0 0.14561295E+04</rscale>
<asrwt>0</asrwt>
<pdfrwt beam="1">  1        1 0.12373614E+00 0.14561295E+04</pdfrwt>
<pdfrwt beam="2">  1       -1 0.10139504E+00 0.14561295E+04</pdfrwt>
<totfact> 0.19652913E+01</totfact>
</mgrwt>
</event>
<event>
 6    1  0.8968082E-007  0.2086589E+04  0.7818608E-02  0.8567174E-01
         -2   -1    0    0    0  501 -0.00000000000E+00  0.00000000000E+00  0.10896144655E+04  0.10896144655E+04  0.00000000000E+00 0.  1.
          2   -1    0    0  501    0  0.00000000000E+00 -0.00000000000E+00 -0.99894335596E+03  0.99894335596E+03  0.00000000000E+00 0. -1.
         23    2    1    2    0    0  0.45753454661E+03 -0.34283640593E+03 -0.82571455824E+03  0.10084479406E+04  0.91038753770E+02 0.  0.
         13    1    3    3    0    0  0.28099178084E+03 -0.22987357721E+03 -0.44955408939E+03  0.57783831795E+03  0.00000000000E+00 0.  1.
        -13    1    3    3    0    0  0.17654276577E+03 -0.11296282872E+03 -0.37616046885E+03  0.43060962267E+03  0.00000000000E+00 0. -1.
         22    1    1    2    0    0 -0.45753454661E+03  0.34283640593E+03  0.91638566773E+03  0.10801098808E+04  0.00000000000E+00 0.  1.
<mgrwt>
<rscale>  0 0.20865887E+04</rscale>
<asrwt>0</asrwt>
<pdfrwt beam="1">  1        2 0.15368359E+00 0.20865887E+04</pdfrwt>
<pdfrwt beam="2">  1       -2 0.16763299E+00 0.20865887E+04</pdfrwt>
<totfact> 0.51567460E+00</totfact>
</mgrwt>
</event>
<event>
 6    1  0.8968082E-007  0.1430641E+04  0.7818608E-02  0.8931933E-01
          1   -1    0    0  501    0  0.00000000000E+00  0.00000000000E+00  0.53180283686E+03  0.53180283686E+03  0.00000000000E+00 0. -1.
         -1   -1    0    0    0  501 -0.00000000000E+00 -0.00000000000E+00 -0.96216761308E+03  0.96216761308E+03  0.00000000000E+00 0.  1.
         23    2    1    2    0    0 -0.14427380307E+03 -0.44838842982E+03  0.34186467221E+03  0.58942336146E+03  0.93173658723E+02 0.  0.
         13    1    3    3    0    0 -0.75161018719E+02 -0.14248627275E+03  0.15922788239E+03  0.22650614823E+03  0.00000000000E+00 0. -1.
        -13    1    3    3    0    0 -0.69112784354E+02 -0.30590215707E+03  0.18263678982E+03  0.36291721323E+03  0.00000000000E+00 0.  1.
         22    1    1    2    0    0  0.14427380307E+03  0.44838842982E+03 -0.77222944843E+03  0.90454708848E+03  0.00000000000E+00 0.  1.
<mgrwt>
<rscale>  0 0.14306411E+04</rscale>
<asrwt>0</asrwt>
<pdfrwt beam="1">  1        1 0.81815821E-01 0.14306411E+04</pdfrwt>
<pdfrwt beam="2">  1       -1 0.14802579E+00 0.14306411E+04</pdfrwt>
<totfact> 0.14306620E+01</totfact>
</mgrwt>
</event>
<event>
 6    1  0.8968082E-007  0.1870929E+04  0.7818608E-02  0.8669464E-01
          2   -1    0    0  501    0  0.00000000000E+00  0.00000000000E+00  0.15970377697E+04  0.15970377697E+04  0.00000000000E+00 0. -1.
         -2   -1    0    0    0  501 -0.00000000000E+00 -0.00000000000E+00 -0.54794790289E+03  0.54794790289E+03  0.00000000000E+00 0.  1.
         23    2    1    2    0    0 -0.66683255228E+03  0.35114033141E+03 -0.10611946298E+03  0.76568375469E+03  0.83935014445E+02 0.  0.
         13    1    3    3    0    0 -0.47082063963E+03  0.21508116661E+03 -0.98796111421E+02  0.52696551553E+03  0.00000000000E+00 0.  1.
        -13    1    3    3    0    0 -0.19601191265E+03  0.13605916480E+03 -0.73233515572E+01  0.23871823916E+03  0.00000000000E+00 0. -1.
         22    1    1    2    0    0  0.66683255228E+03 -0.35114033141E+03  0.11552093298E+04  0.13793019179E+04  0.00000000000E+00 0. -1.
<mgrwt>
<rscale>  0 0.18709286E+04</rscale>
<asrwt>0</asrwt>
<pdfrwt beam="1">  1        2 0.24569812E+00 0.18709286E+04</pdfrwt>
<pdfrwt beam="2">  1       -2 0.84299678E-01 0.18709286E+04</pdfrwt>
<totfact> 0.12902788E+01</totfact>
</mgrwt>
</event>
<event>
 6    1  0.8968082E-007  0.3351201E+04  0.7818608E-02  0.8149988E-01
         -2   -1    0    0    0  501 -0.00000000000E+00  0.00000000000E+00  0.78385249530E+03  0.78385249530E+03  0.00000000000E+00 0.  1.
          2   -1    0    0  501    0  0.00000000000E+00 -0.00000000000E+00 -0.35818426075E+04  0.35818426075E+04  0.00000000000E+00 0. -1.
         23    2    1    2    0    0 -0.14940110584E+04 -0.75292995840E+03 -0.13102672629E+04  0.21268802732E+04  0.88582342476E+02 0.  0.
         13    1    3    3    0    0 -0.79638869404E+03 -0.43307988832E+03 -0.66650841243E+03  0.11251784772E+04  0.00000000000E+00 0. -1.
        -13    1    3    3    0    0 -0.69762236437E+03 -0.31985007008E+03 -0.64375885050E+03  0.10017017960E+04  0.00000000000E+00 0.  1.
         22    1    1    2    0    0  0.14940110584E+04  0.75292995840E+03 -0.14877228493E+04  0.22388148296E+04  0.00000000000E+00 0. -1.
<mgrwt>
<rscale>  0 0.33512005E+04</rscale>
<asrwt>0</asrwt>
<pdfrwt beam="1">  1        2 0.55105271E+00 0.33512005E+04</pdfrwt>
<pdfrwt beam="2">  1       -2 0.12059269E+00 0.33512005E+04</pdfrwt>
<totfact> 0.30987464E-01</totfact>
</mgrwt>
</event>
<event>
 6    1  0.1148171E-006  0.3036402E+04  0.7818608E-02  0.8233412E-01
          2   -1    0    0  501    0  0.00000000000E+00  0.00000000000E+00  0.27613620246E+04  0.27613620246E+04  0.00000000000E+00 0. -1.
         -2   -1    0    0    0  501 -0.00000000000E+00 -0.00000000000E+00 -0.83470926066E+03  0.83470926066E+03  0.00000000000E+00 0.  1.
         23    2    1    2    0    0 -0.14843181785E+04 -0.30133402286E+03  0.10619430594E+04  0.18520169508E+04  0.90780375597E+02 0.  0.
         13    1    3    3    0    0 -0.95085197575E+03 -0.15731710187E+03  0.64287197386E+03  0.11585130664E+04  0.00000000000E+00 0.  1.
        -13    1    3    3    0    0 -0.53346620272E+03 -0.14401692099E+03  0.41907108550E+03  0.69350388440E+03  0.00000000000E+00 0. -1.
         22    1    1    2    0    0  0.14843181785E+04  0.30133402286E+03  0.86470970458E+03  0.17440543344E+04  0.00000000000E+00 0. -1.
<mgrwt>
<rscale>  0 0.30364021E+04</rscale>
<asrwt>0</asrwt>
<pdfrwt beam="1">  1        2 0.42482492E+00 0.30364021E+04</pdfrwt>
<pdfrwt beam="2">  1       -2 0.12841681E+00 0.30364021E+04</pdfrwt>
<totfact> 0.93250681E-01</totfact>
</mgrwt>
</event>
<event>
 6    1  0.8968082E-007  0.1581185E+04  0.7818608E-02  0.8832191E-01
          1   -1    0    0  501    0  0.00000000000E+00  0.00000000000E+00  0.28892389542E+04  0.28892389542E+04  0.00000000000E+00 0. -1.
         -1   -1    0    0    0  501 -0.00000000000E+00 -0.00000000000E+00 -0.21633250850E+03  0.21633250850E+03  0.00000000000E+00 0.  1.
         23    2    1    2    0    0 -0.40652375967E+03 -0.38639682603E+03  0.25380789016E+03  0.62230709986E+03  0.91014323553E+02 0.  0.
         11    1    3    3    0    0 -0.22953907592E+03 -0.15541115622E+03  0.12348449545E+03  0.30346208242E+03  0.00000000000E+00 0.  1.
        -11    1    3    3    0    0 -0.17698468375E+03 -0.23098566980E+03  0.13032339471E+03  0.31884501744E+03  0.00000000000E+00 0. -1.
         22    1    1    2    0    0  0.40652375967E+03  0.38639682603E+03  0.24190985555E+04  0.24832643628E+04  0.00000000000E+00 0. -1.
<mgrwt>
<rscale>  0 0.15811848E+04</rscale>
<asrwt>0</asrwt>
<pdfrwt beam="1">  1        1 0.44449827E+00 0.15811848E+04</pdfrwt>
<pdfrwt beam="2">  1       -1 0.33281926E-01 0.15811848E+04</pdfrwt>
<totfact> 0.58945366E+00</totfact>
</mgrwt>
</event>
<event>
 6    1  0.8968082E-007  0.2281602E+04  0.7818608E-02  0.8485211E-01
         -2   -1    0    0    0  501 -0.00000000000E+00  0.00000000000E+00  0.95927404439E+03  0.95927404439E+03  0.00000000000E+00 0.  1.
          2   -1    0    0  501    0  0.00000000000E+00 -0.00000000000E+00 -0.13566788539E+04  0.13566788539E+04  0.00000000000E+00 0. -1.
         23    2    1    2    0    0  0.10696405400E+02  0.90000505671E+03  0.50920538536E+03  0.10384296849E+04  0.94459361153E+02 0.  0.
         13    1    3    3    0    0  0.61589327805E+01  0.14975561076E+03  0.46373297182E+02  0.15689218623E+03  0.00000000000E+00 0. -1.
        -13    1    3    3    0    0  0.45374726193E+01  0.75024944594E+03  0.46283208818E+03  0.88153749871E+03  0.00000000000E+00 0.  1.
         22    1    1    2    0    0 -0.10696405400E+02 -0.90000505671E+03 -0.90661019485E+03  0.12775232133E+04  0.00000000000E+00 0. -1.
<mgrwt>
<rscale>  0 0.22816019E+04</rscale>
<asrwt>0</asrwt>
<pdfrwt beam="1">  1        2 0.20871982E+00 0.22816019E+04</pdfrwt>
<pdfrwt beam="2">  1       -2 0.14758062E+00 0.22816019E+04</pdfrwt>
<totfact> 0.43532087E+00</totfact>
</mgrwt>
</event>
<event>
 6    1  0.8968082E-007  0.3076912E+04  0.7818608E-02  0.8222103E-01
          1   -1    0    0  501    0  0.00000000000E+00  0.00000000000E+00  0.13188711687E+04  0.13188711687E+04  0.00000000000E+00 0. -1.
         -1   -1    0    0    0  501 -0.00000000000E+00 -0.00000000000E+00 -0.17946006111E+04  0.17946006111E+04  0.00000000000E+00 0.  1.
         23    2    1    2    0    0 -0.67314695672E+03 -0.94169262999E+03  0.78537561695E+03  0.14016605153E+04  0.89025309934E+02 0.  0.
         13    1    3    3    0    0 -0.32890157517E+03 -0.38464523049E+03  0.34811520302E+03  0.61425759586E+03  0.00000000000E+00 0. -1.
        -13    1    3    3    0    0 -0.34424538155E+03 -0.55704739949E+03  0.43726041392E+03  0.78740291947E+03  0.00000000000E+00 0.  1.
         22    1    1    2    0    0  0.67314695672E+03  0.94169262999E+03 -0.12611050593E+04  0.17118112645E+04  0.00000000000E+00 0.  1.
<mgrwt>
<rscale>  0 0.30769121E+04</rscale>
<asrwt>0</asrwt>
<pdfrwt beam="1">  1        1 0.20290326E+00 0.30769121E+04</pdfrwt>
<pdfrwt beam="2">  1       -1 0.27609240E+00 0.30769121E+04</pdfrwt>
<totfact> 0.34975770E-01</totfact>
</mgrwt>
</event>
<event>
 6    1  0.1086042E-006  0.3334181E+04  0.7818608E-02  0.8154252E-01
         -2   -1    0    0    0  501 -0.00000000000E+00  0.00000000000E+00  0.16614928154E+04  0.16614928154E+04  0.00000000000E+00 0.  1.
          2   -1    0    0  501    0  0.00000000000E+00 -0.00000000000E+00 -0.16727074774E+04  0.16727074774E+04  0.00000000000E+00 0. -1.
         23    2    1    2    0    0 -0.30727127452E+03  0.16311882114E+04  0.13556164528E+03  0.16678468185E+04  0.90252053026E+02 0.  0.
         11    1    3    3    0    0 -0.13061408795E+03  0.78672386841E+03  0.10691089135E+03  0.80462688483E+03  0.00000000000E+00 0.  1.
        -11    1    3    3    0    0 -0.17665718657E+03  0.84446434296E+03  0.28650753926E+02  0.86321993362E+03  0.00000000000E+00 0. -1.
         22    1    1    2    0    0  0.30727127452E+03 -0.16311882114E+04 -0.14677630725E+03  0.16663534743E+04  0.00000000000E+00 0.  1.
<mgrwt>
<rscale>  0 0.33341814E+04</rscale>
<asrwt>0</asrwt>
<pdfrwt beam="1">  1        2 0.25733961E+00 0.33341814E+04</pdfrwt>
<pdfrwt beam="2">  1       -2 0.25561428E+00 0.33341814E+04</pdfrwt>
<totfact> 0.50209815E-01</totfact>
</mgrwt>
</event>
<event>
 6    1  0.8968082E-007  0.1641915E+04  0.7818608E-02  0.8795204E-01
          2   -1    0    0  501    0  0.00000000000E+00  0.00000000000E+00  0.14742890424E+04  0.14742890424E+04  0.00000000000E+00 0. -1.
         -2   -1    0    0    0  501 -0.00000000000E+00 -0.00000000000E+00 -0.45714995481E+03  0.45714995481E+03  0.00000000000E+00 0.  1.
         23    2    1    2    0    0 -0.20873355442E+02  0.67100163840E+03  0.10606845153E+04  0.12587019758E+04  0.92736870537E+02 0.  0.
         13    1    3    3    0    0 -0.54415801660E+02  0.35205611569E+03  0.58787584255E+03  0.68738824134E+03  0.00000000000E+00 0. -1.
        -13    1    3    3    0    0  0.33542446217E+02  0.31894552271E+03  0.47280867277E+03  0.57131373447E+03  0.00000000000E+00 0.  1.
         22    1    1    2    0    0  0.20873355442E+02 -0.67100163840E+03 -0.43545427718E+02  0.67273702141E+03  0.00000000000E+00 0.  1.
<mgrwt>
<rscale>  0 0.16419149E+04</rscale>
<asrwt>0</asrwt>
<pdfrwt beam="1">  1        2 0.22681370E+00 0.16419149E+04</pdfrwt>
<pdfrwt beam="2">  1       -2 0.70330763E-01 0.16419149E+04</pdfrwt>
<totfact> 0.23083222E+01</totfact>
</mgrwt>
</event>
<event>
 6    1  0.8968082E-007  0.2184212E+04  0.7818608E-02  0.8525028E-01
         -1   -1    0    0    0  501 -0.00000000000E+00  0.00000000000E+00  0.80462191259E+03  0.80462191259E+03  0.00000000000E+00 0.  1.
          1   -1    0    0  501    0  0.00000000000E+00 -0.00000000000E+00 -0.14823051867E+04  0.14823051867E+04  0.00000000000E+00 0. -1.
         23    2    1    2    0    0  0.92554211428E+03  0.52223269732E+03 -0.59407556402E+03  0.12209320502E+04  0.91619321595E+02 0.  0.
         11    1    3    3    0    0  0.49625008509E+03  0.31336153641E+03 -0.36764791184E+03  0.69254933870E+03  0.00000000000E+00 0. -1.
        -11    1    3    3    0    0  0.42929202919E+03  0.20887116090E+03 -0.22642765218E+03  0.52838271154E+03  0.00000000000E+00 0.  1.
         22    1    1    2    0    0 -0.92554211428E+03 -0.52223269732E+03 -0.83607710111E+02  0.10659950491E+04  0.00000000000E+00 0.  1.
<mgrwt>
<rscale>  0 0.21842117E+04</rscale>
<asrwt>0</asrwt>
<pdfrwt beam="1">  1        1 0.22804695E+00 0.21842117E+04</pdfrwt>
<pdfrwt beam="2">  1       -1 0.12378799E+00 0.21842117E+04</pdfrwt>
<totfact> 0.35226584E+00</totfact>
</mgrwt>
</event>
<event>
 6    1  0.9475565E-007  0.2719237E+04  0.7818608E-02  0.8328790E-01
         -1   -1    0    0    0  501 -0.00000000000E+00  0.00000000000E+00  0.86756002614E+03  0.86756002614E+03  0.00000000000E+00 0.  1.
          1   -1    0    0  501    0  0.00000000000E+00 -0.00000000000E+00 -0.21307607827E+04  0.21307607827E+04  0.00000000000E+00 0. -1.
         23    2    1    2    0    0 -0.23509676601E+02  0.42825317809E+03  0.78858010839E+03  0.90219146950E+03  0.90207376971E+02 0.  0.
         11    1    3    3    0    0 -0.18435307626E+02  0.87023549530E+02  0.24188706150E+03  0.25772525926E+03  0.00000000000E+00 0. -1.
        -11    1    3    3    0    0 -0.50743689749E+01  0.34122962856E+03  0.54669304689E+03  0.64446621024E+03  0.00000000000E+00 0.  1.
         22    1    1    2    0    0  0.23509676601E+02 -0.42825317809E+03 -0.20517808649E+04  0.20961293393E+04  0.00000000000E+00 0. -1.
<mgrwt>
<rscale>  0 0.27192373E+04</rscale>
<asrwt>0</asrwt>
<pdfrwt beam="1">  1        1 0.32780935E+00 0.27192373E+04</pdfrwt>
<pdfrwt beam="2">  1       -1 0.13347078E+00 0.27192373E+04</pdfrwt>
<totfact> 0.10038559E+00</totfact>
</mgrwt>
</event>
<event>
 6    1  0.8968082E-007  0.1120993E+04  0.7818608E-02  0.9184969E-01
         -1   -1    0    0    0  501 -0.00000000000E+00  0.00000000000E+00  0.27764825473E+03  0.27764825473E+03  0.00000000000E+00 0.  1.
          1   -1    0    0  501    0  0.00000000000E+00 -0.00000000000E+00 -0.11314908962E+04  0.11314908962E+04  0.00000000000E+00 0. -1.
         23    2    1    2    0    0 -0.92221601510E+02 -0.17531422493E+03 -0.10839347637E+04  0.11055237923E+04  0.89601239480E+02 0.  0.
         11    1    3    3    0    0 -0.34918808351E+02 -0.29813621700E+02 -0.46020061315E+03  0.46248543713E+03  0.00000000000E+00 0. -1.
        -11    1    3    3    0    0 -0.57302793159E+02 -0.14550060323E+03 -0.62373415058E+03  0.64303835518E+03  0.00000000000E+00 0.  1.
         22    1    1    2    0    0  0.92221601510E+02  0.17531422493E+03  0.23009212227E+03  0.30361535860E+03  0.00000000000E+00 0.  1.
<mgrwt>
<rscale>  0 0.11209933E+04</rscale>
<asrwt>0</asrwt>
<pdfrwt beam="1">  1        1 0.17407553E+00 0.11209933E+04</pdfrwt>
<pdfrwt beam="2">  1       -1 0.42715115E-01 0.11209933E+04</pdfrwt>
<totfact> 0.64440811E+01</totfact>
</mgrwt>
</event>
<event>
 6    1  0.8968082E-007  0.9109179E+03  0.7818608E-02  0.9412035E-01
         -2   -1    0    0    0  501 -0.00000000000E+00  0.00000000000E+00  0.33620152402E+03  0.33620152402E+03  0.00000000000E+00 0.  1.
          2   -1    0    0  501    0  0.00000000000E+00 -0.00000000000E+00 -0.61701942492E+03  0.61701942492E+03  0.00000000000E+00 0. -1.
         23    2    1    2    0    0 -0.18565986437E+03  0.33213826662E+03 -0.39469148208E+03  0.55604012628E+03  0.92810789357E+02 0.  0.
         11    1    3    3    0    0 -0.83791932526E+00  0.73242926793E+02 -0.82803464203E+02  0.11055153603E+03  0.00000000000E+00 0.  1.
        -11    1    3    3    0    0 -0.18482194504E+03  0.25889533983E+03 -0.31188801787E+03  0.44548859026E+03  0.00000000000E+00 0. -1.
         22    1    1    2    0    0  0.18565986437E+03 -0.33213826662E+03  0.11387358118E+03  0.39718082265E+03  0.00000000000E+00 0.  1.
<mgrwt>
<rscale>  0 0.91091793E+03</rscale>
<asrwt>0</asrwt>
<pdfrwt beam="1">  1        2 0.94926065E-01 0.91091793E+03</pdfrwt>
<pdfrwt beam="2">  1       -2 0.51723312E-01 0.91091793E+03</pdfrwt>
<totfact> 0.16973321E+02</totfact>
</mgrwt>
</event>
<event>
 6    1  0.8968082E-007  0.2058047E+04  0.7818608E-02  0.8579953E-01
         -1   -1    0    0    0  501 -0.00000000000E+00  0.00000000000E+00  0.45067955168E+03  0.45067955168E+03  0.00000000000E+00 0.  1.
          1   -1    0    0  501    0  0.00000000000E+00 -0.00000000000E+00 -0.23495387954E+04  0.23495387954E+04  0.00000000000E+00 0. -1.
         23    2    1    2    0    0 -0.61696065059E+03  0.12693130358E+03 -0.20549376919E+04  0.21512865463E+04  0.92265304635E+02 0.  0.
         13    1    3    3    0    0 -0.26730125654E+03  0.23008455972E+02 -0.76066358189E+03  0.80659062455E+03  0.00000000000E+00 0.  1.
        -13    1    3    3    0    0 -0.34965939405E+03  0.10392284760E+03 -0.12942741100E+04  0.13446959217E+04  0.00000000000E+00 0. -1.
         22    1    1    2    0    0  0.61696065059E+03 -0.12693130358E+03  0.15607844811E+03  0.64893180086E+03  0.00000000000E+00 0.  1.
<mgrwt>
<rscale>  0 0.20580467E+04</rscale>
<asrwt>0</asrwt>
<pdfrwt beam="1">  1        1 0.36146751E+00 0.20580467E+04</pdfrwt>
<pdfrwt beam="2">  1       -1 0.69335315E-01 0.20580467E+04</pdfrwt>
<totfact> 0.33428069E+00</totfact>
</mgrwt>
</event>
<event>
 6    1  0.8968082E-007  0.3477235E+04  0.7818608E-02  0.8119206E-01
         -2   -1    0    0    0  501 -0.00000000000E+00  0.00000000000E+00  0.19598952349E+04  0.19598952349E+04  0.00000000000E+00 0.  1.
          2   -1    0    0  501    0  0.00000000000E+00 -0.00000000000E+00 -0.15423223854E+04  0.15423223854E+04  0.00000000000E+00 0. -1.
         23    2    1    2    0    0 -0.10235711871E+03  0.47605552336E+03  0.18887422319E+04  0.19525579180E+04  0.89606716172E+02 0.  0.
         11    1    3    3    0    0 -0.48371598143E+02  0.16702777688E+03  0.51920397029E+03  0.54754986305E+03  0.00000000000E+00 0.  1.
        -11    1    3    3    0    0 -0.53985520568E+02  0.30902774648E+03  0.13695382616E+04  0.14050080550E+04  0.00000000000E+00 0. -1.
         22    1    1    2    0    0  0.10235711871E+03 -0.47605552336E+03 -0.14711693824E+04  0.15496597023E+04  0.00000000000E+00 0. -1.
<mgrwt>
<rscale>  0 0.34772347E+04</rscale>
<asrwt>0</asrwt>
<pdfrwt beam="1">  1        2 0.23728037E+00 0.34772347E+04</pdfrwt>
<pdfrwt beam="2">  1       -2 0.30152234E+00 0.34772347E+04</pdfrwt>
<totfact> 0.30766970E-01</totfact>
</mgrwt>
</event>
<event>
 6    1  0.8968082E-007  0.2551069E+04  0.7818608E-02  0.8385014E-01
         -1   -1    0    0    0  501 -0.00000000000E+00  0.00000000000E+00  0.69108223086E+03  0.69108223086E+03  0.00000000000E+00 0.  1.
          1   -1    0    0  501    0  0.00000000000E+00 -0.00000000000E+00 -0.23542623160E+04  0.23542623160E+04  0.00000000000E+00 0. -1.
         23    2    1    2    0    0  0.79678262155E+03 -0.95176519519E+03 -0.49054830297E+03  0.13377776142E+04  0.91059183222E+02 0.  0.
         11    1    3    3    0    0  0.47380980142E+03 -0.60242086244E+03 -0.26205060344E+03  0.80998589011E+03  0.00000000000E+00 0. -1.
        -11    1    3    3    0    0  0.32297282013E+03 -0.34934433275E+03 -0.22849769953E+03  0.52779172413E+03  0.00000000000E+00 0.  1.
         22    1    1    2    0    0 -0.79678262155E+03  0.95176519519E+03 -0.11726317821E+04  0.17075669326E+04  0.00000000000E+00 0. -1.
<mgrwt>
<rscale>  0 0.25510695E+04</rscale>
<asrwt>0</asrwt>
<pdfrwt beam="1">  1        1 0.36219421E+00 0.25510695E+04</pdfrwt>
<pdfrwt beam="2">  1       -1 0.10632034E+00 0.25510695E+04</pdfrwt>
<totfact> 0.12488306E+00</totfact>
</mgrwt>
</event>
<event>
 6    1  0.8968082E-007  0.6416766E+03  0.7818608E-02  0.9822524E-01
          2   -1    0    0  501    0  0.00000000000E+00  0.00000000000E+00  0.68491154143E+03  0.68491154143E+03  0.00000000000E+00 0. -1.
         -2   -1    0    0    0  501 -0.00000000000E+00 -0.00000000000E+00 -0.15029269178E+03  0.15029269178E+03  0.00000000000E+00 0.  1.
         23    2    1    2    0    0  0.15671402603E+03 -0.19589383039E+03  0.26252879015E+02  0.26830949973E+03  0.91471827627E+02 0.  0.
         11    1    3    3    0    0  0.22120842018E+01  0.91000349593E+01  0.52952547800E+01  0.10758423489E+02  0.00000000000E+00 0.  1.
        -11    1    3    3    0    0  0.15450194183E+03 -0.20499386535E+03  0.20957624235E+02  0.25755107624E+03  0.00000000000E+00 0. -1.
         22    1    1    2    0    0 -0.15671402603E+03  0.19589383039E+03  0.50836597064E+03  0.56689473348E+03  0.00000000000E+00 0. -1.
<mgrwt>
<rscale>  0 0.64167655E+03</rscale>
<asrwt>0</asrwt>
<pdfrwt beam="1">  1        2 0.10537100E+00 0.64167655E+03</pdfrwt>
<pdfrwt beam="2">  1       -2 0.23121953E-01 0.64167655E+03</pdfrwt>
<totfact> 0.69875764E+02</totfact>
</mgrwt>
</event>
<event>
 6    1  0.8968082E-007  0.1144600E+04  0.7818608E-02  0.9162779E-01
         -2   -1    0    0    0  501 -0.00000000000E+00  0.00000000000E+00  0.29764858536E+03  0.29764858536E+03  0.00000000000E+00 0.  1.
          2   -1    0    0  501    0  0.00000000000E+00 -0.00000000000E+00 -0.11003832610E+04  0.11003832610E+04  0.00000000000E+00 0. -1.
         23    2    1    2    0    0  0.24625737620E+03  0.39560575085E+03 -0.53100473377E+01  0.47443418326E+03  0.88955001019E+02 0.  0.
         11    1    3    3    0    0  0.19102709385E+03  0.36148146708E+03  0.38422822153E+01  0.40887035201E+03  0.00000000000E+00 0.  1.
        -11    1    3    3    0    0  0.55230282349E+02  0.34124283774E+02 -0.91523295530E+01  0.65563831247E+02  0.00000000000E+00 0. -1.
         22    1    1    2    0    0 -0.24625737620E+03 -0.39560575085E+03 -0.79742462829E+03  0.92359766308E+03  0.00000000000E+00 0. -1.
<mgrwt>
<rscale>  0 0.11446004E+04</rscale>
<asrwt>0</asrwt>
<pdfrwt beam="1">  1        2 0.16928974E+00 0.11446004E+04</pdfrwt>
<pdfrwt beam="2">  1       -2 0.45792089E-01 0.11446004E+04</pdfrwt>
<totfact> 0.97457272E+01</totfact>
</mgrwt>
</event>
<event>
 6    1  0.8968082E-007  0.4170879E+03  0.7818608E-02  0.1038018E+00
         -1   -1    0    0    0  501 -0.00000000000E+00  0.00000000000E+00  0.14517852854E+03  0.14517852854E+03  0.00000000000E+00 0.  1.
          1   -1    0    0  501    0  0.00000000000E+00 -0.00000000000E+00 -0.29956617100E+03  0.29956617100E+03  0.00000000000E+00 0. -1.
         23    2    1    2    0    0  0.16333807118E+03 -0.51674704867E+02  0.25264471492E+02  0.19650190977E+03  0.92871450966E+02 0.  0.
         11    1    3    3    0    0  0.31450038436E+02  0.13777145359E+02 -0.23264402416E+02  0.41474655775E+02  0.00000000000E+00 0. -1.
        -11    1    3    3    0    0  0.13188803274E+03 -0.65451850227E+02  0.48528873908E+02  0.15502725400E+03  0.00000000000E+00 0.  1.
         22    1    1    2    0    0 -0.16333807118E+03  0.51674704867E+02 -0.17965211396E+03  0.24824278976E+03  0.00000000000E+00 0. -1.
<mgrwt>
<rscale>  0 0.41708788E+03</rscale>
<asrwt>0</asrwt>
<pdfrwt beam="1">  1        1 0.46087103E-01 0.41708788E+03</pdfrwt>
<pdfrwt beam="2">  1       -1 0.22335158E-01 0.41708788E+03</pdfrwt>
<totfact> 0.14824818E+03</totfact>
</mgrwt>
</event>
<event>
 6    1  0.8968082E-007  0.2839866E+04  0.7818608E-02  0.8290997E-01
         -1   -1    0    0    0  501 -0.00000000000E+00  0.00000000000E+00  0.14450436709E+04  0.14450436709E+04  0.00000000000E+00 0.  1.
          1   -1    0    0  501    0  0.00000000000E+00 -0.00000000000E+00 -0.13952586400E+04  0.13952586400E+04  0.00000000000E+00 0. -1.
         23    2    1    2    0    0  0.29909218601E+02  0.91281195471E+03  0.11103935756E+04  0.14406556729E+04  0.91622316661E+02 0.  0.
         13    1    3    3    0    0  0.61416030381E+02  0.47743011622E+03  0.58098584903E+03  0.75449055755E+03  0.00000000000E+00 0.  1.
        -13    1    3    3    0    0 -0.31506811780E+02  0.43538183849E+03  0.52940772661E+03  0.68616511531E+03  0.00000000000E+00 0. -1.
         22    1    1    2    0    0 -0.29909218601E+02 -0.91281195471E+03 -0.10606085448E+04  0.13996466380E+04  0.00000000000E+00 0. -1.
<mgrwt>
<rscale>  0 0.28398660E+04</rscale>
<asrwt>0</asrwt>
<pdfrwt beam="1">  1        1 0.21465517E+00 0.28398660E+04</pdfrwt>
<pdfrwt beam="2">  1       -1 0.22231441E+00 0.28398660E+04</pdfrwt>
<totfact> 0.70935879E-01</totfact>
</mgrwt>
</event>
<event>
 6    1  0.8968082E-007  0.2550861E+04  0.7818608E-02  0.8385087E-01
         -1   -1    0    0    0  501 -0.00000000000E+00  0.00000000000E+00  0.55763434025E+03  0.55763434025E+03  0.00000000000E+00 0.  1.
          1   -1    0    0  501    0  0.00000000000E+00 -0.00000000000E+00 -0.29171854355E+04  0.29171854355E+04  0.00000000000E+00 0. -1.
         23    2    1    2    0    0  0.87489708476E+03  0.92013098352E+03 -0.13257687862E+04  0.18375074054E+04  0.81759736701E+02 0.  0.
         11    1    3    3    0    0  0.48330111347E+03  0.52598107972E+03 -0.80128250776E+03  0.10734475859E+04  0.00000000000E+00 0.  1.
        -11    1    3    3    0    0  0.39159597129E+03  0.39414990380E+03 -0.52448627848E+03  0.76405981946E+03  0.00000000000E+00 0. -1.
         22    1    1    2    0    0 -0.87489708476E+03 -0.92013098352E+03 -0.10337823090E+04  0.16373123704E+04  0.00000000000E+00 0. -1.
<mgrwt>
<rscale>  0 0.25508609E+04</rscale>
<asrwt>0</asrwt>
<pdfrwt beam="1">  1        1 0.44879776E+00 0.25508609E+04</pdfrwt>
<pdfrwt beam="2">  1       -1 0.85789899E-01 0.25508609E+04</pdfrwt>
<totfact> 0.81468375E-01</totfact>
</mgrwt>
</event>
<event>
 6    1  0.8968082E-007  0.2802406E+04  0.7818608E-02  0.8302522E-01
         -2   -1    0    0    0  501 -0.00000000000E+00  0.00000000000E+00  0.97053721104E+03  0.97053721104E+03  0.00000000000E+00 0.  1.
          2   -1    0    0  501    0  0.00000000000E+00 -0.00000000000E+00 -0.20229721103E+04  0.20229721103E+04  0.00000000000E+00 0. -1.
         23    2    1    2    0    0 -0.13224743163E+04 -0.10788731871E+03 -0.10027154298E+04  0.16657103845E+04  0.92600545705E+02 0.  0.
         11    1    3    3    0    0 -0.74852352031E+03 -0.43054824110E+02 -0.51319897974E+03  0.90857821410E+03  0.00000000000E+00 0. -1.
        -11    1    3    3    0    0 -0.57395079602E+03 -0.64832494599E+02 -0.48951645007E+03  0.75713217042E+03  0.00000000000E+00 0.  1.
         22    1    1    2    0    0  0.13224743163E+04  0.10788731871E+03 -0.49719469419E+02  0.13277989368E+04  0.00000000000E+00 0.  1.
<mgrwt>
<rscale>  0 0.28024059E+04</rscale>
<asrwt>0</asrwt>
<pdfrwt beam="1">  1        2 0.31122647E+00 0.28024059E+04</pdfrwt>
<pdfrwt beam="2">  1       -2 0.14931342E+00 0.28024059E+04</pdfrwt>
<totfact> 0.17117990E+00</totfact>
</mgrwt>
</event>
<event>
 6    1  0.8968082E-007  0.4076507E+04  0.7818608E-02  0.7989288E-01
          2   -1    0    0  501    0  0.00000000000E+00  0.00000000000E+00  0.19790522847E+04  0.19790522847E+04  0.00000000000E+00 0. -1.
         -2   -1    0    0    0  501 -0.00000000000E+00 -0.00000000000E+00 -0.20992252924E+04  0.20992252924E+04  0.00000000000E+00 0.  1.
         23    2    1    2    0    0 -0.12088310393E+04  0.59065485156E+03 -0.15905782195E+04  0.20852303819E+04  0.90005765617E+02 0.  0.
         11    1    3    3    0    0 -0.11041405122E+04  0.56588214404E+03 -0.14554652407E+04  0.19125187420E+04  0.00000000000E+00 0. -1.
        -11    1    3    3    0    0 -0.10469052712E+03  0.24772707519E+02 -0.13511297881E+03  0.17271163988E+03  0.00000000000E+00 0.  1.
         22    1    1    2    0    0  0.12088310393E+04 -0.59065485156E+03  0.14704052119E+04  0.19930471952E+04  0.00000000000E+00 0. -1.
<mgrwt>
<rscale>  0 0.40765066E+04</rscale>
<asrwt>0</asrwt>
<pdfrwt beam="1">  1        2 0.30446958E+00 0.40765066E+04</pdfrwt>
<pdfrwt beam="2">  1       -2 0.32295774E+00 0.40765066E+04</pdfrwt>
<totfact> 0.12351504E-01</totfact>
</mgrwt>
</event>
<event>
 6    1  0.8968082E-007  0.3132691E+04  0.7818608E-02  0.8206823E-01
         -1   -1    0    0    0  501 -0.00000000000E+00  0.00000000000E+00  0.22293705369E+04  0.22293705369E+04  0.00000000000E+00 0.  1.
          1   -1    0    0  501    0  0.00000000000E+00 -0.00000000000E+00 -0.11005072645E+04  0.11005072645E+04  0.00000000000E+00 0. -1.
         23    2    1    2    0    0  0.14739315646E+04  0.49233338584E+03  0.36776423237E+03  0.15995199862E+04  0.91363208093E+02 0.  0.
         11    1    3    3    0    0  0.84466038713E+03  0.32946380509E+03  0.21020171795E+03  0.93068916974E+03  0.00000000000E+00 0. -1.
        -11    1    3    3    0    0  0.62927117742E+03  0.16286958076E+03  0.15756251443E+03  0.66883081644E+03  0.00000000000E+00 0.  1.
         22    1    1    2    0    0 -0.14739315646E+04 -0.49233338584E+03  0.76109904011E+03  0.17303578152E+04  0.00000000000E+00 0. -1.
<mgrwt>
<rscale>  0 0.31326912E+04</rscale>
<asrwt>0</asrwt>
<pdfrwt beam="1">  1        1 0.16930881E+00 0.31326912E+04</pdfrwt>
<pdfrwt beam="2">  1       -1 0.34298008E+00 0.31326912E+04</pdfrwt>
<totfact> 0.18426695E-01</totfact>
</mgrwt>
</event>
<event>
 6    1  0.8968082E-007  0.1551732E+04  0.7818608E-02  0.8850762E-01
          1   -1    0    0  501    0  0.00000000000E+00  0.00000000000E+00  0.11404964959E+04  0.11404964959E+04  0.00000000000E+00 0. -1.
         -1   -1    0    0    0  501 -0.00000000000E+00 -0.00000000000E+00 -0.52781215526E+03  0.52781215526E+03  0.00000000000E+00 0.  1.
         23    2    1    2    0    0  0.16430559772E+03  0.14040199913E+03  0.11055647363E+04  0.11301264003E+04  0.90571759785E+02 0.  0.
         11    1    3    3    0    0  0.16402885057E+03  0.11671982208E+03  0.85215978204E+03  0.87561708230E+03  0.00000000000E+00 0. -1.
        -11    1    3    3    0    0  0.27674714797E+00  0.23682177051E+02  0.25340495425E+03  0.25450931798E+03  0.00000000000E+00 0.  1.
         22    1    1    2    0    0 -0.16430559772E+03 -0.14040199913E+03 -0.49288039562E+03  0.53818225091E+03  0.00000000000E+00 0.  1.
<mgrwt>
<rscale>  0 0.15517318E+04</rscale>
<asrwt>0</asrwt>
<pdfrwt beam="1">  1        1 0.17546100E+00 0.15517318E+04</pdfrwt>
<pdfrwt beam="2">  1       -1 0.81201870E-01 0.15517318E+04</pdfrwt>
<totfact> 0.17211145E+01</totfact>
</mgrwt>
</event>
<event>
 6    1  0.8968082E-007  0.1492341E+04  0.7818608E-02  0.8889562E-01
         -1   -1    0    0    0  501 -0.00000000000E+00  0.00000000000E+00  0.45299214941E+03  0.45299214941E+03  0.00000000000E+00 0.  1.
          1   -1    0    0  501    0  0.00000000000E+00 -0.00000000000E+00 -0.12290946482E+04  0.12290946482E+04  0.00000000000E+00 0. -1.
         23    2    1    2    0    0 -0.12933957185E+03 -0.72680911187E+03 -0.48545291980E+03  0.88870329153E+03  0.95649323491E+02 0.  0.
         13    1    3    3    0    0 -0.10730342060E+03 -0.34080009061E+03 -0.21743413513E+03  0.41825390488E+03  0.00000000000E+00 0.  1.
        -13    1    3    3    0    0 -0.22036151257E+02 -0.38600902127E+03 -0.26801878467E+03  0.47044938665E+03  0.00000000000E+00 0. -1.
         22    1    1    2    0    0  0.12933957185E+03  0.72680911187E+03 -0.29064957898E+03  0.79338350608E+03  0.00000000000E+00 0.  1.
<mgrwt>
<rscale>  0 0.14923407E+04</rscale>
<asrwt>0</asrwt>
<pdfrwt beam="1">  1        1 0.18909148E+00 0.14923407E+04</pdfrwt>
<pdfrwt beam="2">  1       -1 0.69691102E-01 0.14923407E+04</pdfrwt>
<totfact> 0.20508716E+01</totfact>
</mgrwt>
</event>
<event>
 6    1  0.8968082E-007  0.3685366E+04  0.7818608E-02  0.8071213E-01
         -2   -1    0    0    0  501 -0.00000000000E+00  0.00000000000E+00  0.14730994120E+04  0.14730994120E+04  0.00000000000E+00 0.  1.
          2   -1    0    0  501    0  0.00000000000E+00 -0.00000000000E+00 -0.23049903313E+04  0.23049903313E+04  0.00000000000E+00 0. -1.
         23    2    1    2    0    0  0.10951135298E+04  0.83917573978E+03  0.83424566982E+03  0.16148743820E+04  0.91454178352E+02 0.  0.
         13    1    3    3    0    0  0.58216887204E+03  0.49862689265E+03  0.44144050007E+03  0.88454456572E+03  0.00000000000E+00 0.  1.
        -13    1    3    3    0    0  0.51294465779E+03  0.34054884713E+03  0.39280516974E+03  0.73032981632E+03  0.00000000000E+00 0. -1.
         22    1    1    2    0    0 -0.10951135298E+04 -0.83917573978E+03 -0.16661365891E+04  0.21632153612E+04  0.00000000000E+00 0. -1.
<mgrwt>
<rscale>  0 0.36853656E+04</rscale>
<asrwt>0</asrwt>
<pdfrwt beam="1">  1        2 0.35461390E+00 0.36853656E+04</pdfrwt>
<pdfrwt beam="2">  1       -2 0.22663068E+00 0.36853656E+04</pdfrwt>
<totfact> 0.32722998E-01</totfact>
</mgrwt>
</event>
<event>
 6    1  0.8968082E-007  0.2299065E+04  0.7818608E-02  0.8478290E-01
          2   -1    0    0  501    0  0.00000000000E+00  0.00000000000E+00  0.15747273759E+04  0.15747273759E+04  0.00000000000E+00 0. -1.
         -2   -1    0    0    0  501 -0.00000000000E+00 -0.00000000000E+00 -0.83914522219E+03  0.83914522219E+03  0.00000000000E+00 0.  1.
         23    2    1    2    0    0 -0.49968560850E+03  0.45426015303E+03 -0.60591364925E+03  0.91199078405E+03  0.92508625982E+02 0.  0.
         11    1    3    3    0    0 -0.61791508524E+02  0.73370504300E+02 -0.12931381983E+03  0.16100771853E+03  0.00000000000E+00 0. -1.
        -11    1    3    3    0    0 -0.43789409997E+03  0.38088964873E+03 -0.47659982942E+03  0.75098306552E+03  0.00000000000E+00 0.  1.
         22    1    1    2    0    0  0.49968560850E+03 -0.45426015303E+03  0.13414958030E+04  0.15018818141E+04  0.00000000000E+00 0. -1.
<mgrwt>
<rscale>  0 0.22990650E+04</rscale>
<asrwt>0</asrwt>
<pdfrwt beam="1">  1        2 0.24226575E+00 0.22990650E+04</pdfrwt>
<pdfrwt beam="2">  1       -2 0.12909927E+00 0.22990650E+04</pdfrwt>
<totfact> 0.46182776E+00</totfact>
</mgrwt>
</event>
<event>
 6    1  0.8968082E-007  0.2717975E+04  0.7818608E-02  0.8329196E-01
          1   -1    0    0  501    0  0.00000000000E+00  0.00000000000E+00  0.12513034934E+04  0.12513034934E+04  0.00000000000E+00 0. -1.
         -1   -1    0    0    0  501 -0.00000000000E+00 -0.00000000000E+00 -0.14759379794E+04  0.14759379794E+04  0.00000000000E+00 0.  1.
         23    2    1    2    0    0  0.12415424430E+04 -0.52116014434E+03  0.56848757463E+02  0.13516440207E+04  0.10331623119E+03 0.  0.
         11    1    3    3    0    0  0.38375323647E+03 -0.19181270841E+03 -0.20812314541E+02  0.42952510292E+03  0.00000000000E+00 0. -1.
        -11    1    3    3    0    0  0.85778920652E+03 -0.32934743594E+03  0.77661072004E+02  0.92211891775E+03  0.00000000000E+00 0.  1.
         22    1    1    2    0    0 -0.12415424430E+04  0.52116014434E+03 -0.28148324343E+03  0.13755974521E+04  0.00000000000E+00 0.  1.
<mgrwt>
<rscale>  0 0.27179745E+04</rscale>
<asrwt>0</asrwt>
<pdfrwt beam="1">  1        1 0.19250823E+00 0.27179745E+04</pdfrwt>
<pdfrwt beam="2">  1       -1 0.22706738E+00 0.27179745E+04</pdfrwt>
<totfact> 0.84393618E-01</totfact>
</mgrwt>
</event>
<event>
 6    1  0.8968082E-007  0.9703562E+03  0.7818608E-02  0.9341669E-01
         -3   -1    0    0    0  501 -0.00000000000E+00  0.00000000000E+00  0.12909331450E+03  0.12909331450E+03  0.00000000000E+00 0.  1.
          3   -1    0    0  501    0  0.00000000000E+00 -0.00000000000E+00 -0.18234701507E+04  0.18234701507E+04  0.00000000000E+00 0. -1.
         23    2    1    2    0    0 -0.23459764158E+03  0.40323989408E+03 -0.61958219910E+03  0.78088860520E+03  0.90920001483E+02 0.  0.
         13    1    3    3    0    0 -0.66066477201E+02  0.77825980198E+02 -0.85457758355E+02  0.13313410933E+03  0.00000000000E+00 0.  1.
        -13    1    3    3    0    0 -0.16853116438E+03  0.32541391389E+03 -0.53412444075E+03  0.64775449587E+03  0.00000000000E+00 0. -1.
         22    1    1    2    0    0  0.23459764158E+03 -0.40323989408E+03 -0.10747946371E+04  0.11716748600E+04  0.00000000000E+00 0.  1.
<mgrwt>
<rscale>  0 0.97035623E+03</rscale>
<asrwt>0</asrwt>
<pdfrwt beam="1">  1        3 0.28053388E+00 0.97035623E+03</pdfrwt>
<pdfrwt beam="2">  1       -3 0.19860509E-01 0.97035623E+03</pdfrwt>
<totfact> 0.30649085E+00</totfact>
</mgrwt>
</event>
<event>
 6    1  0.9917046E-007  0.3641491E+04  0.7818608E-02  0.8081053E-01
          2   -1    0    0  501    0  0.00000000000E+00  0.00000000000E+00  0.20627883316E+04  0.20627883316E+04  0.00000000000E+00 0. -1.
         -2   -1    0    0    0  501 -0.00000000000E+00 -0.00000000000E+00 -0.16071038258E+04  0.16071038258E+04  0.00000000000E+00 0.  1.
         23    2    1    2    0    0 -0.44896129926E+03  0.33624808787E+03 -0.15166258638E+04  0.16193709507E+04  0.87058831526E+02 0.  0.
         13    1    3    3    0    0 -0.16617395385E+03  0.75143823153E+02 -0.51504534310E+03  0.54638089511E+03  0.00000000000E+00 0. -1.
        -13    1    3    3    0    0 -0.28278734541E+03  0.26110426472E+03 -0.10015805207E+04  0.10729900556E+04  0.00000000000E+00 0.  1.
         22    1    1    2    0    0  0.44896129926E+03 -0.33624808787E+03  0.19723103696E+04  0.20505212067E+04  0.00000000000E+00 0. -1.
<mgrwt>
<rscale>  0 0.36414915E+04</rscale>
<asrwt>0</asrwt>
<pdfrwt beam="1">  1        2 0.31735205E+00 0.36414915E+04</pdfrwt>
<pdfrwt beam="2">  1       -2 0.24724674E+00 0.36414915E+04</pdfrwt>
<totfact> 0.33458762E-01</totfact>
</mgrwt>
</event>
<event>
 6    1  0.8968082E-007  0.1437039E+04  0.7818608E-02  0.8927436E-01
         -1   -1    0    0    0  501 -0.00000000000E+00  0.00000000000E+00  0.61122343404E+03  0.61122343404E+03  0.00000000000E+00 0.  1.
          1   -1    0    0  501    0  0.00000000000E+00 -0.00000000000E+00 -0.84465008993E+03  0.84465008993E+03  0.00000000000E+00 0. -1.
         23    2    1    2    0    0 -0.59450205827E+03  0.20188619634E+03 -0.46723754090E+03  0.78590467133E+03  0.71725164491E+02 0.  0.
         13    1    3    3    0    0 -0.58971082954E+03  0.19112631029E+03 -0.45540003786E+03  0.76920564444E+03  0.00000000000E+00 0.  1.
        -13    1    3    3    0    0 -0.47912287318E+01  0.10759886045E+02 -0.11837503045E+02  0.16699026882E+02  0.00000000000E+00 0. -1.
         22    1    1    2    0    0  0.59450205827E+03 -0.20188619634E+03  0.23381088501E+03  0.66996885264E+03  0.00000000000E+00 0.  1.
<mgrwt>
<rscale>  0 0.14370385E+04</rscale>
<asrwt>0</asrwt>
<pdfrwt beam="1">  1        1 0.12994617E+00 0.14370385E+04</pdfrwt>
<pdfrwt beam="2">  1       -1 0.94034375E-01 0.14370385E+04</pdfrwt>
<totfact> 0.21564958E+01</totfact>
</mgrwt>
</event>
<event>
 6    1  0.8968082E-007  0.4590452E+04  0.7818608E-02  0.7894990E-01
         -2   -1    0    0    0  501 -0.00000000000E+00  0.00000000000E+00  0.99490303749E+03  0.99490303749E+03  0.00000000000E+00 0.  1.
          2   -1    0    0  501    0  0.00000000000E+00 -0.00000000000E+00 -0.52950515778E+04  0.52950515778E+04  0.00000000000E+00 0. -1.
         23    2    1    2    0    0 -0.24798130809E+03  0.22723078524E+04 -0.24220336691E+04  0.33315440327E+04  0.89782194009E+02 0.  0.
         11    1    3    3    0    0 -0.82865530827E+02  0.11302082590E+04 -0.11710619805E+04  0.16296084092E+04  0.00000000000E+00 0. -1.
        -11    1    3    3    0    0 -0.16511577726E+03  0.11420995934E+04 -0.12509716885E+04  0.17019356236E+04  0.00000000000E+00 0.  1.
         22    1    1    2    0    0  0.24798130809E+03 -0.22723078524E+04 -0.18781148712E+04  0.29584105825E+04  0.00000000000E+00 0. -1.
<mgrwt>
<rscale>  0 0.45904522E+04</rscale>
<asrwt>0</asrwt>
<pdfrwt beam="1">  1        2 0.81462331E+00 0.45904522E+04</pdfrwt>
<pdfrwt beam="2">  1       -2 0.15306201E+00 0.45904522E+04</pdfrwt>
<totfact> 0.27775286E-03</totfact>
</mgrwt>
</event>
<event>
 6    1  0.8968082E-007  0.2511620E+04  0.7818608E-02  0.8398858E-01
          2   -1    0    0  501    0  0.00000000000E+00  0.00000000000E+00  0.38988124940E+04  0.38988124940E+04  0.00000000000E+00 0. -1.
         -2   -1    0    0    0  501 -0.00000000000E+00 -0.00000000000E+00 -0.40449705323E+03  0.40449705323E+03  0.00000000000E+00 0.  1.
         23    2    1    2    0    0  0.95546756294E+03 -0.77174149895E+03  0.21839848579E+04  0.25073503491E+04  0.92264339677E+02 0.  0.
         13    1    3    3    0    0  0.75359865079E+03 -0.56873312587E+03  0.16267655914E+04  0.18808866484E+04  0.00000000000E+00 0.  1.
        -13    1    3    3    0    0  0.20186891215E+03 -0.20300837308E+03  0.55721926650E+03  0.62646370062E+03  0.00000000000E+00 0. -1.
         22    1    1    2    0    0 -0.95546756294E+03  0.77174149895E+03  0.13103305829E+04  0.17959591982E+04  0.00000000000E+00 0.  1.
<mgrwt>
<rscale>  0 0.25116195E+04</rscale>
<asrwt>0</asrwt>
<pdfrwt beam="1">  1        2 0.59981728E+00 0.25116195E+04</pdfrwt>
<pdfrwt beam="2">  1       -2 0.62230319E-01 0.25116195E+04</pdfrwt>
<totfact> 0.88221295E-01</totfact>
</mgrwt>
</event>
<event>
 6    1  0.8968082E-007  0.2021753E+04  0.7818608E-02  0.8596517E-01
         -1   -1    0    0    0  501 -0.00000000000E+00  0.00000000000E+00  0.77362043140E+03  0.77362043140E+03  0.00000000000E+00 0.  1.
          1   -1    0    0  501    0  0.00000000000E+00 -0.00000000000E+00 -0.13208949020E+04  0.13208949020E+04  0.00000000000E+00 0. -1.
         23    2    1    2    0    0 -0.21727373187E+03 -0.96673963075E+03 -0.77906375601E+02  0.99811221555E+03  0.91461485062E+02 0.  0.
         11    1    3    3    0    0 -0.11536935153E+03 -0.66364946685E+03 -0.25513918995E+02  0.67408579735E+03  0.00000000000E+00 0. -1.
        -11    1    3    3    0    0 -0.10190438033E+03 -0.30309016390E+03 -0.52392456605E+02  0.32402641820E+03  0.00000000000E+00 0.  1.
         22    1    1    2    0    0  0.21727373187E+03  0.96673963075E+03 -0.46936809500E+03  0.10964031178E+04  0.00000000000E+00 0. -1.
<mgrwt>
<rscale>  0 0.20217530E+04</rscale>
<asrwt>0</asrwt>
<pdfrwt beam="1">  1        1 0.20321460E+00 0.20217530E+04</pdfrwt>
<pdfrwt beam="2">  1       -1 0.11901853E+00 0.20217530E+04</pdfrwt>
<totfact> 0.51120838E+00</totfact>
</mgrwt>
</event>
<event>
 6    1  0.8968082E-007  0.1712589E+04  0.7818608E-02  0.8754217E-01
          1   -1    0    0  501    0  0.00000000000E+00  0.00000000000E+00  0.12285049244E+04  0.12285049244E+04  0.00000000000E+00 0. -1.
         -1   -1    0    0    0  501 -0.00000000000E+00 -0.00000000000E+00 -0.59685608152E+03  0.59685608152E+03  0.00000000000E+00 0.  1.
         23    2    1    2    0    0  0.36426766630E+03  0.36586368801E+03 -0.40802857258E+03  0.66455253804E+03  0.92712398659E+02 0.  0.
         11    1    3    3    0    0  0.16530790218E+03  0.10811929970E+03 -0.13070889744E+03  0.23685713281E+03  0.00000000000E+00 0. -1.
        -11    1    3    3    0    0  0.19895976412E+03  0.25774438831E+03 -0.27731967514E+03  0.42769540523E+03  0.00000000000E+00 0.  1.
         22    1    1    2    0    0 -0.36426766630E+03 -0.36586368801E+03  0.10396774155E+04  0.11608084679E+04  0.00000000000E+00 0. -1.
<mgrwt>
<rscale>  0 0.17125894E+04</rscale>
<asrwt>0</asrwt>
<pdfrwt beam="1">  1        1 0.18900076E+00 0.17125894E+04</pdfrwt>
<pdfrwt beam="2">  1       -1 0.91824013E-01 0.17125894E+04</pdfrwt>
<totfact> 0.11188396E+01</totfact>
</mgrwt>
</event>
<event>
 6    1  0.8968082E-007  0.1896871E+04  0.7818608E-02  0.8656415E-01
          1   -1    0    0  501    0  0.00000000000E+00  0.00000000000E+00  0.69375362463E+03  0.69375362463E+03  0.00000000000E+00 0. -1.
         -1   -1    0    0    0  501 -0.00000000000E+00 -0.00000000000E+00 -0.12966134296E+04  0.12966134296E+04  0.00000000000E+00 0.  1.
         23    2    1    2    0    0 -0.62668560202E+03  0.58755621160E+03 -0.71815485111E+03  0.11236202092E+04  0.93908673199E+02 0.  0.
         13    1    3    3    0    0 -0.50104390187E+03  0.49750971866E+03 -0.54844850701E+03  0.89406748996E+03  0.00000000000E+00 0.  1.
        -13    1    3    3    0    0 -0.12564170015E+03  0.90046492937E+02 -0.16970634410E+03  0.22955271929E+03  0.00000000000E+00 0. -1.
         22    1    1    2    0    0  0.62668560202E+03 -0.58755621160E+03  0.11529504616E+03  0.86674684495E+03  0.00000000000E+00 0. -1.
<mgrwt>
<rscale>  0 0.18968714E+04</rscale>
<asrwt>0</asrwt>
<pdfrwt beam="1">  1        1 0.10673133E+00 0.18968714E+04</pdfrwt>
<pdfrwt beam="2">  1       -1 0.19947899E+00 0.18968714E+04</pdfrwt>
<totfact> 0.39218333E+00</totfact>
</mgrwt>
</event>
<event>
 6    1  0.8968082E-007  0.1617995E+04  0.7818608E-02  0.8809569E-01
         -1   -1    0    0    0  501 -0.00000000000E+00  0.00000000000E+00  0.15724837762E+04  0.15724837762E+04  0.00000000000E+00 0.  1.
          1   -1    0    0  501    0  0.00000000000E+00 -0.00000000000E+00 -0.41620561731E+03  0.41620561731E+03  0.00000000000E+00 0. -1.
         23    2    1    2    0    0 -0.73383005386E+03  0.22756563946E+03  0.88090322542E+03  0.11725251808E+04  0.92369577099E+02 0.  0.
         13    1    3    3    0    0 -0.30782923575E+03  0.12825568204E+03  0.33096149024E+03  0.46983387105E+03  0.00000000000E+00 0.  1.
        -13    1    3    3    0    0 -0.42600081811E+03  0.99309957425E+02  0.54994173517E+03  0.70269130972E+03  0.00000000000E+00 0. -1.
         22    1    1    2    0    0  0.73383005386E+03 -0.22756563946E+03  0.27537493351E+03  0.81616421278E+03  0.00000000000E+00 0.  1.
<mgrwt>
<rscale>  0 0.16179945E+04</rscale>
<asrwt>0</asrwt>
<pdfrwt beam="1">  1        1 0.64031634E-01 0.16179945E+04</pdfrwt>
<pdfrwt beam="2">  1       -1 0.24192058E+00 0.16179945E+04</pdfrwt>
<totfact> 0.42935169E+00</totfact>
</mgrwt>
</event>
<event>
 6    1  0.8968082E-007  0.2057232E+04  0.7818608E-02  0.8580321E-01
          1   -1    0    0  501    0  0.00000000000E+00  0.00000000000E+00  0.87651184539E+03  0.87651184539E+03  0.00000000000E+00 0. -1.
         -1   -1    0    0    0  501 -0.00000000000E+00 -0.00000000000E+00 -0.12071152655E+04  0.12071152655E+04  0.00000000000E+00 0.  1.
         23    2    1    2    0    0  0.31746920977E+03  0.97044530906E+03 -0.27341728523E+03  0.10609731856E+04  0.91412754137E+02 0.  0.
         13    1    3    3    0    0  0.94518837282E+02  0.27700192699E+03 -0.36186345858E+02  0.29491241036E+03  0.00000000000E+00 0.  1.
        -13    1    3    3    0    0  0.22295037248E+03  0.69344338207E+03 -0.23723093937E+03  0.76606077521E+03  0.00000000000E+00 0. -1.
         22    1    1    2    0    0 -0.31746920977E+03 -0.97044530906E+03 -0.57186134920E+02  0.10226539254E+04  0.00000000000E+00 0.  1.
<mgrwt>
<rscale>  0 0.20572320E+04</rscale>
<asrwt>0</asrwt>
<pdfrwt beam="1">  1        1 0.13484798E+00 0.20572320E+04</pdfrwt>
<pdfrwt beam="2">  1       -1 0.18571004E+00 0.20572320E+04</pdfrwt>
<totfact> 0.33277132E+00</totfact>
</mgrwt>
</event>
<event>
 6    1  0.1289280E-006  0.2659026E+04  0.7818608E-02  0.8348423E-01
         -1   -1    0    0    0  501 -0.00000000000E+00  0.00000000000E+00  0.12449093243E+04  0.12449093243E+04  0.00000000000E+00 0.  1.
          1   -1    0    0  501    0  0.00000000000E+00 -0.00000000000E+00 -0.14198662125E+04  0.14198662125E+04  0.00000000000E+00 0. -1.
         23    2    1    2    0    0  0.77558252422E+03  0.82258595724E+02  0.98955034805E+03  0.12632150380E+04  0.90595873806E+02 0.  0.
         11    1    3    3    0    0  0.50926896324E+03  0.93699702724E+02  0.62593101929E+03  0.81235715797E+03  0.00000000000E+00 0. -1.
        -11    1    3    3    0    0  0.26631356098E+03 -0.11441107000E+02  0.36361932876E+03  0.45085787998E+03  0.00000000000E+00 0.  1.
         22    1    1    2    0    0 -0.77558252422E+03 -0.82258595724E+02 -0.11645072363E+04  0.14015604988E+04  0.00000000000E+00 0. -1.
<mgrwt>
<rscale>  0 0.26590259E+04</rscale>
<asrwt>0</asrwt>
<pdfrwt beam="1">  1        1 0.21844096E+00 0.26590259E+04</pdfrwt>
<pdfrwt beam="2">  1       -1 0.19152451E+00 0.26590259E+04</pdfrwt>
<totfact> 0.11239895E+00</totfact>
</mgrwt>
</event>
<event>
 6    1  0.8968082E-007  0.2941948E+04  0.7818608E-02  0.8260505E-01
         -2   -1    0    0    0  501 -0.00000000000E+00  0.00000000000E+00  0.14692423371E+04  0.14692423371E+04  0.00000000000E+00 0.  1.
          2   -1    0    0  501    0  0.00000000000E+00 -0.00000000000E+00 -0.14727075580E+04  0.14727075580E+04  0.00000000000E+00 0. -1.
         23    2    1    2    0    0 -0.71722508701E+02 -0.66020298973E+03  0.13092547506E+04  0.14708122980E+04  0.90159349211E+02 0.  0.
         11    1    3    3    0    0  0.62206353956E+01 -0.28344497732E+03  0.61117775352E+03  0.67373436744E+03  0.00000000000E+00 0.  1.
        -11    1    3    3    0    0 -0.77943144097E+02 -0.37675801241E+03  0.69807699706E+03  0.79707793060E+03  0.00000000000E+00 0. -1.
         22    1    1    2    0    0  0.71722508701E+02  0.66020298973E+03 -0.13127199715E+04  0.14711375971E+04  0.00000000000E+00 0. -1.
<mgrwt>
<rscale>  0 0.29419479E+04</rscale>
<asrwt>0</asrwt>
<pdfrwt beam="1">  1        2 0.22657039E+00 0.29419479E+04</pdfrwt>
<pdfrwt beam="2">  1       -2 0.22603728E+00 0.29419479E+04</pdfrwt>
<totfact> 0.10243113E+00</totfact>
</mgrwt>
</event>
<event>
 6    1  0.8968082E-007  0.1676181E+04  0.7818608E-02  0.8775067E-01
          2   -1    0    0  501    0  0.00000000000E+00  0.00000000000E+00  0.33829790005E+04  0.33829790005E+04  0.00000000000E+00 0. -1.
         -2   -1    0    0    0  501 -0.00000000000E+00 -0.00000000000E+00 -0.20762645936E+03  0.20762645936E+03  0.00000000000E+00 0.  1.
         23    2    1    2    0    0  0.36048202153E+02 -0.59908697809E+03  0.28379597166E+04  0.29021008497E+04  0.89270983449E+02 0.  0.
         11    1    3    3    0    0  0.59017319656E+02 -0.50712843760E+03  0.24617104547E+04  0.25140963902E+04  0.00000000000E+00 0.  1.
        -11    1    3    3    0    0 -0.22969117503E+02 -0.91958540489E+02  0.37624926191E+03  0.38800445953E+03  0.00000000000E+00 0. -1.
         22    1    1    2    0    0 -0.36048202153E+02  0.59908697809E+03  0.33739282456E+03  0.68850461019E+03  0.00000000000E+00 0.  1.
<mgrwt>
<rscale>  0 0.16761813E+04</rscale>
<asrwt>0</asrwt>
<pdfrwt beam="1">  1        2 0.52045827E+00 0.16761813E+04</pdfrwt>
<pdfrwt beam="2">  1       -2 0.31942535E-01 0.16761813E+04</pdfrwt>
<totfact> 0.85855988E+00</totfact>
</mgrwt>
</event>
<event>
 6    1  0.8968082E-007  0.1853321E+04  0.7818608E-02  0.8678447E-01
          1   -1    0    0  501    0  0.00000000000E+00  0.00000000000E+00  0.78130452614E+03  0.78130452614E+03  0.00000000000E+00 0. -1.
         -1   -1    0    0    0  501 -0.00000000000E+00 -0.00000000000E+00 -0.10990591264E+04  0.10990591264E+04  0.00000000000E+00 0.  1.
         23    2    1    2    0    0 -0.58393541372E+03  0.24241988599E+03  0.52497553180E+03  0.82682578232E+03  0.91069186845E+02 0.  0.
         13    1    3    3    0    0 -0.24145575500E+03  0.54148864852E+02  0.18751483744E+03  0.31047511245E+03  0.00000000000E+00 0.  1.
        -13    1    3    3    0    0 -0.34247965872E+03  0.18827102114E+03  0.33746069436E+03  0.51635066987E+03  0.00000000000E+00 0. -1.
         22    1    1    2    0    0  0.58393541372E+03 -0.24241988599E+03 -0.84273013209E+03  0.10535378703E+04  0.00000000000E+00 0.  1.
<mgrwt>
<rscale>  0 0.18533212E+04</rscale>
<asrwt>0</asrwt>
<pdfrwt beam="1">  1        1 0.12020070E+00 0.18533212E+04</pdfrwt>
<pdfrwt beam="2">  1       -1 0.16908602E+00 0.18533212E+04</pdfrwt>
<totfact> 0.53902347E+00</totfact>
</mgrwt>
</event>
<event>
 6    1  0.8968082E-007  0.3047401E+04  0.7818608E-02  0.8230323E-01
         -2   -1    0    0    0  501 -0.00000000000E+00  0.00000000000E+00  0.13193358384E+04  0.13193358384E+04  0.00000000000E+00 0.  1.
          2   -1    0    0  501    0  0.00000000000E+00 -0.00000000000E+00 -0.17597214807E+04  0.17597214807E+04  0.00000000000E+00 0. -1.
         23    2    1    2    0    0 -0.12605063629E+04  0.37623000939E+03 -0.99454731473E+03  0.16516399065E+04  0.91458781138E+02 0.  0.
         11    1    3    3    0    0 -0.36773315108E+03  0.79487653804E+02 -0.32147514098E+03  0.49486586443E+03  0.00000000000E+00 0. -1.
        -11    1    3    3    0    0 -0.89277321178E+03  0.29674235559E+03 -0.67307217375E+03  0.11567740420E+04  0.00000000000E+00 0.  1.
         22    1    1    2    0    0  0.12605063629E+04 -0.37623000939E+03  0.55416167235E+03  0.14274174126E+04  0.00000000000E+00 0.  1.
<mgrwt>
<rscale>  0 0.30474013E+04</rscale>
<asrwt>0</asrwt>
<pdfrwt beam="1">  1        2 0.27072638E+00 0.30474013E+04</pdfrwt>
<pdfrwt beam="2">  1       -2 0.20297474E+00 0.30474013E+04</pdfrwt>
<totfact> 0.98520514E-01</totfact>
</mgrwt>
</event>
<event>
 6    1  0.8968082E-007  0.1952547E+04  0.7818608E-02  0.8629134E-01
          1   -1    0    0  501    0  0.00000000000E+00  0.00000000000E+00  0.14709253702E+04  0.14709253702E+04  0.00000000000E+00 0. -1.
         -1   -1    0    0    0  501 -0.00000000000E+00 -0.00000000000E+00 -0.64796623727E+03  0.64796623727E+03  0.00000000000E+00 0.  1.
         23    2    1    2    0    0  0.72710636858E+01  0.68069030963E+03 -0.34389825591E+03  0.76798512222E+03  0.90238415027E+02 0.  0.
         11    1    3    3    0    0  0.47331618418E+02  0.38798357947E+03 -0.20862428001E+03  0.44305262696E+03  0.00000000000E+00 0. -1.
        -11    1    3    3    0    0 -0.40060554732E+02  0.29270673016E+03 -0.13527397589E+03  0.32493249527E+03  0.00000000000E+00 0.  1.
         22    1    1    2    0    0 -0.72710636858E+01 -0.68069030963E+03  0.11668573888E+04  0.13509064852E+04  0.00000000000E+00 0. -1.
<mgrwt>
<rscale>  0 0.19525470E+04</rscale>
<asrwt>0</asrwt>
<pdfrwt beam="1">  1        1 0.22629621E+00 0.19525470E+04</pdfrwt>
<pdfrwt beam="2">  1       -1 0.99687114E-01 0.19525470E+04</pdfrwt>
<totfact> 0.61278036E+00</totfact>
</mgrwt>
</event>
<event>
 6    1  0.8968082E-007  0.2103741E+04  0.7818608E-02  0.8559597E-01
         -1   -1    0    0    0  501 -0.00000000000E+00  0.00000000000E+00  0.33148310578E+03  0.33148310578E+03  0.00000000000E+00 0.  1.
          1   -1    0    0  501    0  0.00000000000E+00 -0.00000000000E+00 -0.33378229907E+04  0.33378229907E+04  0.00000000000E+00 0. -1.
         23    2    1    2    0    0 -0.50069102779E+03  0.57656871235E+03 -0.27623687305E+04  0.28676547324E+04  0.98181849822E+02 0.  0.
         11    1    3    3    0    0 -0.12505560862E+02  0.14566104797E+01 -0.21983628612E+02  0.25333588248E+02  0.00000000000E+00 0. -1.
        -11    1    3    3    0    0 -0.48818546693E+03  0.57511210187E+03 -0.27403851018E+04  0.28423211441E+04  0.00000000000E+00 0.  1.
         22    1    1    2    0    0  0.50069102779E+03 -0.57656871235E+03 -0.24397115445E+03  0.80165136411E+03  0.00000000000E+00 0.  1.
<mgrwt>
<rscale>  0 0.21037414E+04</rscale>
<asrwt>0</asrwt>
<pdfrwt beam="1">  1        1 0.51351126E+00 0.21037414E+04</pdfrwt>
<pdfrwt beam="2">  1       -1 0.50997398E-01 0.21037414E+04</pdfrwt>
<totfact> 0.11905167E+00</totfact>
</mgrwt>
</event>
<event>
 6    1  0.8968082E-007  0.1891171E+04  0.7818608E-02  0.8659263E-01
          1   -1    0    0  501    0  0.00000000000E+00  0.00000000000E+00  0.18771472527E+04  0.18771472527E+04  0.00000000000E+00 0. -1.
         -1   -1    0    0    0  501 -0.00000000000E+00 -0.00000000000E+00 -0.47632507330E+03  0.47632507330E+03  0.00000000000E+00 0.  1.
         23    2    1    2    0    0  0.92904892541E+03  0.11488323196E+03  0.55576788305E+03  0.10923431389E+04  0.89473630125E+02 0.  0.
         11    1    3    3    0    0  0.51812859721E+03  0.96512805141E+02  0.34750721194E+03  0.63129488130E+03  0.00000000000E+00 0. -1.
        -11    1    3    3    0    0  0.41092032820E+03  0.18370426814E+02  0.20826067111E+03  0.46104825760E+03  0.00000000000E+00 0.  1.
         22    1    1    2    0    0 -0.92904892541E+03 -0.11488323196E+03  0.84505429634E+03  0.12611291871E+04  0.00000000000E+00 0. -1.
<mgrwt>
<rscale>  0 0.18911714E+04</rscale>
<asrwt>0</asrwt>
<pdfrwt beam="1">  1        1 0.28879188E+00 0.18911714E+04</pdfrwt>
<pdfrwt beam="2">  1       -1 0.73280782E-01 0.18911714E+04</pdfrwt>
<totfact> 0.63442828E+00</totfact>
</mgrwt>
</event>
<event>
 6    1  0.8968082E-007  0.9254649E+03  0.7818608E-02  0.9394297E-01
          1   -1    0    0  501    0  0.00000000000E+00  0.00000000000E+00  0.35755121571E+03  0.35755121571E+03  0.00000000000E+00 0. -1.
         -1   -1    0    0    0  501 -0.00000000000E+00 -0.00000000000E+00 -0.59885491328E+03  0.59885491328E+03  0.00000000000E+00 0.  1.
         23    2    1    2    0    0 -0.23872079489E+03 -0.30786168686E+03 -0.37121137923E+03  0.54574514727E+03  0.90958460600E+02 0.  0.
         13    1    3    3    0    0 -0.10398198201E+03 -0.19481969818E+03 -0.17132700037E+03  0.27949938897E+03  0.00000000000E+00 0. -1.
        -13    1    3    3    0    0 -0.13473881287E+03 -0.11304198868E+03 -0.19988437886E+03  0.26624575830E+03  0.00000000000E+00 0.  1.
         22    1    1    2    0    0  0.23872079489E+03  0.30786168686E+03  0.12990768166E+03  0.41066098171E+03  0.00000000000E+00 0. -1.
<mgrwt>
<rscale>  0 0.92546486E+03</rscale>
<asrwt>0</asrwt>
<pdfrwt beam="1">  1        1 0.55007880E-01 0.92546486E+03</pdfrwt>
<pdfrwt beam="2">  1       -1 0.92131524E-01 0.92546486E+03</pdfrwt>
<totfact> 0.80433837E+01</totfact>
</mgrwt>
</event>
<event>
 6    1  0.8968082E-007  0.2388001E+04  0.7818608E-02  0.8444009E-01
         -2   -1    0    0    0  501 -0.00000000000E+00  0.00000000000E+00  0.40096293889E+03  0.40096293889E+03  0.00000000000E+00 0.  1.
          2   -1    0    0  501    0  0.00000000000E+00 -0.00000000000E+00 -0.35555350217E+04  0.35555350217E+04  0.00000000000E+00 0. -1.
         23    2    1    2    0    0 -0.26713866110E+02  0.60443918962E+03 -0.32811899994E+04  0.33383616800E+04  0.11131275866E+03 0.  0.
         11    1    3    3    0    0  0.19330392135E+02  0.10319155907E+03 -0.77914681383E+03  0.78618822138E+03  0.00000000000E+00 0. -1.
        -11    1    3    3    0    0 -0.46044258245E+02  0.50124763054E+03 -0.25020431855E+04  0.25521734587E+04  0.00000000000E+00 0.  1.
         22    1    1    2    0    0  0.26713866110E+02 -0.60443918962E+03  0.12661791652E+03  0.61813628058E+03  0.00000000000E+00 0.  1.
<mgrwt>
<rscale>  0 0.23880015E+04</rscale>
<asrwt>0</asrwt>
<pdfrwt beam="1">  1        2 0.54700540E+00 0.23880015E+04</pdfrwt>
<pdfrwt beam="2">  1       -2 0.61686604E-01 0.23880015E+04</pdfrwt>
<totfact> 0.16364681E+00</totfact>
</mgrwt>
</event>
<event>
 6    1  0.8968082E-007  0.5366078E+04  0.7818608E-02  0.7774390E-01
          2   -1    0    0  501    0  0.00000000000E+00  0.00000000000E+00  0.21937023762E+04  0.21937023762E+04  0.00000000000E+00 0. -1.
         -2   -1    0    0    0  501 -0.00000000000E+00 -0.00000000000E+00 -0.32815295811E+04  0.32815295811E+04  0.00000000000E+00 0.  1.
         23    2    1    2    0    0  0.21792955231E+04 -0.15508095866E+04 -0.33982121593E+03  0.26978496806E+04  0.92601778637E+02 0.  0.
         11    1    3    3    0    0  0.16987731362E+04 -0.11615615662E+04 -0.26746719055E+03  0.20752335142E+04  0.00000000000E+00 0. -1.
        -11    1    3    3    0    0  0.48052238690E+03 -0.38924802040E+03 -0.72354025379E+02  0.62261616642E+03  0.00000000000E+00 0.  1.
         22    1    1    2    0    0 -0.21792955231E+04  0.15508095866E+04 -0.74800598899E+03  0.27773822767E+04  0.00000000000E+00 0. -1.
<mgrwt>
<rscale>  0 0.53660784E+04</rscale>
<asrwt>0</asrwt>
<pdfrwt beam="1">  1        2 0.33749268E+00 0.53660784E+04</pdfrwt>
<pdfrwt beam="2">  1       -2 0.50485070E+00 0.53660784E+04</pdfrwt>
<totfact> 0.57221805E-03</totfact>
</mgrwt>
</event>
<event>
 6    1  0.8968082E-007  0.5430766E+04  0.7818608E-02  0.7765288E-01
          2   -1    0    0  501    0  0.00000000000E+00  0.00000000000E+00  0.37397846998E+04  0.37397846998E+04  0.00000000000E+00 0. -1.
         -2   -1    0    0    0  501 -0.00000000000E+00 -0.00000000000E+00 -0.19715853496E+04  0.19715853496E+04  0.00000000000E+00 0.  1.
         23    2    1    2    0    0 -0.80721263076E+03  0.18520505938E+04  0.27911536268E+04  0.34468349790E+04  0.91919371581E+02 0.  0.
         13    1    3    3    0    0 -0.62227426342E+02  0.18228028891E+03  0.30488627950E+03  0.36063000394E+03  0.00000000000E+00 0.  1.
        -13    1    3    3    0    0 -0.74498520441E+03  0.16697703049E+04  0.24862673473E+04  0.30862049751E+04  0.00000000000E+00 0. -1.
         22    1    1    2    0    0  0.80721263076E+03 -0.18520505938E+04 -0.10229542766E+04  0.22645350705E+04  0.00000000000E+00 0.  1.
<mgrwt>
<rscale>  0 0.54307660E+04</rscale>
<asrwt>0</asrwt>
<pdfrwt beam="1">  1        2 0.57535149E+00 0.54307660E+04</pdfrwt>
<pdfrwt beam="2">  1       -2 0.30332082E+00 0.54307660E+04</pdfrwt>
<totfact> 0.11598188E-02</totfact>
</mgrwt>
</event>
<event>
 6    1  0.8968082E-007  0.1807738E+04  0.7818608E-02  0.8702195E-01
          1   -1    0    0  501    0  0.00000000000E+00  0.00000000000E+00  0.99146217045E+03  0.99146217045E+03  0.00000000000E+00 0. -1.
         -1   -1    0    0    0  501 -0.00000000000E+00 -0.00000000000E+00 -0.82401467182E+03  0.82401467182E+03  0.00000000000E+00 0.  1.
         23    2    1    2    0    0  0.14704156149E+02  0.38380098159E+03 -0.73470578704E+03  0.83496679310E+03  0.99285177114E+02 0.  0.
         13    1    3    3    0    0  0.32247950555E+02  0.75514784162E+02 -0.10210171557E+03  0.13102355996E+03  0.00000000000E+00 0. -1.
        -13    1    3    3    0    0 -0.17543794406E+02  0.30828619743E+03 -0.63260407147E+03  0.70394323314E+03  0.00000000000E+00 0.  1.
         22    1    1    2    0    0 -0.14704156149E+02 -0.38380098159E+03  0.90215328567E+03  0.98051004917E+03  0.00000000000E+00 0. -1.
<mgrwt>
<rscale>  0 0.18077382E+04</rscale>
<asrwt>0</asrwt>
<pdfrwt beam="1">  1        1 0.15253264E+00 0.18077382E+04</pdfrwt>
<pdfrwt beam="2">  1       -1 0.12677149E+00 0.18077382E+04</pdfrwt>
<totfact> 0.78300951E+00</totfact>
</mgrwt>
</event>
<event>
 6    1  0.8968082E-007  0.4231350E+04  0.7818608E-02  0.7959436E-01
          1   -1    0    0  501    0  0.00000000000E+00  0.00000000000E+00  0.21461448953E+04  0.21461448953E+04  0.00000000000E+00 0. -1.
         -1   -1    0    0    0  501 -0.00000000000E+00 -0.00000000000E+00 -0.20856372592E+04  0.20856372592E+04  0.00000000000E+00 0.  1.
         23    2    1    2    0    0  0.16971191614E+04  0.88836009748E+03 -0.86581025304E+03  0.21039988144E+04  0.88241178790E+02 0.  0.
         13    1    3    3    0    0  0.13489908270E+03  0.89540602932E+02 -0.93215761470E+02  0.18682735419E+03  0.00000000000E+00 0.  1.
        -13    1    3    3    0    0  0.15622200787E+04  0.79881949454E+03 -0.77259449157E+03  0.19171714602E+04  0.00000000000E+00 0. -1.
         22    1    1    2    0    0 -0.16971191614E+04 -0.88836009748E+03  0.92631788908E+03  0.21277833401E+04  0.00000000000E+00 0. -1.
<mgrwt>
<rscale>  0 0.42313496E+04</rscale>
<asrwt>0</asrwt>
<pdfrwt beam="1">  1        1 0.33017614E+00 0.42313496E+04</pdfrwt>
<pdfrwt beam="2">  1       -1 0.32086727E+00 0.42313496E+04</pdfrwt>
<totfact> 0.43984054E-02</totfact>
</mgrwt>
</event>
<event>
 6    1  0.8968082E-007  0.1978440E+04  0.7818608E-02  0.8616768E-01
          2   -1    0    0  501    0  0.00000000000E+00  0.00000000000E+00  0.22865634505E+04  0.22865634505E+04  0.00000000000E+00 0. -1.
         -2   -1    0    0    0  501 -0.00000000000E+00 -0.00000000000E+00 -0.42795932003E+03  0.42795932003E+03  0.00000000000E+00 0.  1.
         23    2    1    2    0    0 -0.57174791510E+03  0.18373939498E+03  0.20059503760E+04  0.20961646544E+04  0.97023211417E+02 0.  0.
         11    1    3    3    0    0 -0.13720525530E+03  0.87374902163E+02  0.57791585719E+03  0.60037187942E+03  0.00000000000E+00 0. -1.
        -11    1    3    3    0    0 -0.43454265980E+03  0.96364492815E+02  0.14280345188E+04  0.14957927750E+04  0.00000000000E+00 0.  1.
         22    1    1    2    0    0  0.57174791510E+03 -0.18373939498E+03 -0.14734624557E+03  0.61835811612E+03  0.00000000000E+00 0.  1.
<mgrwt>
<rscale>  0 0.19784399E+04</rscale>
<asrwt>0</asrwt>
<pdfrwt beam="1">  1        2 0.35177898E+00 0.19784399E+04</pdfrwt>
<pdfrwt beam="2">  1       -2 0.65839897E-01 0.19784399E+04</pdfrwt>
<totfact> 0.91202055E+00</totfact>
</mgrwt>
</event>
<event>
 6    1  0.8968082E-007  0.2535348E+04  0.7818608E-02  0.8390500E-01
          2   -1    0    0  501    0  0.00000000000E+00  0.00000000000E+00  0.28973654325E+04  0.28973654325E+04  0.00000000000E+00 0. -1.
         -2   -1    0    0    0  501 -0.00000000000E+00 -0.00000000000E+00 -0.55464084910E+03  0.55464084910E+03  0.00000000000E+00 0.  1.
         23    2    1    2    0    0  0.11741113994E+04  0.85657499983E+02  0.18072693132E+04  0.21587208793E+04  0.89323451999E+02 0.  0.
         13    1    3    3    0    0  0.21438192231E+03  0.49740127428E+02  0.34990849430E+03  0.41336381466E+03  0.00000000000E+00 0.  1.
        -13    1    3    3    0    0  0.95972947705E+03  0.35917372555E+02  0.14573608189E+04  0.17453570647E+04  0.00000000000E+00 0. -1.
         22    1    1    2    0    0 -0.11741113994E+04 -0.85657499983E+02  0.53545527026E+03  0.12932854023E+04  0.00000000000E+00 0.  1.
<mgrwt>
<rscale>  0 0.25353479E+04</rscale>
<asrwt>0</asrwt>
<pdfrwt beam="1">  1        2 0.44574852E+00 0.25353479E+04</pdfrwt>
<pdfrwt beam="2">  1       -2 0.85329363E-01 0.25353479E+04</pdfrwt>
<totfact> 0.21417507E+00</totfact>
</mgrwt>
</event>
<event>
 6    1  0.8968082E-007  0.1917598E+04  0.7818608E-02  0.8646146E-01
         -1   -1    0    0    0  501 -0.00000000000E+00  0.00000000000E+00  0.96571958206E+03  0.96571958206E+03  0.00000000000E+00 0.  1.
          1   -1    0    0  501    0  0.00000000000E+00 -0.00000000000E+00 -0.95192794246E+03  0.95192794246E+03  0.00000000000E+00 0. -1.
         23    2    1    2    0    0  0.84483211478E+02  0.86713357307E+03 -0.38826513693E+03  0.95811237763E+03  0.90396156126E+02 0.  0.
         11    1    3    3    0    0  0.48908467950E+01  0.43477341945E+03 -0.22099838680E+03  0.48774187190E+03  0.00000000000E+00 0. -1.
        -11    1    3    3    0    0  0.79592364683E+02  0.43236015362E+03 -0.16726675013E+03  0.47037050572E+03  0.00000000000E+00 0.  1.
         22    1    1    2    0    0 -0.84483211478E+02 -0.86713357307E+03  0.40205677653E+03  0.95953514689E+03  0.00000000000E+00 0.  1.
<mgrwt>
<rscale>  0 0.19175979E+04</rscale>
<asrwt>0</asrwt>
<pdfrwt beam="1">  1        1 0.14645045E+00 0.19175979E+04</pdfrwt>
<pdfrwt beam="2">  1       -1 0.14857224E+00 0.19175979E+04</pdfrwt>
<totfact> 0.55243531E+00</totfact>
</mgrwt>
</event>
<event>
 6    1  0.8968082E-007  0.2981192E+04  0.7818608E-02  0.8249122E-01
          2   -1    0    0  501    0  0.00000000000E+00  0.00000000000E+00  0.23815360189E+04  0.23815360189E+04  0.00000000000E+00 0. -1.
         -2   -1    0    0    0  501 -0.00000000000E+00 -0.00000000000E+00 -0.93295931737E+03  0.93295931737E+03  0.00000000000E+00 0.  1.
         23    2    1    2    0    0 -0.16542482834E+03  0.69762059643E+03  0.21761987590E+04  0.22929897176E+04  0.88999641435E+02 0.  0.
         13    1    3    3    0    0 -0.30438259446E+02  0.20575777193E+03  0.75102312206E+03  0.77929357640E+03  0.00000000000E+00 0.  1.
        -13    1    3    3    0    0 -0.13498656890E+03  0.49186282450E+03  0.14251756369E+04  0.15136961412E+04  0.00000000000E+00 0. -1.
         22    1    1    2    0    0  0.16542482834E+03 -0.69762059643E+03 -0.72762205745E+03  0.10215056186E+04  0.00000000000E+00 0.  1.
<mgrwt>
<rscale>  0 0.29811919E+04</rscale>
<asrwt>0</asrwt>
<pdfrwt beam="1">  1        2 0.36639016E+00 0.29811919E+04</pdfrwt>
<pdfrwt beam="2">  1       -2 0.14353220E+00 0.29811919E+04</pdfrwt>
<totfact> 0.11751770E+00</totfact>
</mgrwt>
</event>
<event>
 6    1  0.8968082E-007  0.2373001E+04  0.7818608E-02  0.8449681E-01
         -1   -1    0    0    0  501 -0.00000000000E+00  0.00000000000E+00  0.91637995716E+03  0.91637995716E+03  0.00000000000E+00 0.  1.
          1   -1    0    0  501    0  0.00000000000E+00 -0.00000000000E+00 -0.15362446808E+04  0.15362446808E+04  0.00000000000E+00 0. -1.
         23    2    1    2    0    0  0.35652839923E+03  0.63018871739E+03 -0.12797727856E+04  0.14729670605E+04  0.86967002397E+02 0.  0.
         13    1    3    3    0    0  0.28329602954E+03  0.46152718116E+03 -0.88626320958E+03  0.10386175696E+04  0.00000000000E+00 0. -1.
        -13    1    3    3    0    0  0.73232369683E+02  0.16866153623E+03 -0.39350957601E+03  0.43434949083E+03  0.00000000000E+00 0.  1.
         22    1    1    2    0    0 -0.35652839923E+03 -0.63018871739E+03  0.65990806194E+03  0.97965757752E+03  0.00000000000E+00 0.  1.
<mgrwt>
<rscale>  0 0.23730013E+04</rscale>
<asrwt>0</asrwt>
<pdfrwt beam="1">  1        1 0.23634533E+00 0.23730013E+04</pdfrwt>
<pdfrwt beam="2">  1       -1 0.14098153E+00 0.23730013E+04</pdfrwt>
<totfact> 0.22824098E+00</totfact>
</mgrwt>
</event>
<event>
 6    1  0.8968082E-007  0.1520430E+04  0.7818608E-02  0.8870980E-01
         -2   -1    0    0    0  501 -0.00000000000E+00  0.00000000000E+00  0.79366763012E+03  0.79366763012E+03  0.00000000000E+00 0.  1.
          2   -1    0    0  501    0  0.00000000000E+00 -0.00000000000E+00 -0.72817250490E+03  0.72817250490E+03  0.00000000000E+00 0. -1.
         23    2    1    2    0    0 -0.24264211354E+03 -0.25213371200E+02 -0.68547019190E+03  0.73224541819E+03  0.82480659106E+02 0.  0.
         11    1    3    3    0    0 -0.92860348863E+02 -0.46474364083E+02 -0.23125487270E+03  0.25349896855E+03  0.00000000000E+00 0. -1.
        -11    1    3    3    0    0 -0.14978176468E+03  0.21260992883E+02 -0.45421531920E+03  0.47874644964E+03  0.00000000000E+00 0.  1.
         22    1    1    2    0    0  0.24264211354E+03  0.25213371200E+02  0.75096531711E+03  0.78959471684E+03  0.00000000000E+00 0.  1.
<mgrwt>
<rscale>  0 0.15204301E+04</rscale>
<asrwt>0</asrwt>
<pdfrwt beam="1">  1        2 0.11202654E+00 0.15204301E+04</pdfrwt>
<pdfrwt beam="2">  1       -2 0.12210271E+00 0.15204301E+04</pdfrwt>
<totfact> 0.19108986E+01</totfact>
</mgrwt>
</event>
<event>
 6    1  0.8968082E-007  0.1641074E+04  0.7818608E-02  0.8795704E-01
         -2   -1    0    0    0  501 -0.00000000000E+00  0.00000000000E+00  0.38177476453E+03  0.38177476453E+03  0.00000000000E+00 0.  1.
          2   -1    0    0  501    0  0.00000000000E+00 -0.00000000000E+00 -0.17635558994E+04  0.17635558994E+04  0.00000000000E+00 0. -1.
         23    2    1    2    0    0  0.69264686876E+03 -0.19584087821E+03 -0.12004685595E+04  0.14030452846E+04  0.96426002439E+02 0.  0.
         13    1    3    3    0    0  0.60376542936E+03 -0.15578235211E+03 -0.10896785569E+04  0.12554681168E+04  0.00000000000E+00 0.  1.
        -13    1    3    3    0    0  0.88881439401E+02 -0.40058526099E+02 -0.11079000253E+03  0.14757716776E+03  0.00000000000E+00 0. -1.
         22    1    1    2    0    0 -0.69264686876E+03  0.19584087821E+03 -0.18131257541E+03  0.74228537935E+03  0.00000000000E+00 0.  1.
<mgrwt>
<rscale>  0 0.16410742E+04</rscale>
<asrwt>0</asrwt>
<pdfrwt beam="1">  1        2 0.27131629E+00 0.16410742E+04</pdfrwt>
<pdfrwt beam="2">  1       -2 0.58734579E-01 0.16410742E+04</pdfrwt>
<totfact> 0.23410804E+01</totfact>
</mgrwt>
</event>
<event>
 6    1  0.8968082E-007  0.3846393E+04  0.7818608E-02  0.8036272E-01
          2   -1    0    0  501    0  0.00000000000E+00  0.00000000000E+00  0.14093897409E+04  0.14093897409E+04  0.00000000000E+00 0. -1.
         -2   -1    0    0    0  501 -0.00000000000E+00 -0.00000000000E+00 -0.26243163586E+04  0.26243163586E+04  0.00000000000E+00 0.  1.
         23    2    1    2    0    0 -0.13623101838E+04  0.13378532234E+04 -0.84387098144E+03  0.20886038992E+04  0.66390741165E+02 0.  0.
         11    1    3    3    0    0 -0.10746355959E+04  0.10772993877E+04 -0.69583194345E+03  0.16731998471E+04  0.00000000000E+00 0. -1.
        -11    1    3    3    0    0 -0.28767458785E+03  0.26055383568E+03 -0.14803903799E+03  0.41540405216E+03  0.00000000000E+00 0.  1.
         22    1    1    2    0    0  0.13623101838E+04 -0.13378532234E+04 -0.37105563627E+03  0.19451022002E+04  0.00000000000E+00 0. -1.
<mgrwt>
<rscale>  0 0.38463929E+04</rscale>
<asrwt>0</asrwt>
<pdfrwt beam="1">  1        2 0.21682919E+00 0.38463929E+04</pdfrwt>
<pdfrwt beam="2">  1       -2 0.40374098E+00 0.38463929E+04</pdfrwt>
<totfact> 0.80038358E-02</totfact>
</mgrwt>
</event>
<event>
 6    1  0.8968082E-007  0.4427923E+04  0.7818608E-02  0.7923378E-01
         -2   -1    0    0    0  501 -0.00000000000E+00  0.00000000000E+00  0.17108045053E+04  0.17108045053E+04  0.00000000000E+00 0.  1.
          2   -1    0    0  501    0  0.00000000000E+00 -0.00000000000E+00 -0.28651002865E+04  0.28651002865E+04  0.00000000000E+00 0. -1.
         23    2    1    2    0    0 -0.21688036978E+04  0.32273763996E+03 -0.26785919492E+03  0.22108172911E+04  0.89974899018E+02 0.  0.
         13    1    3    3    0    0 -0.71694791174E+03  0.12144979632E+03 -0.12895025074E+03  0.73850695890E+03  0.00000000000E+00 0.  1.
        -13    1    3    3    0    0 -0.14518557861E+04  0.20128784364E+03 -0.13890894418E+03  0.14723103322E+04  0.00000000000E+00 0. -1.
         22    1    1    2    0    0  0.21688036978E+04 -0.32273763996E+03 -0.88643658635E+03  0.23650875006E+04  0.00000000000E+00 0.  1.
<mgrwt>
<rscale>  0 0.44279234E+04</rscale>
<asrwt>0</asrwt>
<pdfrwt beam="1">  1        2 0.44078466E+00 0.44279234E+04</pdfrwt>
<pdfrwt beam="2">  1       -2 0.26320069E+00 0.44279234E+04</pdfrwt>
<totfact> 0.85766509E-02</totfact>
</mgrwt>
</event>
<event>
 6    1  0.8968082E-007  0.2510801E+04  0.7818608E-02  0.8399148E-01
          1   -1    0    0  501    0  0.00000000000E+00  0.00000000000E+00  0.14502070403E+04  0.14502070403E+04  0.00000000000E+00 0. -1.
         -1   -1    0    0    0  501 -0.00000000000E+00 -0.00000000000E+00 -0.10867626075E+04  0.10867626075E+04  0.00000000000E+00 0.  1.
         23    2    1    2    0    0 -0.86557037507E+03 -0.63461777259E+03  0.83662197082E+03  0.13640038452E+04  0.92835210380E+02 0.  0.
         13    1    3    3    0    0 -0.47789408836E+02 -0.45839874344E+02  0.27600645173E+02  0.71742019004E+02  0.00000000000E+00 0.  1.
        -13    1    3    3    0    0 -0.81778096623E+03 -0.58877789825E+03  0.80902132565E+03  0.12922618262E+04  0.00000000000E+00 0. -1.
         22    1    1    2    0    0  0.86557037507E+03  0.63461777259E+03 -0.47317753809E+03  0.11729658026E+04  0.00000000000E+00 0.  1.
<mgrwt>
<rscale>  0 0.25108013E+04</rscale>
<asrwt>0</asrwt>
<pdfrwt beam="1">  1        1 0.22310878E+00 0.25108013E+04</pdfrwt>
<pdfrwt beam="2">  1       -1 0.16719425E+00 0.25108013E+04</pdfrwt>
<totfact> 0.16231339E+00</totfact>
</mgrwt>
</event>
<event>
 6    1  0.8968082E-007  0.4823430E+04  0.7818608E-02  0.7856337E-01
         -1   -1    0    0    0  501 -0.00000000000E+00  0.00000000000E+00  0.19803795590E+04  0.19803795590E+04  0.00000000000E+00 0.  1.
          1   -1    0    0  501    0  0.00000000000E+00 -0.00000000000E+00 -0.29369974278E+04  0.29369974278E+04  0.00000000000E+00 0. -1.
         23    2    1    2    0    0 -0.54940645504E+03  0.14159141028E+04  0.14303596261E+04  0.20881859787E+04  0.89060779442E+02 0.  0.
         13    1    3    3    0    0 -0.30185656177E+03  0.89726749715E+03  0.89107347202E+03  0.13000839503E+04  0.00000000000E+00 0. -1.
        -13    1    3    3    0    0 -0.24754989328E+03  0.51864660570E+03  0.53928615406E+03  0.78810202844E+03  0.00000000000E+00 0.  1.
         22    1    1    2    0    0  0.54940645504E+03 -0.14159141028E+04 -0.23869774949E+04  0.28291910081E+04  0.00000000000E+00 0. -1.
<mgrwt>
<rscale>  0 0.48234302E+04</rscale>
<asrwt>0</asrwt>
<pdfrwt beam="1">  1        1 0.45184576E+00 0.48234302E+04</pdfrwt>
<pdfrwt beam="2">  1       -1 0.30467378E+00 0.48234302E+04</pdfrwt>
<totfact> 0.14976381E-02</totfact>
</mgrwt>
</event>
<event>
 6    1  0.8968082E-007  0.1650005E+04  0.7818608E-02  0.8790403E-01
          1   -1    0    0  501    0  0.00000000000E+00  0.00000000000E+00  0.99931715652E+03  0.99931715652E+03  0.00000000000E+00 0. -1.
         -1   -1    0    0    0  501 -0.00000000000E+00 -0.00000000000E+00 -0.68109431941E+03  0.68109431941E+03  0.00000000000E+00 0.  1.
         23    2    1    2    0    0  0.13363044309E+01  0.53444886391E+03  0.79636276406E+03  0.96329561110E+03  0.90041149045E+02 0.  0.
         13    1    3    3    0    0 -0.34908435376E+02  0.14864364761E+03  0.19098040978E+03  0.24451390504E+03  0.00000000000E+00 0.  1.
        -13    1    3    3    0    0  0.36244739807E+02  0.38580521630E+03  0.60538235429E+03  0.71878170606E+03  0.00000000000E+00 0. -1.
         22    1    1    2    0    0 -0.13363044309E+01 -0.53444886391E+03 -0.47813992695E+03  0.71711586483E+03  0.00000000000E+00 0.  1.
<mgrwt>
<rscale>  0 0.16500051E+04</rscale>
<asrwt>0</asrwt>
<pdfrwt beam="1">  1        1 0.15374110E+00 0.16500051E+04</pdfrwt>
<pdfrwt beam="2">  1       -1 0.10478374E+00 0.16500051E+04</pdfrwt>
<totfact> 0.12387124E+01</totfact>
</mgrwt>
</event>
<event>
 6    1  0.8968082E-007  0.4223178E+04  0.7818608E-02  0.7960978E-01
          2   -1    0    0  501    0  0.00000000000E+00  0.00000000000E+00  0.20075680957E+04  0.20075680957E+04  0.00000000000E+00 0. -1.
         -2   -1    0    0    0  501 -0.00000000000E+00 -0.00000000000E+00 -0.22210001252E+04  0.22210001252E+04  0.00000000000E+00 0.  1.
         23    2    1    2    0    0  0.72813013273E+03  0.14003296991E+04 -0.15098292101E+04  0.21860838498E+04  0.91003288564E+02 0.  0.
         11    1    3    3    0    0  0.25732484933E+03  0.45173525648E+03 -0.55016384294E+03  0.75694192255E+03  0.00000000000E+00 0. -1.
        -11    1    3    3    0    0  0.47080528340E+03  0.94859444263E+03 -0.95966536713E+03  0.14291419273E+04  0.00000000000E+00 0.  1.
         22    1    1    2    0    0 -0.72813013273E+03 -0.14003296991E+04  0.12963971805E+04  0.20424843711E+04  0.00000000000E+00 0. -1.
<mgrwt>
<rscale>  0 0.42231784E+04</rscale>
<asrwt>0</asrwt>
<pdfrwt beam="1">  1        2 0.30885663E+00 0.42231784E+04</pdfrwt>
<pdfrwt beam="2">  1       -2 0.34169233E+00 0.42231784E+04</pdfrwt>
<totfact> 0.89950099E-02</totfact>
</mgrwt>
</event>
<event>
 6    1  0.8968082E-007  0.4578023E+03  0.7818608E-02  0.1025421E+00
         -2   -1    0    0    0  501 -0.00000000000E+00  0.00000000000E+00  0.88889829904E+03  0.88889829904E+03  0.00000000000E+00 0.  1.
          2   -1    0    0  501    0  0.00000000000E+00 -0.00000000000E+00 -0.58944590529E+02  0.58944590529E+02  0.00000000000E+00 0. -1.
         23    2    1    2    0    0  0.86214952565E+02  0.14160914608E+03  0.72984551072E+03  0.75417353328E+03  0.92828231033E+02 0.  0.
         13    1    3    3    0    0  0.20381649696E+02  0.25468754783E+02  0.35064538275E+03  0.35215941498E+03  0.00000000000E+00 0.  1.
        -13    1    3    3    0    0  0.65833302869E+02  0.11614039130E+03  0.37920012797E+03  0.40201411830E+03  0.00000000000E+00 0. -1.
         22    1    1    2    0    0 -0.86214952565E+02 -0.14160914608E+03  0.10010819779E+03  0.19366935629E+03  0.00000000000E+00 0. -1.
<mgrwt>
<rscale>  0 0.45780234E+03</rscale>
<asrwt>0</asrwt>
<pdfrwt beam="1">  1        2 0.90683992E-02 0.45780234E+03</pdfrwt>
<pdfrwt beam="2">  1       -2 0.13675357E+00 0.45780234E+03</pdfrwt>
<totfact> 0.29172617E+02</totfact>
</mgrwt>
</event>
<event>
 6    1  0.8968082E-007  0.2815114E+04  0.7818608E-02  0.8298591E-01
         -2   -1    0    0    0  501 -0.00000000000E+00  0.00000000000E+00  0.83613506647E+03  0.83613506647E+03  0.00000000000E+00 0.  1.
          2   -1    0    0  501    0  0.00000000000E+00 -0.00000000000E+00 -0.23694933088E+04  0.23694933088E+04  0.00000000000E+00 0. -1.
         23    2    1    2    0    0 -0.81249944565E+03  0.45823810011E+01 -0.20742065841E+04  0.22295682972E+04  0.92008101514E+02 0.  0.
         11    1    3    3    0    0 -0.65768103072E+03  0.19708405633E+02 -0.17598240649E+04  0.18788064027E+04  0.00000000000E+00 0. -1.
        -11    1    3    3    0    0 -0.15481841493E+03 -0.15126024632E+02 -0.31438251922E+03  0.35076189448E+03  0.00000000000E+00 0.  1.
         22    1    1    2    0    0  0.81249944565E+03 -0.45823810011E+01  0.54084834174E+03  0.97606007815E+03  0.00000000000E+00 0.  1.
<mgrwt>
<rscale>  0 0.28151138E+04</rscale>
<asrwt>0</asrwt>
<pdfrwt beam="1">  1        2 0.36453743E+00 0.28151138E+04</pdfrwt>
<pdfrwt beam="2">  1       -2 0.12863616E+00 0.28151138E+04</pdfrwt>
<totfact> 0.16041240E+00</totfact>
</mgrwt>
</event>
<event>
 6    1  0.8968082E-007  0.4890878E+04  0.7818608E-02  0.7845564E-01
          2   -1    0    0  501    0  0.00000000000E+00  0.00000000000E+00  0.15614940332E+04  0.15614940332E+04  0.00000000000E+00 0. -1.
         -2   -1    0    0    0  501 -0.00000000000E+00 -0.00000000000E+00 -0.38297756713E+04  0.38297756713E+04  0.00000000000E+00 0.  1.
         23    2    1    2    0    0  0.12826640793E+04 -0.63297194293E+03  0.10507872579E+04  0.17771171126E+04  0.90059701199E+02 0.  0.
         13    1    3    3    0    0  0.82454317674E+03 -0.38399540519E+03  0.62014408100E+03  0.11008644797E+04  0.00000000000E+00 0. -1.
        -13    1    3    3    0    0  0.45812090257E+03 -0.24897653773E+03  0.43064317689E+03  0.67625263291E+03  0.00000000000E+00 0.  1.
         22    1    1    2    0    0 -0.12826640793E+04  0.63297194293E+03 -0.33190688960E+04  0.36141525919E+04  0.00000000000E+00 0.  1.
<mgrwt>
<rscale>  0 0.48908780E+04</rscale>
<asrwt>0</asrwt>
<pdfrwt beam="1">  1        2 0.24022985E+00 0.48908780E+04</pdfrwt>
<pdfrwt beam="2">  1       -2 0.58919625E+00 0.48908780E+04</pdfrwt>
<totfact> 0.48776068E-03</totfact>
</mgrwt>
</event>
<event>
 6    1  0.8968082E-007  0.3782611E+04  0.7818608E-02  0.8049897E-01
         -1   -1    0    0    0  501 -0.00000000000E+00  0.00000000000E+00  0.24010064801E+04  0.24010064801E+04  0.00000000000E+00 0.  1.
          1   -1    0    0  501    0  0.00000000000E+00 -0.00000000000E+00 -0.14898070945E+04  0.14898070945E+04  0.00000000000E+00 0. -1.
         23    2    1    2    0    0 -0.92987991279E+03 -0.16455805536E+04  0.44308115798E+03  0.19435727868E+04  0.92424317032E+02 0.  0.
         13    1    3    3    0    0 -0.39553052593E+03 -0.73512884921E+03  0.23936646408E+03  0.86842105342E+03  0.00000000000E+00 0. -1.
        -13    1    3    3    0    0 -0.53434938686E+03 -0.91045170440E+03  0.20371469390E+03  0.10751517334E+04  0.00000000000E+00 0.  1.
         22    1    1    2    0    0  0.92987991279E+03  0.16455805536E+04  0.46811822769E+03  0.19472407878E+04  0.00000000000E+00 0.  1.
<mgrwt>
<rscale>  0 0.37826110E+04</rscale>
<asrwt>0</asrwt>
<pdfrwt beam="1">  1        1 0.22920109E+00 0.37826110E+04</pdfrwt>
<pdfrwt beam="2">  1       -1 0.36938561E+00 0.37826110E+04</pdfrwt>
<totfact> 0.61079124E-02</totfact>
</mgrwt>
</event>
<event>
 6    1  0.8968082E-007  0.1147527E+04  0.7818608E-02  0.9160068E-01
         -1   -1    0    0    0  501 -0.00000000000E+00  0.00000000000E+00  0.65427761493E+03  0.65427761493E+03  0.00000000000E+00 0.  1.
          1   -1    0    0  501    0  0.00000000000E+00 -0.00000000000E+00 -0.50315760332E+03  0.50315760332E+03  0.00000000000E+00 0. -1.
         23    2    1    2    0    0  0.50066996638E+03  0.24573297915E+03 -0.43118566558E+02  0.56685606394E+03  0.91714089260E+02 0.  0.
         11    1    3    3    0    0  0.13193154075E+03  0.45695017152E+02  0.25049477067E+02  0.14185006993E+03  0.00000000000E+00 0.  1.
        -11    1    3    3    0    0  0.36873842563E+03  0.20003796199E+03 -0.68168043625E+02  0.42500599401E+03  0.00000000000E+00 0. -1.
         22    1    1    2    0    0 -0.50066996638E+03 -0.24573297915E+03  0.19423857817E+03  0.59057915432E+03  0.00000000000E+00 0. -1.
<mgrwt>
<rscale>  0 0.11475274E+04</rscale>
<asrwt>0</asrwt>
<pdfrwt beam="1">  1        1 0.77408862E-01 0.11475274E+04</pdfrwt>
<pdfrwt beam="2">  1       -1 0.10065809E+00 0.11475274E+04</pdfrwt>
<totfact> 0.40999907E+01</totfact>
</mgrwt>
</event>
<event>
 6    1  0.8968082E-007  0.2252902E+04  0.7818608E-02  0.8496726E-01
         -2   -1    0    0    0  501 -0.00000000000E+00  0.00000000000E+00  0.48116653224E+03  0.48116653224E+03  0.00000000000E+00 0.  1.
          2   -1    0    0  501    0  0.00000000000E+00 -0.00000000000E+00 -0.26371161810E+04  0.26371161810E+04  0.00000000000E+00 0. -1.
         23    2    1    2    0    0 -0.61432888897E+03  0.78366599212E+03 -0.35638859117E+03  0.10615979122E+04  0.91896290257E+02 0.  0.
         13    1    3    3    0    0 -0.22328612635E+03  0.28180097438E+03 -0.82265571160E+02  0.36883073026E+03  0.00000000000E+00 0. -1.
        -13    1    3    3    0    0 -0.39104276262E+03  0.50186501774E+03 -0.27412302001E+03  0.69276718191E+03  0.00000000000E+00 0.  1.
         22    1    1    2    0    0  0.61432888897E+03 -0.78366599212E+03 -0.17995610576E+04  0.20566848011E+04  0.00000000000E+00 0. -1.
<mgrwt>
<rscale>  0 0.22529022E+04</rscale>
<asrwt>0</asrwt>
<pdfrwt beam="1">  1        2 0.40571018E+00 0.22529022E+04</pdfrwt>
<pdfrwt beam="2">  1       -2 0.74025621E-01 0.22529022E+04</pdfrwt>
<totfact> 0.43299109E+00</totfact>
</mgrwt>
</event>
<event>
 6    1  0.8968082E-007  0.2935285E+04  0.7818608E-02  0.8262456E-01
          2   -1    0    0  501    0  0.00000000000E+00  0.00000000000E+00  0.14971273345E+04  0.14971273345E+04  0.00000000000E+00 0. -1.
         -2   -1    0    0    0  501 -0.00000000000E+00 -0.00000000000E+00 -0.14387387485E+04  0.14387387485E+04  0.00000000000E+00 0.  1.
         23    2    1    2    0    0  0.22545741961E+03 -0.99987542074E+02  0.14748502045E+04  0.14980927791E+04  0.90941147943E+02 0.  0.
         13    1    3    3    0    0  0.11778524085E+03 -0.75866471393E+02  0.59089793129E+03  0.60728037153E+03  0.00000000000E+00 0. -1.
        -13    1    3    3    0    0  0.10767217876E+03 -0.24121070681E+02  0.88395227320E+03  0.89081240754E+03  0.00000000000E+00 0.  1.
         22    1    1    2    0    0 -0.22545741961E+03  0.99987542074E+02 -0.14164616185E+04  0.14377733039E+04  0.00000000000E+00 0.  1.
<mgrwt>
<rscale>  0 0.29352854E+04</rscale>
<asrwt>0</asrwt>
<pdfrwt beam="1">  1        2 0.23032728E+00 0.29352854E+04</pdfrwt>
<pdfrwt beam="2">  1       -2 0.22134442E+00 0.29352854E+04</pdfrwt>
<totfact> 0.10627485E+00</totfact>
</mgrwt>
</event>
<event>
 6    1  0.8968082E-007  0.5658146E+04  0.7818608E-02  0.7734295E-01
          2   -1    0    0  501    0  0.00000000000E+00  0.00000000000E+00  0.42813954070E+04  0.42813954070E+04  0.00000000000E+00 0. -1.
         -2   -1    0    0    0  501 -0.00000000000E+00 -0.00000000000E+00 -0.18694032023E+04  0.18694032023E+04  0.00000000000E+00 0.  1.
         23    2    1    2    0    0 -0.23662084413E+04  0.36300050388E+03  0.28436922299E+04  0.37182944130E+04  0.91739246361E+02 0.  0.
         13    1    3    3    0    0 -0.20811360334E+04  0.34052406941E+03  0.25360215492E+04  0.32982554675E+04  0.00000000000E+00 0. -1.
        -13    1    3    3    0    0 -0.28507240795E+03  0.22476434478E+02  0.30767068073E+03  0.42003894541E+03  0.00000000000E+00 0.  1.
         22    1    1    2    0    0  0.23662084413E+04 -0.36300050388E+03 -0.43170002516E+03  0.24325041963E+04  0.00000000000E+00 0.  1.
<mgrwt>
<rscale>  0 0.56581461E+04</rscale>
<asrwt>0</asrwt>
<pdfrwt beam="1">  1        2 0.65867621E+00 0.56581461E+04</pdfrwt>
<pdfrwt beam="2">  1       -2 0.28760049E+00 0.56581461E+04</pdfrwt>
<totfact> 0.51140827E-03</totfact>
</mgrwt>
</event>
<event>
 6    1  0.8968082E-007  0.1658190E+04  0.7818608E-02  0.8785576E-01
         -2   -1    0    0    0  501 -0.00000000000E+00  0.00000000000E+00  0.27738540161E+03  0.27738540161E+03  0.00000000000E+00 0.  1.
          2   -1    0    0  501    0  0.00000000000E+00 -0.00000000000E+00 -0.24781356142E+04  0.24781356142E+04  0.00000000000E+00 0. -1.
         23    2    1    2    0    0  0.41797030659E+03 -0.33220099243E+03 -0.54901585575E+02  0.54424920831E+03  0.90201663439E+02 0.  0.
         11    1    3    3    0    0  0.23471404273E+03 -0.19923697356E+03  0.12163504846E+02  0.30811362245E+03  0.00000000000E+00 0. -1.
        -11    1    3    3    0    0  0.18325626386E+03 -0.13296401887E+03 -0.67065090421E+02  0.23613558586E+03  0.00000000000E+00 0.  1.
         22    1    1    2    0    0 -0.41797030659E+03  0.33220099243E+03 -0.21458486270E+04  0.22112718075E+04  0.00000000000E+00 0. -1.
<mgrwt>
<rscale>  0 0.16581901E+04</rscale>
<asrwt>0</asrwt>
<pdfrwt beam="1">  1        2 0.38125165E+00 0.16581901E+04</pdfrwt>
<pdfrwt beam="2">  1       -2 0.42674675E-01 0.16581901E+04</pdfrwt>
<totfact> 0.17842279E+01</totfact>
</mgrwt>
</event>
<event>
 6    1  0.8968082E-007  0.9422749E+03  0.7818608E-02  0.9374226E-01
          1   -1    0    0  501    0  0.00000000000E+00  0.00000000000E+00  0.21251163185E+04  0.21251163185E+04  0.00000000000E+00 0. -1.
         -1   -1    0    0    0  501 -0.00000000000E+00 -0.00000000000E+00 -0.10445099477E+03  0.10445099477E+03  0.00000000000E+00 0.  1.
         23    2    1    2    0    0  0.34077781129E+03 -0.64627781230E+02  0.17589878384E+04  0.17950775285E+04  0.89212391743E+02 0.  0.
         11    1    3    3    0    0  0.28478886316E+03 -0.37755832382E+02  0.12655502801E+04  0.12977471676E+04  0.00000000000E+00 0.  1.
        -11    1    3    3    0    0  0.55988948124E+02 -0.26871948848E+02  0.49343755829E+03  0.49733036090E+03  0.00000000000E+00 0. -1.
         22    1    1    2    0    0 -0.34077781129E+03  0.64627781230E+02  0.26167748537E+03  0.43448978483E+03  0.00000000000E+00 0.  1.
<mgrwt>
<rscale>  0 0.94227494E+03</rscale>
<asrwt>0</asrwt>
<pdfrwt beam="1">  1        1 0.32694094E+00 0.94227494E+03</pdfrwt>
<pdfrwt beam="2">  1       -1 0.16069385E-01 0.94227494E+03</pdfrwt>
<totfact> 0.73065883E+01</totfact>
</mgrwt>
</event>
<event>
 6    1  0.8968082E-007  0.7657828E+03  0.7818608E-02  0.9610910E-01
         -2   -1    0    0    0  501 -0.00000000000E+00  0.00000000000E+00  0.56959504838E+02  0.56959504838E+02  0.00000000000E+00 0.  1.
          2   -1    0    0  501    0  0.00000000000E+00 -0.00000000000E+00 -0.25738607213E+04  0.25738607213E+04  0.00000000000E+00 0. -1.
         23    2    1    2    0    0 -0.83961666133E+02 -0.27262318551E+02 -0.25367227815E+04  0.25403454240E+04  0.10295439511E+03 0.  0.
         11    1    3    3    0    0 -0.15776280564E+02 -0.53130737090E+02 -0.70664232316E+03  0.70881248517E+03  0.00000000000E+00 0.  1.
        -11    1    3    3    0    0 -0.68185385569E+02  0.25868418538E+02 -0.18300804583E+04  0.18315329388E+04  0.00000000000E+00 0. -1.
         22    1    1    2    0    0  0.83961666133E+02  0.27262318551E+02  0.19821565018E+02  0.90474802196E+02  0.00000000000E+00 0.  1.
<mgrwt>
<rscale>  0 0.76578282E+03</rscale>
<asrwt>0</asrwt>
<pdfrwt beam="1">  1        2 0.39597854E+00 0.76578282E+03</pdfrwt>
<pdfrwt beam="2">  1       -2 0.87630016E-02 0.76578282E+03</pdfrwt>
<totfact> 0.27837637E+02</totfact>
</mgrwt>
</event>
<event>
 6    1  0.8968082E-007  0.1010138E+04  0.7818608E-02  0.9297495E-01
          2   -1    0    0  501    0  0.00000000000E+00  0.00000000000E+00  0.23170044104E+04  0.23170044104E+04  0.00000000000E+00 0. -1.
         -2   -1    0    0    0  501 -0.00000000000E+00 -0.00000000000E+00 -0.11009684878E+03  0.11009684878E+03  0.00000000000E+00 0.  1.
         23    2    1    2    0    0  0.28630241116E+03 -0.38555559390E+03  0.76919636377E+03  0.91130586565E+03  0.90516010257E+02 0.  0.
         13    1    3    3    0    0  0.38954585376E+02 -0.12189103877E+02  0.65371388181E+02  0.77067842631E+02  0.00000000000E+00 0. -1.
        -13    1    3    3    0    0  0.24734782578E+03 -0.37336649002E+03  0.70382497558E+03  0.83423802301E+03  0.00000000000E+00 0.  1.
         22    1    1    2    0    0 -0.28630241116E+03  0.38555559390E+03  0.14377111978E+04  0.15157953935E+04  0.00000000000E+00 0. -1.
<mgrwt>
<rscale>  0 0.10101384E+04</rscale>
<asrwt>0</asrwt>
<pdfrwt beam="1">  1        2 0.35646218E+00 0.10101384E+04</pdfrwt>
<pdfrwt beam="2">  1       -2 0.16937978E-01 0.10101384E+04</pdfrwt>
<totfact> 0.12732450E+02</totfact>
</mgrwt>
</event>
<event>
 6    1  0.8968082E-007  0.1135381E+04  0.7818608E-02  0.9171377E-01
          2   -1    0    0  501    0  0.00000000000E+00  0.00000000000E+00  0.11186113548E+04  0.11186113548E+04  0.00000000000E+00 0. -1.
         -2   -1    0    0    0  501 -0.00000000000E+00 -0.00000000000E+00 -0.28810066655E+03  0.28810066655E+03  0.00000000000E+00 0.  1.
         23    2    1    2    0    0  0.18722236504E+03 -0.42483773684E+03  0.21223971125E+02  0.47371453630E+03  0.91737060884E+02 0.  0.
         13    1    3    3    0    0  0.81848182780E+02 -0.18037027249E+03 -0.36271735811E+02  0.20136583385E+03  0.00000000000E+00 0. -1.
        -13    1    3    3    0    0  0.10537418226E+03 -0.24446746434E+03  0.57495706937E+02  0.27234870245E+03  0.00000000000E+00 0.  1.
         22    1    1    2    0    0 -0.18722236504E+03  0.42483773684E+03  0.80928671711E+03  0.93299748505E+03  0.00000000000E+00 0. -1.
<mgrwt>
<rscale>  0 0.11353813E+04</rscale>
<asrwt>0</asrwt>
<pdfrwt beam="1">  1        2 0.17209405E+00 0.11353813E+04</pdfrwt>
<pdfrwt beam="2">  1       -2 0.44323180E-01 0.11353813E+04</pdfrwt>
<totfact> 0.10142919E+02</totfact>
</mgrwt>
</event>
<event>
 6    1  0.8968082E-007  0.4072403E+04  0.7818608E-02  0.7990098E-01
          1   -1    0    0  501    0  0.00000000000E+00  0.00000000000E+00  0.32102027650E+04  0.32102027650E+04  0.00000000000E+00 0. -1.
         -1   -1    0    0    0  501 -0.00000000000E+00 -0.00000000000E+00 -0.12915432651E+04  0.12915432651E+04  0.00000000000E+00 0.  1.
         23    2    1    2    0    0  0.14643407267E+03 -0.95729232458E+03  0.29385162432E+04  0.30953466170E+04  0.91877286618E+02 0.  0.
         11    1    3    3    0    0  0.25112836228E+02 -0.38495283353E+03  0.12646871462E+04  0.13222151551E+04  0.00000000000E+00 0. -1.
        -11    1    3    3    0    0  0.12132123644E+03 -0.57233949105E+03  0.16738290969E+04  0.17731314619E+04  0.00000000000E+00 0.  1.
         22    1    1    2    0    0 -0.14643407267E+03  0.95729232458E+03 -0.10198567433E+04  0.14063994131E+04  0.00000000000E+00 0.  1.
<mgrwt>
<rscale>  0 0.40724026E+04</rscale>
<asrwt>0</asrwt>
<pdfrwt beam="1">  1        1 0.49387735E+00 0.40724026E+04</pdfrwt>
<pdfrwt beam="2">  1       -1 0.19869896E+00 0.40724026E+04</pdfrwt>
<totfact> 0.49885128E-02</totfact>
</mgrwt>
</event>
<event>
 6    1  0.8968082E-007  0.2444967E+04  0.7818608E-02  0.8422858E-01
          2   -1    0    0  501    0  0.00000000000E+00  0.00000000000E+00  0.30572190569E+04  0.30572190569E+04  0.00000000000E+00 0. -1.
         -2   -1    0    0    0  501 -0.00000000000E+00 -0.00000000000E+00 -0.48883170515E+03  0.48883170515E+03  0.00000000000E+00 0.  1.
         23    2    1    2    0    0 -0.19426208285E+03  0.10335535671E+04  0.21850765947E+04  0.24267215570E+04  0.91907874697E+02 0.  0.
         11    1    3    3    0    0 -0.14033592965E+03  0.72018588158E+03  0.14247612280E+04  0.16025936584E+04  0.00000000000E+00 0. -1.
        -11    1    3    3    0    0 -0.53926153200E+02  0.31336768551E+03  0.76031536672E+03  0.82412789857E+03  0.00000000000E+00 0.  1.
         22    1    1    2    0    0  0.19426208285E+03 -0.10335535671E+04  0.38331075701E+03  0.11193292051E+04  0.00000000000E+00 0. -1.
<mgrwt>
<rscale>  0 0.24449668E+04</rscale>
<asrwt>0</asrwt>
<pdfrwt beam="1">  1        2 0.47034138E+00 0.24449668E+04</pdfrwt>
<pdfrwt beam="2">  1       -2 0.75204879E-01 0.24449668E+04</pdfrwt>
<totfact> 0.22794087E+00</totfact>
</mgrwt>
</event>
<event>
 6    1  0.8968082E-007  0.3950804E+04  0.7818608E-02  0.8014545E-01
         -3   -1    0    0    0  501 -0.00000000000E+00  0.00000000000E+00  0.21502268219E+04  0.21502268219E+04  0.00000000000E+00 0.  1.
          3   -1    0    0  501    0  0.00000000000E+00 -0.00000000000E+00 -0.18147913298E+04  0.18147913298E+04  0.00000000000E+00 0. -1.
         23    2    1    2    0    0  0.71988112567E+03 -0.86320742960E+03 -0.14606595700E+04  0.18462181674E+04  0.10788531176E+03 0.  0.
         13    1    3    3    0    0  0.28299741092E+03 -0.26817369676E+03 -0.46679663539E+03  0.60819714322E+03  0.00000000000E+00 0.  1.
        -13    1    3    3    0    0  0.43688371475E+03 -0.59503373284E+03 -0.99386293461E+03  0.12380210241E+04  0.00000000000E+00 0. -1.
         22    1    1    2    0    0 -0.71988112567E+03  0.86320742960E+03  0.17960950621E+04  0.21187999843E+04  0.00000000000E+00 0.  1.
<mgrwt>
<rscale>  0 0.39508040E+04</rscale>
<asrwt>0</asrwt>
<pdfrwt beam="1">  1        3 0.27919867E+00 0.39508040E+04</pdfrwt>
<pdfrwt beam="2">  1       -3 0.33080413E+00 0.39508040E+04</pdfrwt>
<totfact> 0.26315563E-03</totfact>
</mgrwt>
</event>
<event>
 6    1  0.8968082E-007  0.2143239E+04  0.7818608E-02  0.8542432E-01
         -1   -1    0    0    0  501 -0.00000000000E+00  0.00000000000E+00  0.86618752071E+03  0.86618752071E+03  0.00000000000E+00 0.  1.
          1   -1    0    0  501    0  0.00000000000E+00 -0.00000000000E+00 -0.13257733466E+04  0.13257733466E+04  0.00000000000E+00 0. -1.
         23    2    1    2    0    0  0.14968794157E+02 -0.23798411149E+03 -0.12966684819E+04  0.13215771156E+04  0.91413447446E+02 0.  0.
         13    1    3    3    0    0 -0.34033876438E+01 -0.19087990062E+03 -0.80556413787E+03  0.82787698345E+03  0.00000000000E+00 0. -1.
        -13    1    3    3    0    0  0.18372181801E+02 -0.47104210867E+02 -0.49110434403E+03  0.49370013213E+03  0.00000000000E+00 0.  1.
         22    1    1    2    0    0 -0.14968794157E+02  0.23798411149E+03  0.83708265606E+03  0.87038375168E+03  0.00000000000E+00 0.  1.
<mgrwt>
<rscale>  0 0.21432390E+04</rscale>
<asrwt>0</asrwt>
<pdfrwt beam="1">  1        1 0.20396513E+00 0.21432390E+04</pdfrwt>
<pdfrwt beam="2">  1       -1 0.13325962E+00 0.21432390E+04</pdfrwt>
<totfact> 0.37832723E+00</totfact>
</mgrwt>
</event>
<event>
 6    1  0.8968082E-007  0.6376391E+03  0.7818608E-02  0.9830254E-01
         -1   -1    0    0    0  501 -0.00000000000E+00  0.00000000000E+00  0.25954671345E+03  0.25954671345E+03  0.00000000000E+00 0.  1.
          1   -1    0    0  501    0  0.00000000000E+00 -0.00000000000E+00 -0.39162853721E+03  0.39162853721E+03  0.00000000000E+00 0. -1.
         23    2    1    2    0    0  0.24961596205E+03 -0.35383410422E+02 -0.25612664340E+03  0.37019975080E+03  0.88808129081E+02 0.  0.
         13    1    3    3    0    0  0.12453424925E+03 -0.46357596524E+02 -0.84234157226E+02  0.15733149474E+03  0.00000000000E+00 0.  1.
        -13    1    3    3    0    0  0.12508171279E+03  0.10974186102E+02 -0.17189248618E+03  0.21286825606E+03  0.00000000000E+00 0. -1.
         22    1    1    2    0    0 -0.24961596205E+03  0.35383410422E+02  0.12404481964E+03  0.28097549986E+03  0.00000000000E+00 0.  1.
<mgrwt>
<rscale>  0 0.63763908E+03</rscale>
<asrwt>0</asrwt>
<pdfrwt beam="1">  1        1 0.60250544E-01 0.63763908E+03</pdfrwt>
<pdfrwt beam="2">  1       -1 0.39930264E-01 0.63763908E+03</pdfrwt>
<totfact> 0.38183444E+02</totfact>
</mgrwt>
</event>
<event>
 6    1  0.8968082E-007  0.1555330E+04  0.7818608E-02  0.8848470E-01
          1   -1    0    0  501    0  0.00000000000E+00  0.00000000000E+00  0.64028813123E+03  0.64028813123E+03  0.00000000000E+00 0. -1.
         -1   -1    0    0    0  501 -0.00000000000E+00 -0.00000000000E+00 -0.94451719913E+03  0.94451719913E+03  0.00000000000E+00 0.  1.
         23    2    1    2    0    0 -0.45589594860E+03 -0.12860716920E+03  0.47266546634E+03  0.67488992922E+03  0.87651888560E+02 0.  0.
         11    1    3    3    0    0 -0.11522633452E+03 -0.38517754009E+02  0.71641320238E+02  0.14104327104E+03  0.00000000000E+00 0.  1.
        -11    1    3    3    0    0 -0.34066961408E+03 -0.90089415189E+02  0.40102414610E+03  0.53384665817E+03  0.00000000000E+00 0. -1.
         22    1    1    2    0    0  0.45589594860E+03  0.12860716920E+03 -0.77689453423E+03  0.90991540114E+03  0.00000000000E+00 0.  1.
<mgrwt>
<rscale>  0 0.15553304E+04</rscale>
<asrwt>0</asrwt>
<pdfrwt beam="1">  1        1 0.98505867E-01 0.15553304E+04</pdfrwt>
<pdfrwt beam="2">  1       -1 0.14531034E+00 0.15553304E+04</pdfrwt>
<totfact> 0.11395581E+01</totfact>
</mgrwt>
</event>
<event>
 6    1  0.8968082E-007  0.1834895E+04  0.7818608E-02  0.8687960E-01
          2   -1    0    0  501    0  0.00000000000E+00  0.00000000000E+00  0.35839682473E+04  0.35839682473E+04  0.00000000000E+00 0. -1.
         -2   -1    0    0    0  501 -0.00000000000E+00 -0.00000000000E+00 -0.23485412125E+03  0.23485412125E+03  0.00000000000E+00 0.  1.
         23    2    1    2    0    0  0.11348096933E+03 -0.86032002364E+03  0.22831983333E+04  0.24443388471E+04  0.93644523388E+02 0.  0.
         11    1    3    3    0    0  0.26199341660E+02 -0.27744931068E+03  0.61836628969E+03  0.67826351349E+03  0.00000000000E+00 0.  1.
        -11    1    3    3    0    0  0.87281627671E+02 -0.58287071295E+03  0.16648320436E+04  0.17660753336E+04  0.00000000000E+00 0. -1.
         22    1    1    2    0    0 -0.11348096933E+03  0.86032002364E+03  0.10659157927E+04  0.13744835214E+04  0.00000000000E+00 0. -1.
<mgrwt>
<rscale>  0 0.18348948E+04</rscale>
<asrwt>0</asrwt>
<pdfrwt beam="1">  1        2 0.55137969E+00 0.18348948E+04</pdfrwt>
<pdfrwt beam="2">  1       -2 0.36131406E-01 0.18348948E+04</pdfrwt>
<totfact> 0.48513091E+00</totfact>
</mgrwt>
</event>
<event>
 6    1  0.8968082E-007  0.2772811E+04  0.7818608E-02  0.8311760E-01
         -2   -1    0    0    0  501 -0.00000000000E+00  0.00000000000E+00  0.13157378496E+04  0.13157378496E+04  0.00000000000E+00 0.  1.
          2   -1    0    0  501    0  0.00000000000E+00 -0.00000000000E+00 -0.14608683249E+04  0.14608683249E+04  0.00000000000E+00 0. -1.
         23    2    1    2    0    0 -0.11454871763E+04 -0.76868362945E+03 -0.19503172090E+03  0.13962056791E+04  0.91310092052E+02 0.  0.
         11    1    3    3    0    0 -0.57590340908E+03 -0.39075036682E+03 -0.14435264324E+03  0.71076597511E+03  0.00000000000E+00 0. -1.
        -11    1    3    3    0    0 -0.56958376721E+03 -0.37793326262E+03 -0.50679077666E+02  0.68543970397E+03  0.00000000000E+00 0.  1.
         22    1    1    2    0    0  0.11454871763E+04  0.76868362945E+03  0.49901245611E+02  0.13804004953E+04  0.00000000000E+00 0.  1.
<mgrwt>
<rscale>  0 0.27728107E+04</rscale>
<asrwt>0</asrwt>
<pdfrwt beam="1">  1        2 0.22474897E+00 0.27728107E+04</pdfrwt>
<pdfrwt beam="2">  1       -2 0.20242121E+00 0.27728107E+04</pdfrwt>
<totfact> 0.14940016E+00</totfact>
</mgrwt>
</event>
<event>
 6    1  0.8968082E-007  0.1965579E+04  0.7818608E-02  0.8622885E-01
          1   -1    0    0  501    0  0.00000000000E+00  0.00000000000E+00  0.72737377292E+03  0.72737377292E+03  0.00000000000E+00 0. -1.
         -1   -1    0    0    0  501 -0.00000000000E+00 -0.00000000000E+00 -0.13278933221E+04  0.13278933221E+04  0.00000000000E+00 0.  1.
         23    2    1    2    0    0 -0.33367888271E+03  0.50379930960E+03 -0.11085060479E+04  0.12658333588E+04  0.91613825273E+02 0.  0.
         11    1    3    3    0    0 -0.87369783534E+02  0.69817527508E+02 -0.18701963886E+03  0.21790895241E+03  0.00000000000E+00 0. -1.
        -11    1    3    3    0    0 -0.24630909917E+03  0.43398178209E+03 -0.92148640901E+03  0.10479244064E+04  0.00000000000E+00 0.  1.
         22    1    1    2    0    0  0.33367888271E+03 -0.50379930960E+03  0.50798649865E+03  0.78943373625E+03  0.00000000000E+00 0. -1.
<mgrwt>
<rscale>  0 0.19655786E+04</rscale>
<asrwt>0</asrwt>
<pdfrwt beam="1">  1        1 0.11190366E+00 0.19655786E+04</pdfrwt>
<pdfrwt beam="2">  1       -1 0.20429128E+00 0.19655786E+04</pdfrwt>
<totfact> 0.33600961E+00</totfact>
</mgrwt>
</event>
<event>
 6    1  0.8968082E-007  0.1804110E+04  0.7818608E-02  0.8704117E-01
         -1   -1    0    0    0  501 -0.00000000000E+00  0.00000000000E+00  0.42588944535E+03  0.42588944535E+03  0.00000000000E+00 0.  1.
          1   -1    0    0  501    0  0.00000000000E+00 -0.00000000000E+00 -0.19105969000E+04  0.19105969000E+04  0.00000000000E+00 0. -1.
         23    2    1    2    0    0 -0.28265182024E+03 -0.30083907985E+03  0.29110901822E+03  0.51332416147E+03  0.91438672424E+02 0.  0.
         13    1    3    3    0    0 -0.17443229587E+03 -0.24545488746E+03  0.21255820391E+03  0.36858610618E+03  0.00000000000E+00 0. -1.
        -13    1    3    3    0    0 -0.10821952437E+03 -0.55384192390E+02  0.78550814309E+02  0.14473805529E+03  0.00000000000E+00 0.  1.
         22    1    1    2    0    0  0.28265182024E+03  0.30083907985E+03 -0.17758164729E+04  0.18231621839E+04  0.00000000000E+00 0. -1.
<mgrwt>
<rscale>  0 0.18041098E+04</rscale>
<asrwt>0</asrwt>
<pdfrwt beam="1">  1        1 0.29393798E+00 0.18041098E+04</pdfrwt>
<pdfrwt beam="2">  1       -1 0.65521455E-01 0.18041098E+04</pdfrwt>
<totfact> 0.76328574E+00</totfact>
</mgrwt>
</event>
<event>
 6    1  0.8968082E-007  0.1902087E+04  0.7818608E-02  0.8653818E-01
          2   -1    0    0  501    0  0.00000000000E+00  0.00000000000E+00  0.70237230432E+03  0.70237230432E+03  0.00000000000E+00 0. -1.
         -2   -1    0    0    0  501 -0.00000000000E+00 -0.00000000000E+00 -0.12877557602E+04  0.12877557602E+04  0.00000000000E+00 0.  1.
         23    2    1    2    0    0  0.23949570103E+03 -0.73344407544E+03 -0.87128107908E+03  0.11673061801E+04  0.90413476675E+02 0.  0.
         13    1    3    3    0    0  0.10643379019E+03 -0.34445348641E+03 -0.47468952539E+03  0.59607591925E+03  0.00000000000E+00 0. -1.
        -13    1    3    3    0    0  0.13306191084E+03 -0.38899058904E+03 -0.39659155368E+03  0.57123026086E+03  0.00000000000E+00 0.  1.
         22    1    1    2    0    0 -0.23949570103E+03  0.73344407544E+03  0.28589762315E+03  0.82282188445E+03  0.00000000000E+00 0. -1.
<mgrwt>
<rscale>  0 0.19020873E+04</rscale>
<asrwt>0</asrwt>
<pdfrwt beam="1">  1        2 0.10805728E+00 0.19020873E+04</pdfrwt>
<pdfrwt beam="2">  1       -2 0.19811627E+00 0.19020873E+04</pdfrwt>
<totfact> 0.52246826E+00</totfact>
</mgrwt>
</event>
<event>
 6    1  0.8968082E-007  0.1806292E+04  0.7818608E-02  0.8702961E-01
          2   -1    0    0  501    0  0.00000000000E+00  0.00000000000E+00  0.17559575572E+04  0.17559575572E+04  0.00000000000E+00 0. -1.
         -2   -1    0    0    0  501 -0.00000000000E+00 -0.00000000000E+00 -0.46451732380E+03  0.46451732380E+03  0.00000000000E+00 0.  1.
         23    2    1    2    0    0 -0.53250138733E+03  0.58614786756E+03  0.11945313395E+03  0.80602063593E+03  0.90956935813E+02 0.  0.
         13    1    3    3    0    0 -0.47610480984E+03  0.49101234793E+03  0.80002073250E+02  0.68859948264E+03  0.00000000000E+00 0.  1.
        -13    1    3    3    0    0 -0.56396577495E+02  0.95135519626E+02  0.39451060700E+02  0.11742115328E+03  0.00000000000E+00 0. -1.
         22    1    1    2    0    0  0.53250138733E+03 -0.58614786756E+03  0.11719870995E+04  0.14144542451E+04  0.00000000000E+00 0. -1.
<mgrwt>
<rscale>  0 0.18062920E+04</rscale>
<asrwt>0</asrwt>
<pdfrwt beam="1">  1        2 0.27014731E+00 0.18062920E+04</pdfrwt>
<pdfrwt beam="2">  1       -2 0.71464205E-01 0.18062920E+04</pdfrwt>
<totfact> 0.15300650E+01</totfact>
</mgrwt>
</event>
<event>
 6    1  0.8968082E-007  0.3985724E+04  0.7818608E-02  0.8007433E-01
         -2   -1    0    0    0  501 -0.00000000000E+00  0.00000000000E+00  0.92904909401E+03  0.92904909401E+03  0.00000000000E+00 0.  1.
          2   -1    0    0  501    0  0.00000000000E+00 -0.00000000000E+00 -0.42747988956E+04  0.42747988956E+04  0.00000000000E+00 0. -1.
         23    2    1    2    0    0 -0.18081658456E+04  0.64307380042E+03 -0.97782504755E+03  0.21558855097E+04  0.93235559505E+02 0.  0.
         13    1    3    3    0    0 -0.14618913608E+04  0.53610391753E+03 -0.82982975071E+03  0.17644124168E+04  0.00000000000E+00 0. -1.
        -13    1    3    3    0    0 -0.34627448475E+03  0.10696988288E+03 -0.14799529684E+03  0.39147309297E+03  0.00000000000E+00 0.  1.
         22    1    1    2    0    0  0.18081658456E+04 -0.64307380042E+03 -0.23679247541E+04  0.30479624799E+04  0.00000000000E+00 0. -1.
<mgrwt>
<rscale>  0 0.39857235E+04</rscale>
<asrwt>0</asrwt>
<pdfrwt beam="1">  1        2 0.65766136E+00 0.39857235E+04</pdfrwt>
<pdfrwt beam="2">  1       -2 0.14293063E+00 0.39857235E+04</pdfrwt>
<totfact> 0.53412709E-02</totfact>
</mgrwt>
</event>
<event>
 6    1  0.8968082E-007  0.1904204E+04  0.7818608E-02  0.8652767E-01
         -1   -1    0    0    0  501 -0.00000000000E+00  0.00000000000E+00  0.22965883212E+03  0.22965883212E+03  0.00000000000E+00 0.  1.
          1   -1    0    0  501    0  0.00000000000E+00 -0.00000000000E+00 -0.39471514832E+04  0.39471514832E+04  0.00000000000E+00 0. -1.
         23    2    1    2    0    0 -0.19605597333E+03  0.84009325312E+03 -0.99019807945E+03  0.13163330301E+04  0.89698333769E+02 0.  0.
         11    1    3    3    0    0 -0.14271834927E+02  0.23407209774E+03 -0.25839240724E+03  0.34894135371E+03  0.00000000000E+00 0. -1.
        -11    1    3    3    0    0 -0.18178413841E+03  0.60602115538E+03 -0.73180567221E+03  0.96739167643E+03  0.00000000000E+00 0.  1.
         22    1    1    2    0    0  0.19605597333E+03 -0.84009325312E+03 -0.27272945717E+04  0.28604772852E+04  0.00000000000E+00 0. -1.
<mgrwt>
<rscale>  0 0.19042040E+04</rscale>
<asrwt>0</asrwt>
<pdfrwt beam="1">  1        1 0.60725408E+00 0.19042040E+04</pdfrwt>
<pdfrwt beam="2">  1       -1 0.35332128E-01 0.19042040E+04</pdfrwt>
<totfact> 0.76860418E-01</totfact>
</mgrwt>
</event>
<event>
 6    1  0.8968082E-007  0.4966661E+03  0.7818608E-02  0.1014653E+00
         -2   -1    0    0    0  501 -0.00000000000E+00  0.00000000000E+00  0.66581035361E+02  0.66581035361E+02  0.00000000000E+00 0.  1.
          2   -1    0    0  501    0  0.00000000000E+00 -0.00000000000E+00 -0.92622939524E+03  0.92622939524E+03  0.00000000000E+00 0. -1.
         23    2    1    2    0    0 -0.82270618522E+02  0.24271175317E+02 -0.89231932587E+03  0.90102297698E+03  0.90835461715E+02 0.  0.
         11    1    3    3    0    0 -0.83756127896E+02 -0.74462293882E+01 -0.77267922889E+03  0.77724109904E+03  0.00000000000E+00 0.  1.
        -11    1    3    3    0    0  0.14855093740E+01  0.31717404706E+02 -0.11964009699E+03  0.12378187794E+03  0.00000000000E+00 0. -1.
         22    1    1    2    0    0  0.82270618522E+02 -0.24271175317E+02  0.32670965990E+02  0.91787453619E+02  0.00000000000E+00 0.  1.
<mgrwt>
<rscale>  0 0.49666613E+03</rscale>
<asrwt>0</asrwt>
<pdfrwt beam="1">  1        2 0.14249682E+00 0.49666613E+03</pdfrwt>
<pdfrwt beam="2">  1       -2 0.10243237E-01 0.49666613E+03</pdfrwt>
<totfact> 0.18668009E+03</totfact>
</mgrwt>
</event>
<event>
 6    1  0.8968082E-007  0.2723492E+04  0.7818608E-02  0.8327423E-01
          1   -1    0    0  501    0  0.00000000000E+00  0.00000000000E+00  0.18082993396E+04  0.18082993396E+04  0.00000000000E+00 0. -1.
         -1   -1    0    0    0  501 -0.00000000000E+00 -0.00000000000E+00 -0.10254674010E+04  0.10254674010E+04  0.00000000000E+00 0.  1.
         23    2    1    2    0    0 -0.10725791480E+04  0.34216240092E+03 -0.40242378559E+03  0.11990397698E+04  0.90831321376E+02 0.  0.
         11    1    3    3    0    0 -0.13419221285E+03  0.75262471316E+02 -0.57793435140E+02  0.16435349319E+03  0.00000000000E+00 0. -1.
        -11    1    3    3    0    0 -0.93838693519E+03  0.26689992960E+03 -0.34463035045E+03  0.10346862766E+04  0.00000000000E+00 0.  1.
         22    1    1    2    0    0  0.10725791480E+04 -0.34216240092E+03  0.11852557242E+04  0.16347269708E+04  0.00000000000E+00 0. -1.
<mgrwt>
<rscale>  0 0.27234919E+04</rscale>
<asrwt>0</asrwt>
<pdfrwt beam="1">  1        1 0.27819990E+00 0.27234919E+04</pdfrwt>
<pdfrwt beam="2">  1       -1 0.15776422E+00 0.27234919E+04</pdfrwt>
<totfact> 0.10649986E+00</totfact>
</mgrwt>
</event>
<event>
 6    1  0.8968082E-007  0.1680905E+04  0.7818608E-02  0.8772330E-01
          1   -1    0    0  501    0  0.00000000000E+00  0.00000000000E+00  0.23510419336E+04  0.23510419336E+04  0.00000000000E+00 0. -1.
         -1   -1    0    0    0  501 -0.00000000000E+00 -0.00000000000E+00 -0.30044571659E+03  0.30044571659E+03  0.00000000000E+00 0.  1.
         23    2    1    2    0    0  0.69588003523E+03 -0.37751601572E+03  0.59625114135E+03  0.99562323404E+03  0.94777819352E+02 0.  0.
         11    1    3    3    0    0  0.31223479039E+03 -0.12362678779E+03  0.22187976667E+03  0.40249817124E+03  0.00000000000E+00 0.  1.
        -11    1    3    3    0    0  0.38364524484E+03 -0.25388922794E+03  0.37437137468E+03  0.59312506280E+03  0.00000000000E+00 0. -1.
         22    1    1    2    0    0 -0.69588003523E+03  0.37751601572E+03  0.14543450757E+04  0.16558644162E+04  0.00000000000E+00 0. -1.
<mgrwt>
<rscale>  0 0.16809051E+04</rscale>
<asrwt>0</asrwt>
<pdfrwt beam="1">  1        1 0.36169875E+00 0.16809051E+04</pdfrwt>
<pdfrwt beam="2">  1       -1 0.46222420E-01 0.16809051E+04</pdfrwt>
<totfact> 0.76300442E+00</totfact>
</mgrwt>
</event>
<event>
 6    1  0.8968082E-007  0.2869736E+04  0.7818608E-02  0.8281939E-01
         -2   -1    0    0    0  501 -0.00000000000E+00  0.00000000000E+00  0.17253756595E+04  0.17253756595E+04  0.00000000000E+00 0.  1.
          2   -1    0    0  501    0  0.00000000000E+00 -0.00000000000E+00 -0.11932738018E+04  0.11932738018E+04  0.00000000000E+00 0. -1.
         23    2    1    2    0    0 -0.13130466300E+04 -0.10502524337E+03 -0.30881381582E+03  0.13558759894E+04  0.88949263769E+02 0.  0.
         11    1    3    3    0    0 -0.72631065724E+03 -0.10243350633E+03 -0.17161695458E+03  0.75330748910E+03  0.00000000000E+00 0. -1.
        -11    1    3    3    0    0 -0.58673597278E+03 -0.25917370427E+01 -0.13719686124E+03  0.60256850032E+03  0.00000000000E+00 0.  1.
         22    1    1    2    0    0  0.13130466300E+04  0.10502524337E+03  0.84091567356E+03  0.15627734719E+04  0.00000000000E+00 0.  1.
<mgrwt>
<rscale>  0 0.28697356E+04</rscale>
<asrwt>0</asrwt>
<pdfrwt beam="1">  1        2 0.18358058E+00 0.28697356E+04</pdfrwt>
<pdfrwt beam="2">  1       -2 0.26544241E+00 0.28697356E+04</pdfrwt>
<totfact> 0.85475214E-01</totfact>
</mgrwt>
</event>
<event>
 6    1  0.8968082E-007  0.1473081E+04  0.7818608E-02  0.8902554E-01
          2   -1    0    0  501    0  0.00000000000E+00  0.00000000000E+00  0.13581236590E+04  0.13581236590E+04  0.00000000000E+00 0. -1.
         -2   -1    0    0    0  501 -0.00000000000E+00 -0.00000000000E+00 -0.39944229856E+03  0.39944229856E+03  0.00000000000E+00 0.  1.
         23    2    1    2    0    0  0.72878409329E+03  0.19957845396E+02  0.57685415251E+03  0.93457349894E+03  0.95615591914E+02 0.  0.
         13    1    3    3    0    0  0.67253297065E+03  0.24280781678E+02  0.49610594924E+03  0.83606893606E+03  0.00000000000E+00 0.  1.
        -13    1    3    3    0    0  0.56251122646E+02 -0.43229362817E+01  0.80748203270E+02  0.98504562881E+02  0.00000000000E+00 0. -1.
         22    1    1    2    0    0 -0.72878409329E+03 -0.19957845396E+02  0.38182720792E+03  0.82299245862E+03  0.00000000000E+00 0.  1.
<mgrwt>
<rscale>  0 0.14730812E+04</rscale>
<asrwt>0</asrwt>
<pdfrwt beam="1">  1        2 0.20894210E+00 0.14730812E+04</pdfrwt>
<pdfrwt beam="2">  1       -2 0.61452662E-01 0.14730812E+04</pdfrwt>
<totfact> 0.36451119E+01</totfact>
</mgrwt>
</event>
<event>
 6    1  0.8968082E-007  0.1003021E+04  0.7818608E-02  0.9305237E-01
          1   -1    0    0  501    0  0.00000000000E+00  0.00000000000E+00  0.11105088451E+04  0.11105088451E+04  0.00000000000E+00 0. -1.
         -1   -1    0    0    0  501 -0.00000000000E+00 -0.00000000000E+00 -0.22648440221E+03  0.22648440221E+03  0.00000000000E+00 0.  1.
         23    2    1    2    0    0 -0.11787909317E+03 -0.46268356503E+03  0.25987020515E+03  0.55115606669E+03  0.90933626173E+02 0.  0.
         13    1    3    3    0    0 -0.10257590610E+03 -0.32215008835E+03  0.14043993010E+03  0.36609543824E+03  0.00000000000E+00 0.  1.
        -13    1    3    3    0    0 -0.15303187071E+02 -0.14053347668E+03  0.11943027505E+03  0.18506062845E+03  0.00000000000E+00 0. -1.
         22    1    1    2    0    0  0.11787909317E+03  0.46268356503E+03  0.62415423771E+03  0.78583718059E+03  0.00000000000E+00 0.  1.
<mgrwt>
<rscale>  0 0.10030213E+04</rscale>
<asrwt>0</asrwt>
<pdfrwt beam="1">  1        1 0.17084751E+00 0.10030213E+04</pdfrwt>
<pdfrwt beam="2">  1       -1 0.34843755E-01 0.10030213E+04</pdfrwt>
<totfact> 0.97516915E+01</totfact>
</mgrwt>
</event>
<event>
 6    1  0.8968082E-007  0.1580008E+04  0.7818608E-02  0.8832925E-01
         -2   -1    0    0    0  501 -0.00000000000E+00  0.00000000000E+00  0.11452031574E+04  0.11452031574E+04  0.00000000000E+00 0.  1.
          2   -1    0    0  501    0  0.00000000000E+00 -0.00000000000E+00 -0.54497462270E+03  0.54497462270E+03  0.00000000000E+00 0. -1.
         23    2    1    2    0    0  0.27749270179E+03  0.57166429223E+03  0.79877299378E+03  0.10244284543E+04  0.87253078804E+02 0.  0.
         11    1    3    3    0    0  0.24361523572E+03  0.45215266783E+03  0.68349456425E+03  0.85495920222E+03  0.00000000000E+00 0.  1.
        -11    1    3    3    0    0  0.33877466071E+02  0.11951162440E+03  0.11527842953E+03  0.16946925205E+03  0.00000000000E+00 0. -1.
         22    1    1    2    0    0 -0.27749270179E+03 -0.57166429223E+03 -0.19854445910E+03  0.66574932580E+03  0.00000000000E+00 0. -1.
<mgrwt>
<rscale>  0 0.15800084E+04</rscale>
<asrwt>0</asrwt>
<pdfrwt beam="1">  1        2 0.83842250E-01 0.15800084E+04</pdfrwt>
<pdfrwt beam="2">  1       -2 0.17618510E+00 0.15800084E+04</pdfrwt>
<totfact> 0.10292307E+01</totfact>
</mgrwt>
</event>
<event>
 6    1  0.8968082E-007  0.2142240E+04  0.7818608E-02  0.8542861E-01
          1   -1    0    0  501    0  0.00000000000E+00  0.00000000000E+00  0.13629403551E+04  0.13629403551E+04  0.00000000000E+00 0. -1.
         -1   -1    0    0    0  501 -0.00000000000E+00 -0.00000000000E+00 -0.84178129515E+03  0.84178129515E+03  0.00000000000E+00 0.  1.
         23    2    1    2    0    0  0.35622680885E+03  0.50430447562E+03  0.11593992625E+04  0.13167063916E+04  0.91041355613E+02 0.  0.
         13    1    3    3    0    0  0.49945415747E+02  0.12446473479E+03  0.20816935961E+03  0.24762975799E+03  0.00000000000E+00 0.  1.
        -13    1    3    3    0    0  0.30628139310E+03  0.37983974083E+03  0.95122990288E+03  0.10690766336E+04  0.00000000000E+00 0. -1.
         22    1    1    2    0    0 -0.35622680885E+03 -0.50430447562E+03 -0.63824020251E+03  0.88801525864E+03  0.00000000000E+00 0.  1.
<mgrwt>
<rscale>  0 0.21422397E+04</rscale>
<asrwt>0</asrwt>
<pdfrwt beam="1">  1        1 0.20968313E+00 0.21422397E+04</pdfrwt>
<pdfrwt beam="2">  1       -1 0.12950482E+00 0.21422397E+04</pdfrwt>
<totfact> 0.38286690E+00</totfact>
</mgrwt>
</event>
<event>
 6    1  0.8968082E-007  0.9848457E+03  0.7818608E-02  0.9325324E-01
         -2   -1    0    0    0  501 -0.00000000000E+00  0.00000000000E+00  0.15931423768E+03  0.15931423768E+03  0.00000000000E+00 0.  1.
          2   -1    0    0  501    0  0.00000000000E+00 -0.00000000000E+00 -0.15220249284E+04  0.15220249284E+04  0.00000000000E+00 0. -1.
         23    2    1    2    0    0  0.28062850443E+02  0.27625580192E+03 -0.13727150673E+04  0.14034815060E+04  0.91153113707E+02 0.  0.
         13    1    3    3    0    0 -0.69913167977E+01  0.14636130825E+02 -0.23451690948E+03  0.23507716961E+03  0.00000000000E+00 0. -1.
        -13    1    3    3    0    0  0.35054167240E+02  0.26161967110E+03 -0.11381981578E+04  0.11684043364E+04  0.00000000000E+00 0.  1.
         22    1    1    2    0    0 -0.28062850443E+02 -0.27625580192E+03  0.10004376605E+02  0.27785766000E+03  0.00000000000E+00 0.  1.
<mgrwt>
<rscale>  0 0.98484566E+03</rscale>
<asrwt>0</asrwt>
<pdfrwt beam="1">  1        2 0.23415768E+00 0.98484566E+03</pdfrwt>
<pdfrwt beam="2">  1       -2 0.24509882E-01 0.98484566E+03</pdfrwt>
<totfact> 0.18315144E+02</totfact>
</mgrwt>
</event>
<event>
 6    1  0.8968082E-007  0.2791188E+04  0.7818608E-02  0.8306009E-01
         -2   -1    0    0    0  501 -0.00000000000E+00  0.00000000000E+00  0.12263812449E+04  0.12263812449E+04  0.00000000000E+00 0.  1.
          2   -1    0    0  501    0  0.00000000000E+00 -0.00000000000E+00 -0.15881538889E+04  0.15881538889E+04  0.00000000000E+00 0. -1.
         23    2    1    2    0    0 -0.57447804389E+02  0.76147886732E+03 -0.13572831503E+04  0.15598672558E+04  0.88419397813E+02 0.  0.
         11    1    3    3    0    0 -0.45187308768E+02  0.62644260819E+03 -0.11792753851E+04  0.13360997972E+04  0.00000000000E+00 0. -1.
        -11    1    3    3    0    0 -0.12260495621E+02  0.13503625914E+03 -0.17800776525E+03  0.22376745859E+03  0.00000000000E+00 0.  1.
         22    1    1    2    0    0  0.57447804389E+02 -0.76147886732E+03  0.99551050634E+03  0.12546678779E+04  0.00000000000E+00 0.  1.
<mgrwt>
<rscale>  0 0.27911877E+04</rscale>
<asrwt>0</asrwt>
<pdfrwt beam="1">  1        2 0.24433137E+00 0.27911877E+04</pdfrwt>
<pdfrwt beam="2">  1       -2 0.18867404E+00 0.27911877E+04</pdfrwt>
<totfact> 0.15603090E+00</totfact>
</mgrwt>
</event>
<event>
 6    1  0.8968082E-007  0.3561743E+04  0.7818608E-02  0.8099312E-01
          1   -1    0    0  501    0  0.00000000000E+00  0.00000000000E+00  0.30144505139E+04  0.30144505139E+04  0.00000000000E+00 0. -1.
         -1   -1    0    0    0  501 -0.00000000000E+00 -0.00000000000E+00 -0.10520998777E+04  0.10520998777E+04  0.00000000000E+00 0.  1.
         23    2    1    2    0    0  0.37095690859E+03  0.17394754993E+04  0.10142472734E+04  0.20510395315E+04  0.12116760191E+03 0.  0.
         11    1    3    3    0    0  0.33662897373E+03  0.13508807111E+04  0.77385715883E+03  0.15928128151E+04  0.00000000000E+00 0.  1.
        -11    1    3    3    0    0  0.34327934856E+02  0.38859478816E+03  0.24039011459E+03  0.45822671647E+03  0.00000000000E+00 0. -1.
         22    1    1    2    0    0 -0.37095690859E+03 -0.17394754993E+04  0.94810336272E+03  0.20155108600E+04  0.00000000000E+00 0.  1.
<mgrwt>
<rscale>  0 0.35617428E+04</rscale>
<asrwt>0</asrwt>
<pdfrwt beam="1">  1        1 0.46376161E+00 0.35617428E+04</pdfrwt>
<pdfrwt beam="2">  1       -1 0.16186152E+00 0.35617428E+04</pdfrwt>
<totfact> 0.13385958E-01</totfact>
</mgrwt>
</event>
<event>
 6    1  0.8968082E-007  0.3162484E+04  0.7818608E-02  0.8198796E-01
          2   -1    0    0  501    0  0.00000000000E+00  0.00000000000E+00  0.34160262417E+04  0.34160262417E+04  0.00000000000E+00 0. -1.
         -2   -1    0    0    0  501 -0.00000000000E+00 -0.00000000000E+00 -0.73193999372E+03  0.73193999372E+03  0.00000000000E+00 0.  1.
         23    2    1    2    0    0  0.14802609810E+04  0.36455728059E+03  0.79890437198E+03  0.17235105670E+04  0.90365347609E+02 0.  0.
         11    1    3    3    0    0  0.13041130933E+03  0.58917707124E+02  0.71014024528E+02  0.15975417833E+03  0.00000000000E+00 0. -1.
        -11    1    3    3    0    0  0.13498496717E+04  0.30563957347E+03  0.72789034745E+03  0.15637563886E+04  0.00000000000E+00 0.  1.
         22    1    1    2    0    0 -0.14802609810E+04 -0.36455728059E+03  0.18851818760E+04  0.24244556685E+04  0.00000000000E+00 0. -1.
<mgrwt>
<rscale>  0 0.31624840E+04</rscale>
<asrwt>0</asrwt>
<pdfrwt beam="1">  1        2 0.52554249E+00 0.31624840E+04</pdfrwt>
<pdfrwt beam="2">  1       -2 0.11260615E+00 0.31624840E+04</pdfrwt>
<totfact> 0.48682304E-01</totfact>
</mgrwt>
</event>
<event>
 6    1  0.8968082E-007  0.7132072E+03  0.7818608E-02  0.9694909E-01
         -2   -1    0    0    0  501 -0.00000000000E+00  0.00000000000E+00  0.10048380059E+03  0.10048380059E+03  0.00000000000E+00 0.  1.
          2   -1    0    0  501    0  0.00000000000E+00 -0.00000000000E+00 -0.12655385392E+04  0.12655385392E+04  0.00000000000E+00 0. -1.
         23    2    1    2    0    0  0.27774575104E+03  0.15734273279E+03 -0.31312050908E+03  0.45624688990E+03  0.90649509373E+02 0.  0.
         13    1    3    3    0    0  0.26893609897E+03  0.12194141187E+03 -0.27576723960E+03  0.40403453281E+03  0.00000000000E+00 0. -1.
        -13    1    3    3    0    0  0.88096520642E+01  0.35401320915E+02 -0.37353269481E+02  0.52212357091E+02  0.00000000000E+00 0.  1.
         22    1    1    2    0    0 -0.27774575104E+03 -0.15734273279E+03 -0.85193422957E+03  0.90977544993E+03  0.00000000000E+00 0. -1.
<mgrwt>
<rscale>  0 0.71320719E+03</rscale>
<asrwt>0</asrwt>
<pdfrwt beam="1">  1        2 0.19469823E+00 0.71320719E+03</pdfrwt>
<pdfrwt beam="2">  1       -2 0.15459047E-01 0.71320719E+03</pdfrwt>
<totfact> 0.58229268E+02</totfact>
</mgrwt>
</event>
<event>
 6    1  0.8968082E-007  0.7958941E+03  0.7818608E-02  0.9565979E-01
          1   -1    0    0  501    0  0.00000000000E+00  0.00000000000E+00  0.13064231754E+04  0.13064231754E+04  0.00000000000E+00 0. -1.
         -1   -1    0    0    0  501 -0.00000000000E+00 -0.00000000000E+00 -0.12121789926E+03  0.12121789926E+03  0.00000000000E+00 0.  1.
         23    2    1    2    0    0  0.21230122100E+03  0.32639534591E+03  0.68046742136E+03  0.79017261873E+03  0.98646467732E+02 0.  0.
         13    1    3    3    0    0  0.13772779876E+03  0.27099529257E+03  0.56861901524E+03  0.64477513882E+03  0.00000000000E+00 0.  1.
        -13    1    3    3    0    0  0.74573422236E+02  0.55400053335E+02  0.11184840612E+03  0.14539747991E+03  0.00000000000E+00 0. -1.
         22    1    1    2    0    0 -0.21230122100E+03 -0.32639534591E+03  0.50473785478E+03  0.63746845594E+03  0.00000000000E+00 0.  1.
<mgrwt>
<rscale>  0 0.79589415E+03</rscale>
<asrwt>0</asrwt>
<pdfrwt beam="1">  1        1 0.20098817E+00 0.79589415E+03</pdfrwt>
<pdfrwt beam="2">  1       -1 0.18648908E-01 0.79589415E+03</pdfrwt>
<totfact> 0.20832414E+02</totfact>
</mgrwt>
</event>
<event>
 6    1  0.8968082E-007  0.2043112E+04  0.7818608E-02  0.8586726E-01
         -2   -1    0    0    0  501 -0.00000000000E+00  0.00000000000E+00  0.40584865045E+03  0.40584865045E+03  0.00000000000E+00 0.  1.
          2   -1    0    0  501    0  0.00000000000E+00 -0.00000000000E+00 -0.25713440463E+04  0.25713440463E+04  0.00000000000E+00 0. -1.
         23    2    1    2    0    0 -0.40237061305E+03  0.75434735737E+03 -0.18941132230E+04  0.20802031040E+04  0.92940875472E+02 0.  0.
         13    1    3    3    0    0 -0.15623210965E+03  0.38845718838E+03 -0.89438639110E+03  0.98753960725E+03  0.00000000000E+00 0.  1.
        -13    1    3    3    0    0 -0.24613850340E+03  0.36589016899E+03 -0.99972683194E+03  0.10926634967E+04  0.00000000000E+00 0. -1.
         22    1    1    2    0    0  0.40237061305E+03 -0.75434735737E+03 -0.27138217282E+03  0.89698959277E+03  0.00000000000E+00 0.  1.
<mgrwt>
<rscale>  0 0.20431119E+04</rscale>
<asrwt>0</asrwt>
<pdfrwt beam="1">  1        2 0.39559140E+00 0.20431119E+04</pdfrwt>
<pdfrwt beam="2">  1       -2 0.62438252E-01 0.20431119E+04</pdfrwt>
<totfact> 0.69734823E+00</totfact>
</mgrwt>
</event>
<event>
 6    1  0.8968082E-007  0.1655457E+04  0.7818608E-02  0.8787185E-01
         -1   -1    0    0    0  501 -0.00000000000E+00  0.00000000000E+00  0.16130932067E+04  0.16130932067E+04  0.00000000000E+00 0.  1.
          1   -1    0    0  501    0  0.00000000000E+00 -0.00000000000E+00 -0.42473348561E+03  0.42473348561E+03  0.00000000000E+00 0. -1.
         23    2    1    2    0    0  0.22255555909E+03  0.57301454196E+03  0.12737060709E+04  0.14172135748E+04  0.91052288995E+02 0.  0.
         11    1    3    3    0    0  0.10513506850E+02  0.10775998809E+03  0.18340167841E+03  0.21297634728E+03  0.00000000000E+00 0.  1.
        -11    1    3    3    0    0  0.21204205224E+03  0.46525455387E+03  0.10903043925E+04  0.12042372275E+04  0.00000000000E+00 0. -1.
         22    1    1    2    0    0 -0.22255555909E+03 -0.57301454196E+03 -0.85346349846E+02  0.62061311750E+03  0.00000000000E+00 0. -1.
<mgrwt>
<rscale>  0 0.16554573E+04</rscale>
<asrwt>0</asrwt>
<pdfrwt beam="1">  1        1 0.65343614E-01 0.16554573E+04</pdfrwt>
<pdfrwt beam="2">  1       -1 0.24816818E+00 0.16554573E+04</pdfrwt>
<totfact> 0.37907962E+00</totfact>
</mgrwt>
</event>
<event>
 6    1  0.8968082E-007  0.1316550E+04  0.7818608E-02  0.9016543E-01
         -1   -1    0    0    0  501 -0.00000000000E+00  0.00000000000E+00  0.22567827740E+03  0.22567827740E+03  0.00000000000E+00 0.  1.
          1   -1    0    0  501    0  0.00000000000E+00 -0.00000000000E+00 -0.19201035502E+04  0.19201035502E+04  0.00000000000E+00 0. -1.
         23    2    1    2    0    0 -0.46029485499E+03 -0.37045339048E+03 -0.13120670548E+04  0.14420028318E+04  0.93515466773E+02 0.  0.
         11    1    3    3    0    0 -0.30949465558E+03 -0.26600966449E+03 -0.99915886110E+03  0.10792898189E+04  0.00000000000E+00 0. -1.
        -11    1    3    3    0    0 -0.15080019941E+03 -0.10444372599E+03 -0.31290819373E+03  0.36271301292E+03  0.00000000000E+00 0.  1.
         22    1    1    2    0    0  0.46029485499E+03  0.37045339048E+03 -0.38235821794E+03  0.70377899576E+03  0.00000000000E+00 0.  1.
<mgrwt>
<rscale>  0 0.13165495E+04</rscale>
<asrwt>0</asrwt>
<pdfrwt beam="1">  1        1 0.29540054E+00 0.13165495E+04</pdfrwt>
<pdfrwt beam="2">  1       -1 0.34719735E-01 0.13165495E+04</pdfrwt>
<totfact> 0.26106537E+01</totfact>
</mgrwt>
</event>
<event>
 6    1  0.8968082E-007  0.2192864E+04  0.7818608E-02  0.8521404E-01
         -2   -1    0    0    0  501 -0.00000000000E+00  0.00000000000E+00  0.72258112531E+03  0.72258112531E+03  0.00000000000E+00 0.  1.
          2   -1    0    0  501    0  0.00000000000E+00 -0.00000000000E+00 -0.16637075155E+04  0.16637075155E+04  0.00000000000E+00 0. -1.
         23    2    1    2    0    0 -0.35028087454E+03  0.54661095447E+03  0.48752591578E+03  0.81704435199E+03  0.91650029740E+02 0.  0.
         11    1    3    3    0    0 -0.18140691427E+03  0.36497530377E+03  0.29738333284E+03  0.50453175079E+03  0.00000000000E+00 0. -1.
        -11    1    3    3    0    0 -0.16887396026E+03  0.18163565070E+03  0.19014258294E+03  0.31251260120E+03  0.00000000000E+00 0.  1.
         22    1    1    2    0    0  0.35028087454E+03 -0.54661095447E+03 -0.14286523059E+04  0.15692442888E+04  0.00000000000E+00 0. -1.
<mgrwt>
<rscale>  0 0.21928645E+04</rscale>
<asrwt>0</asrwt>
<pdfrwt beam="1">  1        2 0.25595500E+00 0.21928645E+04</pdfrwt>
<pdfrwt beam="2">  1       -2 0.11116633E+00 0.21928645E+04</pdfrwt>
<totfact> 0.60183831E+00</totfact>
</mgrwt>
</event>
<event>
 6    1  0.8968082E-007  0.1198349E+04  0.7818608E-02  0.9114303E-01
          1   -1    0    0  501    0  0.00000000000E+00  0.00000000000E+00  0.23630467229E+04  0.23630467229E+04  0.00000000000E+00 0. -1.
         -1   -1    0    0    0  501 -0.00000000000E+00 -0.00000000000E+00 -0.15192680751E+03  0.15192680751E+03  0.00000000000E+00 0.  1.
         23    2    1    2    0    0  0.57561358332E+03  0.99294609638E+02  0.86636830284E+03  0.10488400726E+04  0.91000246308E+02 0.  0.
         11    1    3    3    0    0  0.41502795415E+03  0.57122002103E+02  0.68498098362E+03  0.80293839974E+03  0.00000000000E+00 0. -1.
        -11    1    3    3    0    0  0.16058562916E+03  0.42172607535E+02  0.18138731922E+03  0.24590167282E+03  0.00000000000E+00 0.  1.
         22    1    1    2    0    0 -0.57561358332E+03 -0.99294609638E+02  0.13447516126E+04  0.14661334579E+04  0.00000000000E+00 0. -1.
<mgrwt>
<rscale>  0 0.11983491E+04</rscale>
<asrwt>0</asrwt>
<pdfrwt beam="1">  1        1 0.36354562E+00 0.11983491E+04</pdfrwt>
<pdfrwt beam="2">  1       -1 0.23373357E-01 0.11983491E+04</pdfrwt>
<totfact> 0.26336362E+01</totfact>
</mgrwt>
</event>
<event>
 6    1  0.8968082E-007  0.9035842E+03  0.7818608E-02  0.9421112E-01
         -1   -1    0    0    0  501 -0.00000000000E+00  0.00000000000E+00  0.24452228628E+03  0.24452228628E+03  0.00000000000E+00 0.  1.
          1   -1    0    0  501    0  0.00000000000E+00 -0.00000000000E+00 -0.83475463747E+03  0.83475463747E+03  0.00000000000E+00 0. -1.
         23    2    1    2    0    0  0.32396616518E+03  0.23820169084E+03 -0.64320659347E+02  0.41725182656E+03  0.90927541729E+02 0.  0.
         13    1    3    3    0    0  0.17419404537E+03  0.17531500855E+03 -0.15464986679E+02  0.24762488461E+03  0.00000000000E+00 0.  1.
        -13    1    3    3    0    0  0.14977211981E+03  0.62886682292E+02 -0.48855672668E+02  0.16962694195E+03  0.00000000000E+00 0. -1.
         22    1    1    2    0    0 -0.32396616518E+03 -0.23820169084E+03 -0.52591169185E+03  0.66202509720E+03  0.00000000000E+00 0. -1.
<mgrwt>
<rscale>  0 0.90358422E+03</rscale>
<asrwt>0</asrwt>
<pdfrwt beam="1">  1        1 0.12842379E+00 0.90358422E+03</pdfrwt>
<pdfrwt beam="2">  1       -1 0.37618813E-01 0.90358422E+03</pdfrwt>
<totfact> 0.14146207E+02</totfact>
</mgrwt>
</event>
<event>
 6    1  0.8968082E-007  0.2419719E+04  0.7818608E-02  0.8432158E-01
         -2   -1    0    0    0  501 -0.00000000000E+00  0.00000000000E+00  0.67357689545E+03  0.67357689545E+03  0.00000000000E+00 0.  1.
          2   -1    0    0  501    0  0.00000000000E+00 -0.00000000000E+00 -0.21731141533E+04  0.21731141533E+04  0.00000000000E+00 0. -1.
         23    2    1    2    0    0  0.68654480175E+03 -0.41777378972E+03  0.31032767742E+03  0.86641586885E+03  0.92165537115E+02 0.  0.
         13    1    3    3    0    0  0.21733090858E+03 -0.17554476288E+03  0.13274274190E+03  0.30930457987E+03  0.00000000000E+00 0. -1.
        -13    1    3    3    0    0  0.46921389317E+03 -0.24222902684E+03  0.17758493552E+03  0.55711128899E+03  0.00000000000E+00 0.  1.
         22    1    1    2    0    0 -0.68654480175E+03  0.41777378972E+03 -0.18098649353E+04  0.19802751799E+04  0.00000000000E+00 0. -1.
<mgrwt>
<rscale>  0 0.24197186E+04</rscale>
<asrwt>0</asrwt>
<pdfrwt beam="1">  1        2 0.33432526E+00 0.24197186E+04</pdfrwt>
<pdfrwt beam="2">  1       -2 0.10362721E+00 0.24197186E+04</pdfrwt>
<totfact> 0.36413419E+00</totfact>
</mgrwt>
</event>
<event>
 6    1  0.8968082E-007  0.5864740E+04  0.7818608E-02  0.7707402E-01
          2   -1    0    0  501    0  0.00000000000E+00  0.00000000000E+00  0.26806857865E+04  0.26806857865E+04  0.00000000000E+00 0. -1.
         -2   -1    0    0    0  501 -0.00000000000E+00 -0.00000000000E+00 -0.32076840481E+04  0.32076840481E+04  0.00000000000E+00 0.  1.
         23    2    1    2    0    0  0.12920218380E+04  0.24438096799E+04  0.71666004147E+03  0.28571634483E+04  0.90857986801E+02 0.  0.
         11    1    3    3    0    0  0.53344295659E+03  0.97374723422E+03  0.24513898699E+03  0.11370304248E+04  0.00000000000E+00 0.  1.
        -11    1    3    3    0    0  0.75857888138E+03  0.14700624457E+04  0.47152105448E+03  0.17201330235E+04  0.00000000000E+00 0. -1.
         22    1    1    2    0    0 -0.12920218380E+04 -0.24438096799E+04 -0.12436583030E+04  0.30312063863E+04  0.00000000000E+00 0.  1.
<mgrwt>
<rscale>  0 0.58647397E+04</rscale>
<asrwt>0</asrwt>
<pdfrwt beam="1">  1        2 0.41241320E+00 0.58647397E+04</pdfrwt>
<pdfrwt beam="2">  1       -2 0.49348985E+00 0.58647397E+04</pdfrwt>
<totfact> 0.33933293E-03</totfact>
</mgrwt>
</event>
<event>
 6    1  0.8968082E-007  0.3758374E+03  0.7818608E-02  0.1052483E+00
         -1   -1    0    0    0  501 -0.00000000000E+00  0.00000000000E+00  0.91167687319E+02  0.91167687319E+02  0.00000000000E+00 0.  1.
          1   -1    0    0  501    0  0.00000000000E+00 -0.00000000000E+00 -0.38734595498E+03  0.38734595498E+03  0.00000000000E+00 0. -1.
         23    2    1    2    0    0  0.75276551627E+02 -0.49003072714E+02  0.37120124678E+02  0.13332430484E+03  0.91266676528E+02 0.  0.
         13    1    3    3    0    0  0.61926082761E+01  0.25620321323E+02  0.72979422701E+01  0.27349757281E+02  0.00000000000E+00 0. -1.
        -13    1    3    3    0    0  0.69083943351E+02 -0.74623394037E+02  0.29822182408E+02  0.10597454756E+03  0.00000000000E+00 0.  1.
         22    1    1    2    0    0 -0.75276551627E+02  0.49003072714E+02 -0.33329839234E+03  0.34518933746E+03  0.00000000000E+00 0. -1.
<mgrwt>
<rscale>  0 0.37583738E+03</rscale>
<asrwt>0</asrwt>
<pdfrwt beam="1">  1        1 0.59591686E-01 0.37583738E+03</pdfrwt>
<pdfrwt beam="2">  1       -1 0.14025798E-01 0.37583738E+03</pdfrwt>
<totfact> 0.22691687E+03</totfact>
</mgrwt>
</event>
<event>
 6    1  0.8968082E-007  0.2956053E+04  0.7818608E-02  0.8256393E-01
         -2   -1    0    0    0  501 -0.00000000000E+00  0.00000000000E+00  0.12798552328E+04  0.12798552328E+04  0.00000000000E+00 0.  1.
          2   -1    0    0  501    0  0.00000000000E+00 -0.00000000000E+00 -0.17068826760E+04  0.17068826760E+04  0.00000000000E+00 0. -1.
         23    2    1    2    0    0  0.43398629017E+03  0.12115685212E+04  0.51783438584E+03  0.13901771496E+04  0.90541010582E+02 0.  0.
         13    1    3    3    0    0  0.15738303648E+03  0.36847893119E+03  0.12431183794E+03  0.41952303388E+03  0.00000000000E+00 0. -1.
        -13    1    3    3    0    0  0.27660325370E+03  0.84308958999E+03  0.39352254790E+03  0.97065411574E+03  0.00000000000E+00 0.  1.
         22    1    1    2    0    0 -0.43398629017E+03 -0.12115685212E+04 -0.94486182906E+03  0.15965607591E+04  0.00000000000E+00 0. -1.
<mgrwt>
<rscale>  0 0.29560533E+04</rscale>
<asrwt>0</asrwt>
<pdfrwt beam="1">  1        2 0.26259733E+00 0.29560533E+04</pdfrwt>
<pdfrwt beam="2">  1       -2 0.19690081E+00 0.29560533E+04</pdfrwt>
<totfact> 0.11643809E+00</totfact>
</mgrwt>
</event>
<event>
 6    1  0.8968082E-007  0.2807099E+04  0.7818608E-02  0.8301068E-01
         -1   -1    0    0    0  501 -0.00000000000E+00  0.00000000000E+00  0.17425826754E+04  0.17425826754E+04  0.00000000000E+00 0.  1.
          1   -1    0    0  501    0  0.00000000000E+00 -0.00000000000E+00 -0.11304782810E+04  0.11304782810E+04  0.00000000000E+00 0. -1.
         23    2    1    2    0    0 -0.82333702847E+02 -0.12810741391E+04 -0.27067787531E+03  0.13151025730E+04  0.91095977074E+02 0.  0.
         13    1    3    3    0    0 -0.47784271119E+02 -0.11382297958E+04 -0.22533662597E+03  0.11613040083E+04  0.00000000000E+00 0. -1.
        -13    1    3    3    0    0 -0.34549431728E+02 -0.14284434326E+03 -0.45341249344E+02  0.15379856477E+03  0.00000000000E+00 0.  1.
         22    1    1    2    0    0  0.82333702847E+02  0.12810741391E+04  0.88278226975E+03  0.15579583833E+04  0.00000000000E+00 0.  1.
<mgrwt>
<rscale>  0 0.28070995E+04</rscale>
<asrwt>0</asrwt>
<pdfrwt beam="1">  1        1 0.17391974E+00 0.28070995E+04</pdfrwt>
<pdfrwt beam="2">  1       -1 0.26808964E+00 0.28070995E+04</pdfrwt>
<totfact> 0.55324897E-01</totfact>
</mgrwt>
</event>
<event>
 6    1  0.8968082E-007  0.1454716E+04  0.7818608E-02  0.8915138E-01
         -2   -1    0    0    0  501 -0.00000000000E+00  0.00000000000E+00  0.12762321730E+03  0.12762321730E+03  0.00000000000E+00 0.  1.
          2   -1    0    0  501    0  0.00000000000E+00 -0.00000000000E+00 -0.41454007540E+04  0.41454007540E+04  0.00000000000E+00 0. -1.
         23    2    1    2    0    0 -0.35928597583E+03  0.27991588475E+02 -0.38629458494E+04  0.38807959855E+04  0.91416103461E+02 0.  0.
         13    1    3    3    0    0 -0.16562396623E+03 -0.81855231847E+01 -0.13516447916E+04  0.13617789628E+04  0.00000000000E+00 0.  1.
        -13    1    3    3    0    0 -0.19366200960E+03  0.36177111660E+02 -0.25113010578E+04  0.25190170227E+04  0.00000000000E+00 0. -1.
         22    1    1    2    0    0  0.35928597583E+03 -0.27991588475E+02 -0.15483168727E+03  0.39222798579E+03  0.00000000000E+00 0.  1.
<mgrwt>
<rscale>  0 0.14547156E+04</rscale>
<asrwt>0</asrwt>
<pdfrwt beam="1">  1        2 0.63775381E+00 0.14547156E+04</pdfrwt>
<pdfrwt beam="2">  1       -2 0.19634346E-01 0.14547156E+04</pdfrwt>
<totfact> 0.57092745E+00</totfact>
</mgrwt>
</event>
<event>
 6    1  0.8968082E-007  0.1066012E+04  0.7818608E-02  0.9238967E-01
          1   -1    0    0  501    0  0.00000000000E+00  0.00000000000E+00  0.80358997275E+03  0.80358997275E+03  0.00000000000E+00 0. -1.
         -1   -1    0    0    0  501 -0.00000000000E+00 -0.00000000000E+00 -0.35353262815E+03  0.35353262815E+03  0.00000000000E+00 0.  1.
         23    2    1    2    0    0 -0.17773147848E+03 -0.84506956234E+01 -0.31447904389E+03  0.37215395055E+03  0.89115661746E+02 0.  0.
         11    1    3    3    0    0 -0.14997494561E+03  0.22547475228E+02 -0.27863231943E+03  0.31723310417E+03  0.00000000000E+00 0. -1.
        -11    1    3    3    0    0 -0.27756532869E+02 -0.30998170852E+02 -0.35846724456E+02  0.54920846382E+02  0.00000000000E+00 0.  1.
         22    1    1    2    0    0  0.17773147848E+03  0.84506956234E+01  0.76453638849E+03  0.78496865035E+03  0.00000000000E+00 0. -1.
<mgrwt>
<rscale>  0 0.10660118E+04</rscale>
<asrwt>0</asrwt>
<pdfrwt beam="1">  1        1 0.12362923E+00 0.10660118E+04</pdfrwt>
<pdfrwt beam="2">  1       -1 0.54389635E-01 0.10660118E+04</pdfrwt>
<totfact> 0.74833343E+01</totfact>
</mgrwt>
</event>
<event>
 6    1  0.1239780E-006  0.4284139E+04  0.7818608E-02  0.7949557E-01
         -1   -1    0    0    0  501 -0.00000000000E+00  0.00000000000E+00  0.21322501097E+04  0.21322501097E+04  0.00000000000E+00 0.  1.
          1   -1    0    0  501    0  0.00000000000E+00 -0.00000000000E+00 -0.21519345844E+04  0.21519345844E+04  0.00000000000E+00 0. -1.
         23    2    1    2    0    0 -0.56909937821E+03  0.20251511839E+04  0.38870604619E+03  0.21413141341E+04  0.94986371371E+02 0.  0.
         11    1    3    3    0    0 -0.38546928723E+03  0.12537090349E+04  0.27591796688E+03  0.13403371367E+04  0.00000000000E+00 0.  1.
        -11    1    3    3    0    0 -0.18363009098E+03  0.77144214897E+03  0.11278807932E+03  0.80097699740E+03  0.00000000000E+00 0. -1.
         22    1    1    2    0    0  0.56909937821E+03 -0.20251511839E+04 -0.40839052089E+03  0.21428705601E+04  0.00000000000E+00 0. -1.
<mgrwt>
<rscale>  0 0.42841395E+04</rscale>
<asrwt>0</asrwt>
<pdfrwt beam="1">  1        1 0.33106686E+00 0.42841395E+04</pdfrwt>
<pdfrwt beam="2">  1       -1 0.32803848E+00 0.42841395E+04</pdfrwt>
<totfact> 0.38953979E-02</totfact>
</mgrwt>
</event>
<event>
 6    1  0.8968082E-007  0.2711748E+04  0.7818608E-02  0.8331203E-01
          2   -1    0    0  501    0  0.00000000000E+00  0.00000000000E+00  0.33839448682E+04  0.33839448682E+04  0.00000000000E+00 0. -1.
         -2   -1    0    0    0  501 -0.00000000000E+00 -0.00000000000E+00 -0.54326940393E+03  0.54326940393E+03  0.00000000000E+00 0.  1.
         23    2    1    2    0    0 -0.51600021178E+03 -0.26047025530E+03 -0.35180308863E+03  0.68283139041E+03  0.91609618005E+02 0.  0.
         13    1    3    3    0    0 -0.35058458920E+03 -0.21429137785E+03 -0.21812829447E+03  0.46519920642E+03  0.00000000000E+00 0. -1.
        -13    1    3    3    0    0 -0.16541562258E+03 -0.46178877449E+02 -0.13367479416E+03  0.21763218399E+03  0.00000000000E+00 0.  1.
         22    1    1    2    0    0  0.51600021178E+03  0.26047025530E+03  0.31924785529E+04  0.32443828817E+04  0.00000000000E+00 0. -1.
<mgrwt>
<rscale>  0 0.27117476E+04</rscale>
<asrwt>0</asrwt>
<pdfrwt beam="1">  1        2 0.52060689E+00 0.27117476E+04</pdfrwt>
<pdfrwt beam="2">  1       -2 0.83579910E-01 0.27117476E+04</pdfrwt>
<totfact> 0.10729021E+00</totfact>
</mgrwt>
</event>
<event>
 6    1  0.8968082E-007  0.2015732E+04  0.7818608E-02  0.8599300E-01
          2   -1    0    0  501    0  0.00000000000E+00  0.00000000000E+00  0.11407015379E+04  0.11407015379E+04  0.00000000000E+00 0. -1.
         -2   -1    0    0    0  501 -0.00000000000E+00 -0.00000000000E+00 -0.89049943574E+03  0.89049943574E+03  0.00000000000E+00 0.  1.
         23    2    1    2    0    0  0.35242144635E+03 -0.89169562157E+03  0.43171608031E+03  0.10553581166E+04  0.89888947680E+02 0.  0.
         13    1    3    3    0    0  0.88118048358E+02 -0.30563186433E+03  0.11095910718E+03  0.33687913323E+03  0.00000000000E+00 0.  1.
        -13    1    3    3    0    0  0.26430339799E+03 -0.58606375724E+03  0.32075697314E+03  0.71847898338E+03  0.00000000000E+00 0. -1.
         22    1    1    2    0    0 -0.35242144635E+03  0.89169562157E+03 -0.18151397815E+03  0.97584285704E+03  0.00000000000E+00 0.  1.
<mgrwt>
<rscale>  0 0.20157322E+04</rscale>
<asrwt>0</asrwt>
<pdfrwt beam="1">  1        2 0.17549254E+00 0.20157322E+04</pdfrwt>
<pdfrwt beam="2">  1       -2 0.13699991E+00 0.20157322E+04</pdfrwt>
<totfact> 0.72512666E+00</totfact>
</mgrwt>
</event>
<event>
 6    1  0.8968082E-007  0.2987816E+04  0.7818608E-02  0.8247219E-01
          2   -1    0    0  501    0  0.00000000000E+00  0.00000000000E+00  0.18248274578E+04  0.18248274578E+04  0.00000000000E+00 0. -1.
         -2   -1    0    0    0  501 -0.00000000000E+00 -0.00000000000E+00 -0.12229988241E+04  0.12229988241E+04  0.00000000000E+00 0.  1.
         23    2    1    2    0    0 -0.12931108818E+04 -0.69222887589E+03  0.58286113667E+03  0.15809669378E+04  0.91721232778E+02 0.  0.
         13    1    3    3    0    0 -0.53456145862E+03 -0.29188935206E+03  0.29053683702E+03  0.67480886223E+03  0.00000000000E+00 0. -1.
        -13    1    3    3    0    0 -0.75854942321E+03 -0.40033952384E+03  0.29232429965E+03  0.90615807559E+03  0.00000000000E+00 0.  1.
         22    1    1    2    0    0  0.12931108818E+04  0.69222887589E+03  0.18967497100E+02  0.14668593441E+04  0.00000000000E+00 0. -1.
<mgrwt>
<rscale>  0 0.29878165E+04</rscale>
<asrwt>0</asrwt>
<pdfrwt beam="1">  1        2 0.28074269E+00 0.29878165E+04</pdfrwt>
<pdfrwt beam="2">  1       -2 0.18815366E+00 0.29878165E+04</pdfrwt>
<totfact> 0.11426192E+00</totfact>
</mgrwt>
</event>
<event>
 6    1  0.8968082E-007  0.1701226E+04  0.7818608E-02  0.8760665E-01
          2   -1    0    0  501    0  0.00000000000E+00  0.00000000000E+00  0.84750712233E+03  0.84750712233E+03  0.00000000000E+00 0. -1.
         -2   -1    0    0    0  501 -0.00000000000E+00 -0.00000000000E+00 -0.85373061683E+03  0.85373061683E+03  0.00000000000E+00 0.  1.
         23    2    1    2    0    0 -0.38673717837E+03  0.16237368494E+03  0.73372003174E+03  0.85068069772E+03  0.96859206041E+02 0.  0.
         13    1    3    3    0    0 -0.15120679533E+03  0.19917012385E+02  0.21727207372E+03  0.26545684462E+03  0.00000000000E+00 0.  1.
        -13    1    3    3    0    0 -0.23553038304E+03  0.14245667255E+03  0.51644795802E+03  0.58522385310E+03  0.00000000000E+00 0. -1.
         22    1    1    2    0    0  0.38673717837E+03 -0.16237368494E+03 -0.73994352624E+03  0.85055704143E+03  0.00000000000E+00 0.  1.
<mgrwt>
<rscale>  0 0.17012264E+04</rscale>
<asrwt>0</asrwt>
<pdfrwt beam="1">  1        2 0.13038571E+00 0.17012264E+04</pdfrwt>
<pdfrwt beam="2">  1       -2 0.13134317E+00 0.17012264E+04</pdfrwt>
<totfact> 0.12826848E+01</totfact>
</mgrwt>
</event>
<event>
 6    1  0.8968082E-007  0.3889671E+04  0.7818608E-02  0.8027181E-01
         -2   -1    0    0    0  501 -0.00000000000E+00  0.00000000000E+00  0.15861415142E+04  0.15861415142E+04  0.00000000000E+00 0.  1.
          2   -1    0    0  501    0  0.00000000000E+00 -0.00000000000E+00 -0.23846454119E+04  0.23846454119E+04  0.00000000000E+00 0. -1.
         23    2    1    2    0    0 -0.14550392680E+04  0.99639468038E+03 -0.12341710919E+04  0.21542662037E+04  0.87994099663E+02 0.  0.
         11    1    3    3    0    0 -0.59159381600E+03  0.38917073939E+03 -0.44566759702E+03  0.83669391928E+03  0.00000000000E+00 0.  1.
        -11    1    3    3    0    0 -0.86344545204E+03  0.60722394099E+03 -0.78850349489E+03  0.13175722844E+04  0.00000000000E+00 0. -1.
         22    1    1    2    0    0  0.14550392680E+04 -0.99639468038E+03  0.43566719422E+03  0.18165207224E+04  0.00000000000E+00 0.  1.
<mgrwt>
<rscale>  0 0.38896710E+04</rscale>
<asrwt>0</asrwt>
<pdfrwt beam="1">  1        2 0.36686852E+00 0.38896710E+04</pdfrwt>
<pdfrwt beam="2">  1       -2 0.24402177E+00 0.38896710E+04</pdfrwt>
<totfact> 0.22588875E-01</totfact>
</mgrwt>
</event>
<event>
 6    1  0.8968082E-007  0.2540704E+04  0.7818608E-02  0.8388626E-01
         -2   -1    0    0    0  501 -0.00000000000E+00  0.00000000000E+00  0.97939028663E+03  0.97939028663E+03  0.00000000000E+00 0.  1.
          2   -1    0    0  501    0  0.00000000000E+00 -0.00000000000E+00 -0.16477537756E+04  0.16477537756E+04  0.00000000000E+00 0. -1.
         23    2    1    2    0    0  0.72039051345E+03 -0.78049524956E+03  0.38310891424E+03  0.11325773889E+04  0.88452106631E+02 0.  0.
         11    1    3    3    0    0  0.19746482268E+03 -0.23223923950E+03  0.15087104072E+03  0.34013157967E+03  0.00000000000E+00 0.  1.
        -11    1    3    3    0    0  0.52292569077E+03 -0.54825601006E+03  0.23223787352E+03  0.79244580921E+03  0.00000000000E+00 0. -1.
         22    1    1    2    0    0 -0.72039051345E+03  0.78049524956E+03 -0.10514724033E+04  0.14945666734E+04  0.00000000000E+00 0. -1.
<mgrwt>
<rscale>  0 0.25407039E+04</rscale>
<asrwt>0</asrwt>
<pdfrwt beam="1">  1        2 0.25350058E+00 0.25407039E+04</pdfrwt>
<pdfrwt beam="2">  1       -2 0.15067543E+00 0.25407039E+04</pdfrwt>
<totfact> 0.27603437E+00</totfact>
</mgrwt>
</event>
<event>
 6    1  0.8968082E-007  0.2578003E+04  0.7818608E-02  0.8375712E-01
         -2   -1    0    0    0  501 -0.00000000000E+00  0.00000000000E+00  0.42651006171E+03  0.42651006171E+03  0.00000000000E+00 0.  1.
          2   -1    0    0  501    0  0.00000000000E+00 -0.00000000000E+00 -0.38956272917E+04  0.38956272917E+04  0.00000000000E+00 0. -1.
         23    2    1    2    0    0 -0.40436158395E+03  0.68168754803E+03 -0.36156444913E+02  0.79886813922E+03  0.93149404912E+02 0.  0.
         11    1    3    3    0    0 -0.25975279482E+03  0.36178785480E+03  0.49306410395E+01  0.44540574482E+03  0.00000000000E+00 0.  1.
        -11    1    3    3    0    0 -0.14460878914E+03  0.31989969323E+03 -0.41087085952E+02  0.35346239440E+03  0.00000000000E+00 0. -1.
         22    1    1    2    0    0  0.40436158395E+03 -0.68168754803E+03 -0.34329607850E+04  0.35232692141E+04  0.00000000000E+00 0. -1.
<mgrwt>
<rscale>  0 0.25780025E+04</rscale>
<asrwt>0</asrwt>
<pdfrwt beam="1">  1        2 0.59932726E+00 0.25780025E+04</pdfrwt>
<pdfrwt beam="2">  1       -2 0.65616934E-01 0.25780025E+04</pdfrwt>
<totfact> 0.78714371E-01</totfact>
</mgrwt>
</event>
<event>
 6    1  0.8968082E-007  0.1416337E+04  0.7818608E-02  0.8942077E-01
          2   -1    0    0  501    0  0.00000000000E+00  0.00000000000E+00  0.16942728231E+04  0.16942728231E+04  0.00000000000E+00 0. -1.
         -2   -1    0    0    0  501 -0.00000000000E+00 -0.00000000000E+00 -0.29599882583E+03  0.29599882583E+03  0.00000000000E+00 0.  1.
         23    2    1    2    0    0  0.50030738640E+03  0.44104759291E+03  0.10236506221E+04  0.12253055495E+04  0.93180648824E+02 0.  0.
         13    1    3    3    0    0  0.45667355771E+03  0.37181125945E+03  0.85956678188E+03  0.10419450098E+04  0.00000000000E+00 0.  1.
        -13    1    3    3    0    0  0.43633828691E+02  0.69236333459E+02  0.16408384026E+03  0.18336053968E+03  0.00000000000E+00 0. -1.
         22    1    1    2    0    0 -0.50030738640E+03 -0.44104759291E+03  0.37462337514E+03  0.76496609945E+03  0.00000000000E+00 0.  1.
<mgrwt>
<rscale>  0 0.14163372E+04</rscale>
<asrwt>0</asrwt>
<pdfrwt beam="1">  1        2 0.26065735E+00 0.14163372E+04</pdfrwt>
<pdfrwt beam="2">  1       -2 0.45538282E-01 0.14163372E+04</pdfrwt>
<totfact> 0.43912530E+01</totfact>
</mgrwt>
</event>
<event>
 6    1  0.8968082E-007  0.2479057E+04  0.7818608E-02  0.8410485E-01
         -2   -1    0    0    0  501 -0.00000000000E+00  0.00000000000E+00  0.59425035382E+03  0.59425035382E+03  0.00000000000E+00 0.  1.
          2   -1    0    0  501    0  0.00000000000E+00 -0.00000000000E+00 -0.25854942441E+04  0.25854942441E+04  0.00000000000E+00 0. -1.
         23    2    1    2    0    0  0.75901351338E+03 -0.17066257160E+01 -0.22515247354E+04  0.23773416166E+04  0.79278634124E+02 0.  0.
         13    1    3    3    0    0  0.50754958939E+03 -0.16121459413E+02 -0.16081349972E+04  0.16864058398E+04  0.00000000000E+00 0. -1.
        -13    1    3    3    0    0  0.25146392399E+03  0.14414833697E+02 -0.64338973818E+03  0.69093577682E+03  0.00000000000E+00 0.  1.
         22    1    1    2    0    0 -0.75901351338E+03  0.17066257160E+01  0.26028084513E+03  0.80240298131E+03  0.00000000000E+00 0.  1.
<mgrwt>
<rscale>  0 0.24790570E+04</rscale>
<asrwt>0</asrwt>
<pdfrwt beam="1">  1        2 0.39776835E+00 0.24790570E+04</pdfrwt>
<pdfrwt beam="2">  1       -2 0.91423131E-01 0.24790570E+04</pdfrwt>
<totfact> 0.28253692E+00</totfact>
</mgrwt>
</event>
<event>
 6    1  0.8968082E-007  0.7041776E+04  0.7818608E-02  0.7573142E-01
          2   -1    0    0  501    0  0.00000000000E+00  0.00000000000E+00  0.37286318244E+04  0.37286318244E+04  0.00000000000E+00 0. -1.
         -2   -1    0    0    0  501 -0.00000000000E+00 -0.00000000000E+00 -0.33247189097E+04  0.33247189097E+04  0.00000000000E+00 0.  1.
         23    2    1    2    0    0  0.21278342957E+04 -0.24466611526E+04 -0.11709139580E+04  0.34486441906E+04  0.90981705056E+02 0.  0.
         11    1    3    3    0    0  0.10412837427E+04 -0.12439603202E+04 -0.54994326884E+03  0.17129351155E+04  0.00000000000E+00 0.  1.
        -11    1    3    3    0    0  0.10865505530E+04 -0.12027008324E+04 -0.62097068917E+03  0.17357090751E+04  0.00000000000E+00 0. -1.
         22    1    1    2    0    0 -0.21278342957E+04  0.24466611526E+04  0.15748268727E+04  0.36047065435E+04  0.00000000000E+00 0. -1.
<mgrwt>
<rscale>  0 0.70417761E+04</rscale>
<asrwt>0</asrwt>
<pdfrwt beam="1">  1        2 0.57363566E+00 0.70417761E+04</pdfrwt>
<pdfrwt beam="2">  1       -2 0.51149522E+00 0.70417761E+04</pdfrwt>
<totfact> 0.49158041E-04</totfact>
</mgrwt>
</event>
<event>
 6    1  0.8968082E-007  0.1926768E+04  0.7818608E-02  0.8641646E-01
         -1   -1    0    0    0  501 -0.00000000000E+00  0.00000000000E+00  0.10529323316E+04  0.10529323316E+04  0.00000000000E+00 0.  1.
          1   -1    0    0  501    0  0.00000000000E+00 -0.00000000000E+00 -0.88145106059E+03  0.88145106059E+03  0.00000000000E+00 0. -1.
         23    2    1    2    0    0 -0.40551694376E+03 -0.82971600406E+03  0.35364721999E+03  0.99307734625E+03  0.90904457362E+02 0.  0.
         13    1    3    3    0    0 -0.24148175809E+03 -0.42710551864E+03  0.22441308915E+03  0.53953109097E+03  0.00000000000E+00 0.  1.
        -13    1    3    3    0    0 -0.16403518567E+03 -0.40261048542E+03  0.12923413084E+03  0.45354625529E+03  0.00000000000E+00 0. -1.
         22    1    1    2    0    0  0.40551694376E+03  0.82971600406E+03 -0.18216594901E+03  0.94130604590E+03  0.00000000000E+00 0. -1.
<mgrwt>
<rscale>  0 0.19267676E+04</rscale>
<asrwt>0</asrwt>
<pdfrwt beam="1">  1        1 0.13560785E+00 0.19267676E+04</pdfrwt>
<pdfrwt beam="2">  1       -1 0.16198959E+00 0.19267676E+04</pdfrwt>
<totfact> 0.49673051E+00</totfact>
</mgrwt>
</event>
<event>
 6    1  0.8968082E-007  0.4658968E+04  0.7818608E-02  0.7883382E-01
          2   -1    0    0  501    0  0.00000000000E+00  0.00000000000E+00  0.36704787245E+04  0.36704787245E+04  0.00000000000E+00 0. -1.
         -2   -1    0    0    0  501 -0.00000000000E+00 -0.00000000000E+00 -0.14784164849E+04  0.14784164849E+04  0.00000000000E+00 0.  1.
         23    2    1    2    0    0  0.63624040665E+03  0.74752664958E+03  0.34300158502E+04  0.35689815760E+04  0.94988474451E+02 0.  0.
         13    1    3    3    0    0  0.23687525785E+03  0.29415085232E+03  0.14859381952E+04  0.15331819630E+04  0.00000000000E+00 0. -1.
        -13    1    3    3    0    0  0.39936514879E+03  0.45337579726E+03  0.19440776551E+04  0.20357996130E+04  0.00000000000E+00 0.  1.
         22    1    1    2    0    0 -0.63624040665E+03 -0.74752664958E+03 -0.12379536106E+04  0.15799136334E+04  0.00000000000E+00 0.  1.
<mgrwt>
<rscale>  0 0.46589682E+04</rscale>
<asrwt>0</asrwt>
<pdfrwt beam="1">  1        2 0.56468903E+00 0.46589682E+04</pdfrwt>
<pdfrwt beam="2">  1       -2 0.22744869E+00 0.46589682E+04</pdfrwt>
<totfact> 0.40612435E-02</totfact>
</mgrwt>
</event>
<event>
 6    1  0.8968082E-007  0.1340520E+04  0.7818608E-02  0.8998036E-01
         -2   -1    0    0    0  501 -0.00000000000E+00  0.00000000000E+00  0.19556508524E+03  0.19556508524E+03  0.00000000000E+00 0.  1.
          2   -1    0    0  501    0  0.00000000000E+00 -0.00000000000E+00 -0.22971811552E+04  0.22971811552E+04  0.00000000000E+00 0. -1.
         23    2    1    2    0    0  0.59769061027E+03 -0.19010207047E+03 -0.14782201026E+04  0.16084412055E+04  0.92604410529E+02 0.  0.
         11    1    3    3    0    0  0.37299370064E+03 -0.10489108052E+03 -0.10182906479E+04  0.10895147007E+04  0.00000000000E+00 0. -1.
        -11    1    3    3    0    0  0.22469690963E+03 -0.85210989946E+02 -0.45992945470E+03  0.51892650473E+03  0.00000000000E+00 0.  1.
         22    1    1    2    0    0 -0.59769061027E+03  0.19010207047E+03 -0.62339596740E+03  0.88430503503E+03  0.00000000000E+00 0.  1.
<mgrwt>
<rscale>  0 0.13405199E+04</rscale>
<asrwt>0</asrwt>
<pdfrwt beam="1">  1        2 0.35341248E+00 0.13405199E+04</pdfrwt>
<pdfrwt beam="2">  1       -2 0.30086936E-01 0.13405199E+04</pdfrwt>
<totfact> 0.45477817E+01</totfact>
</mgrwt>
</event>
<event>
 6    1  0.8968082E-007  0.1310291E+04  0.7818608E-02  0.9021444E-01
         -1   -1    0    0    0  501 -0.00000000000E+00  0.00000000000E+00  0.25623213486E+03  0.25623213486E+03  0.00000000000E+00 0.  1.
          1   -1    0    0  501    0  0.00000000000E+00 -0.00000000000E+00 -0.16751053945E+04  0.16751053945E+04  0.00000000000E+00 0. -1.
         23    2    1    2    0    0  0.92332112573E+01  0.16895039660E+03 -0.16410918812E+04  0.16520337441E+04  0.86043246091E+02 0.  0.
         13    1    3    3    0    0  0.33163648197E+02  0.15605692519E+03 -0.12768040673E+04  0.12867331572E+04  0.00000000000E+00 0. -1.
        -13    1    3    3    0    0 -0.23930436940E+02  0.12893471409E+02 -0.36428781391E+03  0.36530058689E+03  0.00000000000E+00 0.  1.
         22    1    1    2    0    0 -0.92332112573E+01 -0.16895039660E+03  0.22221862159E+03  0.27930378530E+03  0.00000000000E+00 0.  1.
<mgrwt>
<rscale>  0 0.13102913E+04</rscale>
<asrwt>0</asrwt>
<pdfrwt beam="1">  1        1 0.25770852E+00 0.13102913E+04</pdfrwt>
<pdfrwt beam="2">  1       -1 0.39420329E-01 0.13102913E+04</pdfrwt>
<totfact> 0.30445651E+01</totfact>
</mgrwt>
</event>
<event>
 6    1  0.8968082E-007  0.1480637E+04  0.7818608E-02  0.8897432E-01
         -2   -1    0    0    0  501 -0.00000000000E+00  0.00000000000E+00  0.78264395662E+03  0.78264395662E+03  0.00000000000E+00 0.  1.
          2   -1    0    0  501    0  0.00000000000E+00 -0.00000000000E+00 -0.70028217419E+03  0.70028217419E+03  0.00000000000E+00 0. -1.
         23    2    1    2    0    0 -0.39946403250E+03  0.27049868689E+03  0.59990047333E+03  0.77540415275E+03  0.92897628191E+02 0.  0.
         13    1    3    3    0    0 -0.22995492057E+03  0.20462306123E+03  0.40701177389E+03  0.51030230919E+03  0.00000000000E+00 0. -1.
        -13    1    3    3    0    0 -0.16950911193E+03  0.65875625656E+02  0.19288869944E+03  0.26510184355E+03  0.00000000000E+00 0.  1.
         22    1    1    2    0    0  0.39946403250E+03 -0.27049868689E+03 -0.51753869089E+03  0.70752197806E+03  0.00000000000E+00 0. -1.
<mgrwt>
<rscale>  0 0.14806372E+04</rscale>
<asrwt>0</asrwt>
<pdfrwt beam="1">  1        2 0.10773572E+00 0.14806372E+04</pdfrwt>
<pdfrwt beam="2">  1       -2 0.12040676E+00 0.14806372E+04</pdfrwt>
<totfact> 0.20861465E+01</totfact>
</mgrwt>
</event>
<event>
 6    1  0.8968082E-007  0.3574528E+04  0.7818608E-02  0.8096352E-01
          2   -1    0    0  501    0  0.00000000000E+00  0.00000000000E+00  0.35421442074E+04  0.35421442074E+04  0.00000000000E+00 0. -1.
         -2   -1    0    0    0  501 -0.00000000000E+00 -0.00000000000E+00 -0.90180171794E+03  0.90180171794E+03  0.00000000000E+00 0.  1.
         23    2    1    2    0    0  0.40777350617E+02 -0.87440876914E+03 -0.61453217812E+03  0.10734173927E+04  0.91222875864E+02 0.  0.
         13    1    3    3    0    0 -0.21922340655E+02 -0.74665943917E+02 -0.50156210559E+02  0.92580978924E+02  0.00000000000E+00 0.  1.
        -13    1    3    3    0    0  0.62699691272E+02 -0.79974282522E+03 -0.56437596756E+03  0.98083641375E+03  0.00000000000E+00 0. -1.
         22    1    1    2    0    0 -0.40777350617E+02  0.87440876914E+03  0.32548746676E+04  0.33705285327E+04  0.00000000000E+00 0. -1.
<mgrwt>
<rscale>  0 0.35745275E+04</rscale>
<asrwt>0</asrwt>
<pdfrwt beam="1">  1        2 0.54494526E+00 0.35745275E+04</pdfrwt>
<pdfrwt beam="2">  1       -2 0.13873873E+00 0.35745275E+04</pdfrwt>
<totfact> 0.22761824E-01</totfact>
</mgrwt>
</event>
<event>
 6    1  0.8968082E-007  0.5956481E+04  0.7818608E-02  0.7695821E-01
          2   -1    0    0  501    0  0.00000000000E+00  0.00000000000E+00  0.36816000440E+04  0.36816000440E+04  0.00000000000E+00 0. -1.
         -2   -1    0    0    0  501 -0.00000000000E+00 -0.00000000000E+00 -0.24092560833E+04  0.24092560833E+04  0.00000000000E+00 0.  1.
         23    2    1    2    0    0 -0.16154981783E+04  0.10034013414E+04  0.29791953752E+04  0.35354715443E+04  0.85471288883E+02 0.  0.
         13    1    3    3    0    0 -0.62984917415E+03  0.37628610608E+03  0.10762808243E+04  0.13025673221E+04  0.00000000000E+00 0.  1.
        -13    1    3    3    0    0 -0.98564900418E+03  0.62711523532E+03  0.19029145509E+04  0.22329042222E+04  0.00000000000E+00 0. -1.
         22    1    1    2    0    0  0.16154981783E+04 -0.10034013414E+04 -0.17068514144E+04  0.25553845830E+04  0.00000000000E+00 0.  1.
<mgrwt>
<rscale>  0 0.59564813E+04</rscale>
<asrwt>0</asrwt>
<pdfrwt beam="1">  1        2 0.56640001E+00 0.59564813E+04</pdfrwt>
<pdfrwt beam="2">  1       -2 0.37065478E+00 0.59564813E+04</pdfrwt>
<totfact> 0.46640952E-03</totfact>
</mgrwt>
</event>
<event>
 6    1  0.8968082E-007  0.1762310E+04  0.7818608E-02  0.8726603E-01
          1   -1    0    0  501    0  0.00000000000E+00  0.00000000000E+00  0.25869804298E+04  0.25869804298E+04  0.00000000000E+00 0. -1.
         -1   -1    0    0    0  501 -0.00000000000E+00 -0.00000000000E+00 -0.30013135224E+03  0.30013135224E+03  0.00000000000E+00 0.  1.
         23    2    1    2    0    0  0.59778422752E+03 -0.55266643228E+03  0.16883472223E+04  0.18766709679E+04  0.92689863513E+02 0.  0.
         11    1    3    3    0    0  0.48996035354E+03 -0.44102874544E+03  0.12790784963E+04  0.14389611885E+04  0.00000000000E+00 0. -1.
        -11    1    3    3    0    0  0.10782387398E+03 -0.11163768684E+03  0.40926872593E+03  0.43770977936E+03  0.00000000000E+00 0.  1.
         22    1    1    2    0    0 -0.59778422752E+03  0.55266643228E+03  0.59850185525E+03  0.10104408141E+04  0.00000000000E+00 0.  1.
<mgrwt>
<rscale>  0 0.17623098E+04</rscale>
<asrwt>0</asrwt>
<pdfrwt beam="1">  1        1 0.39799698E+00 0.17623098E+04</pdfrwt>
<pdfrwt beam="2">  1       -1 0.46174056E-01 0.17623098E+04</pdfrwt>
<totfact> 0.52132824E+00</totfact>
</mgrwt>
</event>
<event>
 6    1  0.8968082E-007  0.2028633E+04  0.7818608E-02  0.8593350E-01
          1   -1    0    0  501    0  0.00000000000E+00  0.00000000000E+00  0.11274153966E+04  0.11274153966E+04  0.00000000000E+00 0. -1.
         -1   -1    0    0    0  501 -0.00000000000E+00 -0.00000000000E+00 -0.91256301926E+03  0.91256301926E+03  0.00000000000E+00 0.  1.
         23    2    1    2    0    0  0.41299000863E+03 -0.39870683961E+03 -0.73076791983E+03  0.93375708284E+03  0.91392811067E+02 0.  0.
         11    1    3    3    0    0  0.33711071237E+03 -0.27503580112E+03 -0.52233819751E+03  0.67979814421E+03  0.00000000000E+00 0.  1.
        -11    1    3    3    0    0  0.75879296263E+02 -0.12367103850E+03 -0.20842972233E+03  0.25395893864E+03  0.00000000000E+00 0. -1.
         22    1    1    2    0    0 -0.41299000863E+03  0.39870683961E+03  0.94562029717E+03  0.11062213330E+04  0.00000000000E+00 0. -1.
<mgrwt>
<rscale>  0 0.20286326E+04</rscale>
<asrwt>0</asrwt>
<pdfrwt beam="1">  1        1 0.17344852E+00 0.20286326E+04</pdfrwt>
<pdfrwt beam="2">  1       -1 0.14039431E+00 0.20286326E+04</pdfrwt>
<totfact> 0.46561457E+00</totfact>
</mgrwt>
</event>
<event>
 6    1  0.8968082E-007  0.1974275E+04  0.7818608E-02  0.8618743E-01
          1   -1    0    0  501    0  0.00000000000E+00  0.00000000000E+00  0.59639130534E+03  0.59639130534E+03  0.00000000000E+00 0. -1.
         -1   -1    0    0    0  501 -0.00000000000E+00 -0.00000000000E+00 -0.16338937852E+04  0.16338937852E+04  0.00000000000E+00 0.  1.
         23    2    1    2    0    0 -0.57925631757E+03 -0.76152585069E+03 -0.78416501347E+03  0.12405177570E+04  0.92249847296E+02 0.  0.
         13    1    3    3    0    0 -0.26868766803E+03 -0.38875149055E+03 -0.33429479637E+03  0.57885559100E+03  0.00000000000E+00 0.  1.
        -13    1    3    3    0    0 -0.31056864954E+03 -0.37277436014E+03 -0.44987021710E+03  0.66166216598E+03  0.00000000000E+00 0. -1.
         22    1    1    2    0    0  0.57925631757E+03  0.76152585069E+03 -0.25333746640E+03  0.98976733357E+03  0.00000000000E+00 0. -1.
<mgrwt>
<rscale>  0 0.19742746E+04</rscale>
<asrwt>0</asrwt>
<pdfrwt beam="1">  1        1 0.91752510E-01 0.19742746E+04</pdfrwt>
<pdfrwt beam="2">  1       -1 0.25136827E+00 0.19742746E+04</pdfrwt>
<totfact> 0.21937829E+00</totfact>
</mgrwt>
</event>
<event>
 6    1  0.8968082E-007  0.9580942E+03  0.7818608E-02  0.9355739E-01
         -2   -1    0    0    0  501 -0.00000000000E+00  0.00000000000E+00  0.58437208492E+03  0.58437208492E+03  0.00000000000E+00 0.  1.
          2   -1    0    0  501    0  0.00000000000E+00 -0.00000000000E+00 -0.39270546744E+03  0.39270546744E+03  0.00000000000E+00 0. -1.
         23    2    1    2    0    0  0.40350806651E+03  0.14100858247E+03  0.30765450937E+03  0.53418324089E+03  0.89432978542E+02 0.  0.
         13    1    3    3    0    0  0.32403720878E+03  0.74117286612E+02  0.22437075149E+03  0.40104328816E+03  0.00000000000E+00 0.  1.
        -13    1    3    3    0    0  0.79470857723E+02  0.66891295856E+02  0.83283757875E+02  0.13313995274E+03  0.00000000000E+00 0. -1.
         22    1    1    2    0    0 -0.40350806651E+03 -0.14100858247E+03 -0.11598789189E+03  0.44289431147E+03  0.00000000000E+00 0. -1.
<mgrwt>
<rscale>  0 0.95809418E+03</rscale>
<asrwt>0</asrwt>
<pdfrwt beam="1">  1        2 0.60416225E-01 0.95809418E+03</pdfrwt>
<pdfrwt beam="2">  1       -2 0.89903398E-01 0.95809418E+03</pdfrwt>
<totfact> 0.86104363E+01</totfact>
</mgrwt>
</event>
<event>
 6    1  0.8968082E-007  0.1649772E+04  0.7818608E-02  0.8790541E-01
         -1   -1    0    0    0  501 -0.00000000000E+00  0.00000000000E+00  0.21932484605E+03  0.21932484605E+03  0.00000000000E+00 0.  1.
          1   -1    0    0  501    0  0.00000000000E+00 -0.00000000000E+00 -0.31024166998E+04  0.31024166998E+04  0.00000000000E+00 0. -1.
         23    2    1    2    0    0 -0.36473494909E+03 -0.52011196975E+03 -0.39657970631E+03  0.75536458532E+03  0.98752970268E+02 0.  0.
         11    1    3    3    0    0 -0.14681180040E+03 -0.29042210706E+03 -0.22034484787E+03  0.39300198089E+03  0.00000000000E+00 0. -1.
        -11    1    3    3    0    0 -0.21792314869E+03 -0.22968986270E+03 -0.17623485844E+03  0.36236260443E+03  0.00000000000E+00 0.  1.
         22    1    1    2    0    0  0.36473494909E+03  0.52011196975E+03 -0.24865121475E+04  0.25663769606E+04  0.00000000000E+00 0. -1.
<mgrwt>
<rscale>  0 0.16497722E+04</rscale>
<asrwt>0</asrwt>
<pdfrwt beam="1">  1        1 0.47729486E+00 0.16497722E+04</pdfrwt>
<pdfrwt beam="2">  1       -1 0.33742285E-01 0.16497722E+04</pdfrwt>
<totfact> 0.40000870E+00</totfact>
</mgrwt>
</event>
<event>
 6    1  0.8968082E-007  0.2361370E+04  0.7818608E-02  0.8454109E-01
         -2   -1    0    0    0  501 -0.00000000000E+00  0.00000000000E+00  0.13377976261E+04  0.13377976261E+04  0.00000000000E+00 0.  1.
          2   -1    0    0  501    0  0.00000000000E+00 -0.00000000000E+00 -0.10420239027E+04  0.10420239027E+04  0.00000000000E+00 0. -1.
         23    2    1    2    0    0  0.88193397050E+03  0.76623623407E+03 -0.10396519753E+02  0.11720691898E+04  0.93341326709E+02 0.  0.
         11    1    3    3    0    0  0.49150312117E+03  0.48109684820E+03 -0.27211236212E+02  0.68830948478E+03  0.00000000000E+00 0. -1.
        -11    1    3    3    0    0  0.39043084933E+03  0.28513938587E+03  0.16814716458E+02  0.48375970499E+03  0.00000000000E+00 0.  1.
         22    1    1    2    0    0 -0.88193397050E+03 -0.76623623407E+03  0.30617024319E+03  0.12077523391E+04  0.00000000000E+00 0.  1.
<mgrwt>
<rscale>  0 0.23613700E+04</rscale>
<asrwt>0</asrwt>
<pdfrwt beam="1">  1        2 0.16031137E+00 0.23613700E+04</pdfrwt>
<pdfrwt beam="2">  1       -2 0.20581502E+00 0.23613700E+04</pdfrwt>
<totfact> 0.26028683E+00</totfact>
</mgrwt>
</event>
<event>
 6    1  0.8968082E-007  0.1761965E+04  0.7818608E-02  0.8726792E-01
          2   -1    0    0  501    0  0.00000000000E+00  0.00000000000E+00  0.14250354287E+04  0.14250354287E+04  0.00000000000E+00 0. -1.
         -2   -1    0    0    0  501 -0.00000000000E+00 -0.00000000000E+00 -0.54463897663E+03  0.54463897663E+03  0.00000000000E+00 0.  1.
         23    2    1    2    0    0  0.58542351061E+03  0.22313652185E+03 -0.24719893599E+03  0.67972016066E+03  0.91660180525E+02 0.  0.
         11    1    3    3    0    0  0.21308399629E+03  0.10112316401E+03 -0.50124585032E+02  0.24112892360E+03  0.00000000000E+00 0. -1.
        -11    1    3    3    0    0  0.37233951432E+03  0.12201335784E+03 -0.19707435095E+03  0.43859123705E+03  0.00000000000E+00 0.  1.
         22    1    1    2    0    0 -0.58542351061E+03 -0.22313652185E+03  0.11275953881E+04  0.12899542447E+04  0.00000000000E+00 0. -1.
<mgrwt>
<rscale>  0 0.17619646E+04</rscale>
<asrwt>0</asrwt>
<pdfrwt beam="1">  1        2 0.21923622E+00 0.17619646E+04</pdfrwt>
<pdfrwt beam="2">  1       -2 0.83790612E-01 0.17619646E+04</pdfrwt>
<totfact> 0.16505159E+01</totfact>
</mgrwt>
</event>
<event>
 6    1  0.8968082E-007  0.9669555E+03  0.7818608E-02  0.9345549E-01
          1   -1    0    0  501    0  0.00000000000E+00  0.00000000000E+00  0.13664395023E+04  0.13664395023E+04  0.00000000000E+00 0. -1.
         -1   -1    0    0    0  501 -0.00000000000E+00 -0.00000000000E+00 -0.17106555766E+03  0.17106555766E+03  0.00000000000E+00 0.  1.
         23    2    1    2    0    0  0.69156972918E+02  0.40266440632E+03  0.20877417150E+03  0.46965655789E+03  0.10034598477E+03 0.  0.
         13    1    3    3    0    0  0.18961587232E+02  0.28668352838E+03  0.18311103838E+03  0.34070021956E+03  0.00000000000E+00 0.  1.
        -13    1    3    3    0    0  0.50195385686E+02  0.11598087794E+03  0.25663133123E+02  0.12895633833E+03  0.00000000000E+00 0. -1.
         22    1    1    2    0    0 -0.69156972918E+02 -0.40266440632E+03  0.98659977316E+03  0.10678485021E+04  0.00000000000E+00 0. -1.
<mgrwt>
<rscale>  0 0.96695550E+03</rscale>
<asrwt>0</asrwt>
<pdfrwt beam="1">  1        1 0.21022146E+00 0.96695550E+03</pdfrwt>
<pdfrwt beam="2">  1       -1 0.26317779E-01 0.96695550E+03</pdfrwt>
<totfact> 0.10441542E+02</totfact>
</mgrwt>
</event>
<event>
 6    1  0.8968082E-007  0.2656441E+04  0.7818608E-02  0.8349278E-01
         -1   -1    0    0    0  501 -0.00000000000E+00  0.00000000000E+00  0.91626351909E+03  0.91626351909E+03  0.00000000000E+00 0.  1.
          1   -1    0    0  501    0  0.00000000000E+00 -0.00000000000E+00 -0.19253948580E+04  0.19253948580E+04  0.00000000000E+00 0. -1.
         23    2    1    2    0    0 -0.17369212797E+03 -0.11735912737E+04 -0.11402517772E+04  0.16480596160E+04  0.91874639379E+02 0.  0.
         13    1    3    3    0    0 -0.10344653045E+03 -0.56317906422E+03 -0.49281390617E+03  0.75547163359E+03  0.00000000000E+00 0. -1.
        -13    1    3    3    0    0 -0.70245597520E+02 -0.61041220948E+03 -0.64743787105E+03  0.89258798240E+03  0.00000000000E+00 0.  1.
         22    1    1    2    0    0  0.17369212797E+03  0.11735912737E+04  0.13112043836E+03  0.11935987611E+04  0.00000000000E+00 0.  1.
<mgrwt>
<rscale>  0 0.26564405E+04</rscale>
<asrwt>0</asrwt>
<pdfrwt beam="1">  1        1 0.29621460E+00 0.26564405E+04</pdfrwt>
<pdfrwt beam="2">  1       -1 0.14096362E+00 0.26564405E+04</pdfrwt>
<totfact> 0.12080884E+00</totfact>
</mgrwt>
</event>
<event>
 6    1  0.8968082E-007  0.2020563E+04  0.7818608E-02  0.8597067E-01
          2   -1    0    0  501    0  0.00000000000E+00  0.00000000000E+00  0.25481328515E+04  0.25481328515E+04  0.00000000000E+00 0. -1.
         -2   -1    0    0    0  501 -0.00000000000E+00 -0.00000000000E+00 -0.40055541237E+03  0.40055541237E+03  0.00000000000E+00 0.  1.
         23    2    1    2    0    0 -0.17562420601E+03 -0.50081535978E+03 -0.17499285787E+03  0.56625407362E+03  0.91440085627E+02 0.  0.
         13    1    3    3    0    0 -0.59035774826E+02 -0.28680077715E+03 -0.71099713862E+02  0.30132221590E+03  0.00000000000E+00 0.  1.
        -13    1    3    3    0    0 -0.11658843119E+03 -0.21401458263E+03 -0.10389314401E+03  0.26493185772E+03  0.00000000000E+00 0. -1.
         22    1    1    2    0    0  0.17562420601E+03  0.50081535978E+03  0.23225702970E+04  0.23824341902E+04  0.00000000000E+00 0. -1.
<mgrwt>
<rscale>  0 0.20205627E+04</rscale>
<asrwt>0</asrwt>
<pdfrwt beam="1">  1        2 0.39202043E+00 0.20205627E+04</pdfrwt>
<pdfrwt beam="2">  1       -2 0.61623911E-01 0.20205627E+04</pdfrwt>
<totfact> 0.74125572E+00</totfact>
</mgrwt>
</event>
<event>
 6    1  0.8968082E-007  0.1895962E+04  0.7818608E-02  0.8656869E-01
          1   -1    0    0  501    0  0.00000000000E+00  0.00000000000E+00  0.17201666871E+04  0.17201666871E+04  0.00000000000E+00 0. -1.
         -1   -1    0    0    0  501 -0.00000000000E+00 -0.00000000000E+00 -0.52243056806E+03  0.52243056806E+03  0.00000000000E+00 0.  1.
         23    2    1    2    0    0 -0.10280691380E+03  0.28404429561E+03  0.16604772412E+04  0.16899854840E+04  0.87268804138E+02 0.  0.
         13    1    3    3    0    0 -0.61032023415E+02  0.15358988568E+03  0.67010149803E+03  0.69018169965E+03  0.00000000000E+00 0.  1.
        -13    1    3    3    0    0 -0.41774890382E+02  0.13045440993E+03  0.99037574319E+03  0.99980378436E+03  0.00000000000E+00 0. -1.
         22    1    1    2    0    0  0.10280691380E+03 -0.28404429561E+03 -0.46274112221E+03  0.55261177112E+03  0.00000000000E+00 0.  1.
<mgrwt>
<rscale>  0 0.18959617E+04</rscale>
<asrwt>0</asrwt>
<pdfrwt beam="1">  1        1 0.26464103E+00 0.18959617E+04</pdfrwt>
<pdfrwt beam="2">  1       -1 0.80373934E-01 0.18959617E+04</pdfrwt>
<totfact> 0.66737676E+00</totfact>
</mgrwt>
</event>
<event>
 6    1  0.8968082E-007  0.1472144E+04  0.7818608E-02  0.8903191E-01
          1   -1    0    0  501    0  0.00000000000E+00  0.00000000000E+00  0.46946090226E+03  0.46946090226E+03  0.00000000000E+00 0. -1.
         -1   -1    0    0    0  501 -0.00000000000E+00 -0.00000000000E+00 -0.11540943574E+04  0.11540943574E+04  0.00000000000E+00 0.  1.
         23    2    1    2    0    0  0.52256388442E+03 -0.48586958817E+03 -0.53028489314E+03  0.89351022775E+03  0.89533173704E+02 0.  0.
         13    1    3    3    0    0  0.39232968398E+03 -0.41373437321E+03 -0.42604577173E+03  0.71176801847E+03  0.00000000000E+00 0.  1.
        -13    1    3    3    0    0  0.13023420044E+03 -0.72135214955E+02 -0.10423912141E+03  0.18174220928E+03  0.00000000000E+00 0. -1.
         22    1    1    2    0    0 -0.52256388442E+03  0.48586958817E+03 -0.15434856199E+03  0.73004503189E+03  0.00000000000E+00 0.  1.
<mgrwt>
<rscale>  0 0.14721443E+04</rscale>
<asrwt>0</asrwt>
<pdfrwt beam="1">  1        1 0.72224755E-01 0.14721443E+04</pdfrwt>
<pdfrwt beam="2">  1       -1 0.17755298E+00 0.14721443E+04</pdfrwt>
<totfact> 0.10155512E+01</totfact>
</mgrwt>
</event>
<event>
 6    1  0.8968082E-007  0.4552342E+04  0.7818608E-02  0.7901537E-01
          2   -1    0    0  501    0  0.00000000000E+00  0.00000000000E+00  0.30127601083E+04  0.30127601083E+04  0.00000000000E+00 0. -1.
         -2   -1    0    0    0  501 -0.00000000000E+00 -0.00000000000E+00 -0.17196704765E+04  0.17196704765E+04  0.00000000000E+00 0.  1.
         23    2    1    2    0    0 -0.99038078141E+03 -0.19978614439E+04  0.11135945152E+04  0.24953514762E+04  0.11992416078E+03 0.  0.
         11    1    3    3    0    0 -0.67277580839E+03 -0.12795834093E+04  0.77241281651E+03  0.16390797872E+04  0.00000000000E+00 0. -1.
        -11    1    3    3    0    0 -0.31760497302E+03 -0.71827803459E+03  0.34118169869E+03  0.85627168900E+03  0.00000000000E+00 0.  1.
         22    1    1    2    0    0  0.99038078141E+03  0.19978614439E+04  0.17949511664E+03  0.22370791086E+04  0.00000000000E+00 0.  1.
<mgrwt>
<rscale>  0 0.45523421E+04</rscale>
<asrwt>0</asrwt>
<pdfrwt beam="1">  1        2 0.46350155E+00 0.45523421E+04</pdfrwt>
<pdfrwt beam="2">  1       -2 0.26456469E+00 0.45523421E+04</pdfrwt>
<totfact> 0.67439408E-02</totfact>
</mgrwt>
</event>
<event>
 6    1  0.8968082E-007  0.1577230E+04  0.7818608E-02  0.8834660E-01
         -1   -1    0    0    0  501 -0.00000000000E+00  0.00000000000E+00  0.21685403887E+03  0.21685403887E+03  0.00000000000E+00 0.  1.
          1   -1    0    0  501    0  0.00000000000E+00 -0.00000000000E+00 -0.28678911494E+04  0.28678911494E+04  0.00000000000E+00 0. -1.
         23    2    1    2    0    0  0.55223584787E+03 -0.23710493650E+03 -0.33924298605E+03  0.69611058738E+03  0.91109624610E+02 0.  0.
         11    1    3    3    0    0  0.15768706110E+03 -0.10547378207E+03 -0.13427729215E+03  0.23242271647E+03  0.00000000000E+00 0.  1.
        -11    1    3    3    0    0  0.39454878677E+03 -0.13163115443E+03 -0.20496569390E+03  0.46368787092E+03  0.00000000000E+00 0. -1.
         22    1    1    2    0    0 -0.55223584787E+03  0.23710493650E+03 -0.23117941245E+04  0.23886346009E+04  0.00000000000E+00 0. -1.
<mgrwt>
<rscale>  0 0.15772302E+04</rscale>
<asrwt>0</asrwt>
<pdfrwt beam="1">  1        1 0.44121401E+00 0.15772302E+04</pdfrwt>
<pdfrwt beam="2">  1       -1 0.33362161E-01 0.15772302E+04</pdfrwt>
<totfact> 0.60819394E+00</totfact>
</mgrwt>
</event>
<event>
 6    1  0.8968082E-007  0.1316636E+04  0.7818608E-02  0.9016476E-01
         -1   -1    0    0    0  501 -0.00000000000E+00  0.00000000000E+00  0.17132515102E+03  0.17132515102E+03  0.00000000000E+00 0.  1.
          1   -1    0    0  501    0  0.00000000000E+00 -0.00000000000E+00 -0.25295894926E+04  0.25295894926E+04  0.00000000000E+00 0. -1.
         23    2    1    2    0    0  0.68746474802E+02 -0.33550663644E+03 -0.23304738173E+04  0.23573115381E+04  0.92296769822E+02 0.  0.
         13    1    3    3    0    0  0.80350597836E+02 -0.16348062049E+03 -0.11666220437E+04  0.11807578603E+04  0.00000000000E+00 0.  1.
        -13    1    3    3    0    0 -0.11604123034E+02 -0.17202601594E+03 -0.11638517736E+04  0.11765536778E+04  0.00000000000E+00 0. -1.
         22    1    1    2    0    0 -0.68746474802E+02  0.33550663644E+03 -0.27790524299E+02  0.34360310553E+03  0.00000000000E+00 0.  1.
<mgrwt>
<rscale>  0 0.13166356E+04</rscale>
<asrwt>0</asrwt>
<pdfrwt beam="1">  1        1 0.38916762E+00 0.13166356E+04</pdfrwt>
<pdfrwt beam="2">  1       -1 0.26357715E-01 0.13166356E+04</pdfrwt>
<totfact> 0.16289125E+01</totfact>
</mgrwt>
</event>
<event>
 6    1  0.8968082E-007  0.1094510E+04  0.7818608E-02  0.9210560E-01
         -2   -1    0    0    0  501 -0.00000000000E+00  0.00000000000E+00  0.10006835782E+03  0.10006835782E+03  0.00000000000E+00 0.  1.
          2   -1    0    0  501    0  0.00000000000E+00 -0.00000000000E+00 -0.29928331592E+04  0.29928331592E+04  0.00000000000E+00 0. -1.
         23    2    1    2    0    0 -0.25514555532E+03 -0.45779731133E+03 -0.18703153661E+04  0.19439539637E+04  0.78738881772E+02 0.  0.
         11    1    3    3    0    0 -0.20353187031E+03 -0.29213351254E+03 -0.12931651835E+04  0.13412842365E+04  0.00000000000E+00 0. -1.
        -11    1    3    3    0    0 -0.51613685004E+02 -0.16566379878E+03 -0.57715018263E+03  0.60266972715E+03  0.00000000000E+00 0.  1.
         22    1    1    2    0    0  0.25514555532E+03  0.45779731133E+03 -0.10224494352E+04  0.11489475533E+04  0.00000000000E+00 0.  1.
<mgrwt>
<rscale>  0 0.10945098E+04</rscale>
<asrwt>0</asrwt>
<pdfrwt beam="1">  1        2 0.46043589E+00 0.10945098E+04</pdfrwt>
<pdfrwt beam="2">  1       -2 0.15395131E-01 0.10945098E+04</pdfrwt>
<totfact> 0.59824851E+01</totfact>
</mgrwt>
</event>
<event>
 6    1  0.8968082E-007  0.2059223E+04  0.7818608E-02  0.8579422E-01
          2   -1    0    0  501    0  0.00000000000E+00  0.00000000000E+00  0.84680145524E+03  0.84680145524E+03  0.00000000000E+00 0. -1.
         -2   -1    0    0    0  501 -0.00000000000E+00 -0.00000000000E+00 -0.12518870245E+04  0.12518870245E+04  0.00000000000E+00 0.  1.
         23    2    1    2    0    0  0.46187424953E+03  0.88249256347E+02  0.72840239367E+03  0.87153294122E+03  0.88791142047E+02 0.  0.
         11    1    3    3    0    0  0.18011733764E+03  0.19959519597E+02  0.20839129214E+03  0.27616583492E+03  0.00000000000E+00 0.  1.
        -11    1    3    3    0    0  0.28175691189E+03  0.68289736751E+02  0.52001110153E+03  0.59536710630E+03  0.00000000000E+00 0. -1.
         22    1    1    2    0    0 -0.46187424953E+03 -0.88249256347E+02 -0.11334879629E+04  0.12271555385E+04  0.00000000000E+00 0.  1.
<mgrwt>
<rscale>  0 0.20592229E+04</rscale>
<asrwt>0</asrwt>
<pdfrwt beam="1">  1        2 0.13027715E+00 0.20592229E+04</pdfrwt>
<pdfrwt beam="2">  1       -2 0.19259800E+00 0.20592229E+04</pdfrwt>
<totfact> 0.43905939E+00</totfact>
</mgrwt>
</event>
<event>
 6    1  0.8968082E-007  0.1186401E+04  0.7818608E-02  0.9124843E-01
         -1   -1    0    0    0  501 -0.00000000000E+00  0.00000000000E+00  0.25980227091E+03  0.25980227091E+03  0.00000000000E+00 0.  1.
          1   -1    0    0  501    0  0.00000000000E+00 -0.00000000000E+00 -0.13544418380E+04  0.13544418380E+04  0.00000000000E+00 0. -1.
         23    2    1    2    0    0  0.49838430081E+03 -0.32057841730E+02 -0.97979863385E+03  0.11017960077E+04  0.67338422237E+02 0.  0.
         11    1    3    3    0    0  0.42866433577E+03 -0.45918856114E+01 -0.81983718651E+03  0.92515253367E+03  0.00000000000E+00 0.  1.
        -11    1    3    3    0    0  0.69719965048E+02 -0.27465956119E+02 -0.15996144733E+03  0.17664347399E+03  0.00000000000E+00 0. -1.
         22    1    1    2    0    0 -0.49838430081E+03  0.32057841730E+02 -0.11484093324E+03  0.51244810124E+03  0.00000000000E+00 0.  1.
<mgrwt>
<rscale>  0 0.11864014E+04</rscale>
<asrwt>0</asrwt>
<pdfrwt beam="1">  1        1 0.20837567E+00 0.11864014E+04</pdfrwt>
<pdfrwt beam="2">  1       -1 0.39969580E-01 0.11864014E+04</pdfrwt>
<totfact> 0.49969996E+01</totfact>
</mgrwt>
</event>
<event>
 6    1  0.8968082E-007  0.3092551E+04  0.7818608E-02  0.8217785E-01
          1   -1    0    0  501    0  0.00000000000E+00  0.00000000000E+00  0.19532054045E+04  0.19532054045E+04  0.00000000000E+00 0. -1.
         -1   -1    0    0    0  501 -0.00000000000E+00 -0.00000000000E+00 -0.12241250051E+04  0.12241250051E+04  0.00000000000E+00 0.  1.
         23    2    1    2    0    0 -0.72406257042E+03  0.64671532567E+03  0.15995469621E+04  0.18734058125E+04  0.92690539380E+02 0.  0.
         11    1    3    3    0    0 -0.64902980687E+03  0.61375017884E+03  0.14618288493E+04  0.17131469747E+04  0.00000000000E+00 0. -1.
        -11    1    3    3    0    0 -0.75032763551E+02  0.32965146830E+02  0.13771811272E+03  0.16025883777E+03  0.00000000000E+00 0.  1.
         22    1    1    2    0    0  0.72406257042E+03 -0.64671532567E+03 -0.87046656261E+03  0.13039245971E+04  0.00000000000E+00 0.  1.
<mgrwt>
<rscale>  0 0.30925508E+04</rscale>
<asrwt>0</asrwt>
<pdfrwt beam="1">  1        1 0.30049314E+00 0.30925508E+04</pdfrwt>
<pdfrwt beam="2">  1       -1 0.18832692E+00 0.30925508E+04</pdfrwt>
<totfact> 0.49150552E-01</totfact>
</mgrwt>
</event>
<event>
 6    1  0.8968082E-007  0.1814217E+04  0.7818608E-02  0.8698775E-01
         -1   -1    0    0    0  501 -0.00000000000E+00  0.00000000000E+00  0.49628424111E+03  0.49628424111E+03  0.00000000000E+00 0.  1.
          1   -1    0    0  501    0  0.00000000000E+00 -0.00000000000E+00 -0.16580128551E+04  0.16580128551E+04  0.00000000000E+00 0. -1.
         23    2    1    2    0    0 -0.84146784153E+03 -0.26609320250E+03 -0.35174241190E+03  0.95640253978E+03  0.11004259636E+03 0.  0.
         11    1    3    3    0    0 -0.65134744187E+03 -0.16870295767E+03 -0.29953430438E+03  0.73650185164E+03  0.00000000000E+00 0.  1.
        -11    1    3    3    0    0 -0.19012039966E+03 -0.97390244824E+02 -0.52208107513E+02  0.21990068814E+03  0.00000000000E+00 0. -1.
         22    1    1    2    0    0  0.84146784153E+03  0.26609320250E+03 -0.80998620210E+03  0.11978945564E+04  0.00000000000E+00 0. -1.
<mgrwt>
<rscale>  0 0.18142168E+04</rscale>
<asrwt>0</asrwt>
<pdfrwt beam="1">  1        1 0.25507890E+00 0.18142168E+04</pdfrwt>
<pdfrwt beam="2">  1       -1 0.76351421E-01 0.18142168E+04</pdfrwt>
<totfact> 0.82631359E+00</totfact>
</mgrwt>
</event>
<event>
 6    1  0.8968082E-007  0.1486498E+04  0.7818608E-02  0.8893481E-01
          1   -1    0    0  501    0  0.00000000000E+00  0.00000000000E+00  0.91616870867E+03  0.91616870867E+03  0.00000000000E+00 0. -1.
         -1   -1    0    0    0  501 -0.00000000000E+00 -0.00000000000E+00 -0.60296677577E+03  0.60296677577E+03  0.00000000000E+00 0.  1.
         23    2    1    2    0    0  0.56573431049E+03  0.44976065735E+03 -0.71352134976E+01  0.72859399513E+03  0.91969231311E+02 0.  0.
         13    1    3    3    0    0  0.43147933668E+03  0.34819117182E+03  0.33343459569E+02  0.55544873428E+03  0.00000000000E+00 0.  1.
        -13    1    3    3    0    0  0.13425497381E+03  0.10156948553E+03 -0.40478673066E+02  0.17314526085E+03  0.00000000000E+00 0. -1.
         22    1    1    2    0    0 -0.56573431049E+03 -0.44976065735E+03  0.32033714640E+03  0.79054148931E+03  0.00000000000E+00 0.  1.
<mgrwt>
<rscale>  0 0.14864983E+04</rscale>
<asrwt>0</asrwt>
<pdfrwt beam="1">  1        1 0.14094903E+00 0.14864983E+04</pdfrwt>
<pdfrwt beam="2">  1       -1 0.92764119E-01 0.14864983E+04</pdfrwt>
<totfact> 0.19311922E+01</totfact>
</mgrwt>
</event>
<event>
 6    1  0.8968082E-007  0.2685354E+04  0.7818608E-02  0.8339773E-01
         -2   -1    0    0    0  501 -0.00000000000E+00  0.00000000000E+00  0.13569165711E+04  0.13569165711E+04  0.00000000000E+00 0.  1.
          2   -1    0    0  501    0  0.00000000000E+00 -0.00000000000E+00 -0.13285871184E+04  0.13285871184E+04  0.00000000000E+00 0. -1.
         23    2    1    2    0    0  0.42865110322E+03 -0.90660941560E+03 -0.87658068062E+03  0.13347465870E+04  0.86442819713E+02 0.  0.
         13    1    3    3    0    0  0.24971760773E+03 -0.51197456234E+03 -0.55347640413E+03  0.79423734867E+03  0.00000000000E+00 0.  1.
        -13    1    3    3    0    0  0.17893349549E+03 -0.39463485326E+03 -0.32310427649E+03  0.54050923831E+03  0.00000000000E+00 0. -1.
         22    1    1    2    0    0 -0.42865110322E+03  0.90660941560E+03  0.90491013336E+03  0.13507571026E+04  0.00000000000E+00 0.  1.
<mgrwt>
<rscale>  0 0.26853543E+04</rscale>
<asrwt>0</asrwt>
<pdfrwt beam="1">  1        2 0.20439802E+00 0.26853543E+04</pdfrwt>
<pdfrwt beam="2">  1       -2 0.20875640E+00 0.26853543E+04</pdfrwt>
<totfact> 0.16300731E+00</totfact>
</mgrwt>
</event>
<event>
 6    1  0.8968082E-007  0.2242684E+04  0.7818608E-02  0.8500869E-01
          1   -1    0    0  501    0  0.00000000000E+00  0.00000000000E+00  0.11574266693E+04  0.11574266693E+04  0.00000000000E+00 0. -1.
         -1   -1    0    0    0  501 -0.00000000000E+00 -0.00000000000E+00 -0.10863821720E+04  0.10863821720E+04  0.00000000000E+00 0.  1.
         23    2    1    2    0    0  0.22597547861E+02 -0.11026431954E+04 -0.15666959079E+03  0.11176710294E+04  0.91161964634E+02 0.  0.
         11    1    3    3    0    0  0.56464311847E+02 -0.67458143725E+03 -0.83252047799E+02  0.68204049547E+03  0.00000000000E+00 0.  1.
        -11    1    3    3    0    0 -0.33866763986E+02 -0.42806175814E+03 -0.73417542987E+02  0.43563053395E+03  0.00000000000E+00 0. -1.
         22    1    1    2    0    0 -0.22597547861E+02  0.11026431954E+04  0.22771408810E+03  0.11261378119E+04  0.00000000000E+00 0. -1.
<mgrwt>
<rscale>  0 0.22426838E+04</rscale>
<asrwt>0</asrwt>
<pdfrwt beam="1">  1        1 0.17806564E+00 0.22426838E+04</pdfrwt>
<pdfrwt beam="2">  1       -1 0.16713572E+00 0.22426838E+04</pdfrwt>
<totfact> 0.26956087E+00</totfact>
</mgrwt>
</event>
<event>
 6    1  0.8968082E-007  0.2374527E+04  0.7818608E-02  0.8449102E-01
          4   -1    0    0  501    0  0.00000000000E+00  0.00000000000E+00  0.79796941725E+03  0.79796941725E+03  0.00000000000E+00 0. -1.
         -4   -1    0    0    0  501 -0.00000000000E+00 -0.00000000000E+00 -0.17664768871E+04  0.17664768871E+04  0.00000000000E+00 0.  1.
         23    2    1    2    0    0  0.10098755781E+03 -0.75456657112E+03 -0.14665077178E+04  0.16547356668E+04  0.89084473901E+02 0.  0.
         13    1    3    3    0    0  0.52233254096E+02 -0.33028447250E+03 -0.55127405018E+03  0.64476292078E+03  0.00000000000E+00 0.  1.
        -13    1    3    3    0    0  0.48754303718E+02 -0.42428209863E+03 -0.91523366761E+03  0.10099727460E+04  0.00000000000E+00 0. -1.
         22    1    1    2    0    0 -0.10098755781E+03  0.75456657112E+03  0.49800024796E+03  0.90971063755E+03  0.00000000000E+00 0. -1.
<mgrwt>
<rscale>  0 0.23745269E+04</rscale>
<asrwt>0</asrwt>
<pdfrwt beam="1">  1        4 0.12276453E+00 0.23745269E+04</pdfrwt>
<pdfrwt beam="2">  1       -4 0.27176567E+00 0.23745269E+04</pdfrwt>
<totfact> 0.41632651E-02</totfact>
</mgrwt>
</event>
<event>
 6    1  0.8968082E-007  0.1637825E+04  0.7818608E-02  0.8797642E-01
          1   -1    0    0  501    0  0.00000000000E+00  0.00000000000E+00  0.19012427660E+04  0.19012427660E+04  0.00000000000E+00 0. -1.
         -1   -1    0    0    0  501 -0.00000000000E+00 -0.00000000000E+00 -0.35272596764E+03  0.35272596764E+03  0.00000000000E+00 0.  1.
         23    2    1    2    0    0 -0.21254860789E+03 -0.49654072477E+03 -0.65844814062E+02  0.55164884075E+03  0.90836676998E+02 0.  0.
         11    1    3    3    0    0 -0.35340018893E+02 -0.13213345522E+03 -0.51602341445E+02  0.14618812731E+03  0.00000000000E+00 0. -1.
        -11    1    3    3    0    0 -0.17720858900E+03 -0.36440726955E+03 -0.14242472618E+02  0.40546071344E+03  0.00000000000E+00 0.  1.
         22    1    1    2    0    0  0.21254860789E+03  0.49654072477E+03  0.16143616124E+04  0.17023198929E+04  0.00000000000E+00 0. -1.
<mgrwt>
<rscale>  0 0.16378250E+04</rscale>
<asrwt>0</asrwt>
<pdfrwt beam="1">  1        1 0.29249888E+00 0.16378250E+04</pdfrwt>
<pdfrwt beam="2">  1       -1 0.54265534E-01 0.16378250E+04</pdfrwt>
<totfact> 0.11409408E+01</totfact>
</mgrwt>
</event>
<event>
 6    1  0.8968082E-007  0.1185601E+04  0.7818608E-02  0.9125554E-01
          1   -1    0    0  501    0  0.00000000000E+00  0.00000000000E+00  0.57094944050E+03  0.57094944050E+03  0.00000000000E+00 0. -1.
         -1   -1    0    0    0  501 -0.00000000000E+00 -0.00000000000E+00 -0.61548783999E+03  0.61548783999E+03  0.00000000000E+00 0.  1.
         23    2    1    2    0    0 -0.94244664736E+02 -0.38295766891E+03  0.41611864707E+03  0.58001865647E+03  0.87910638757E+02 0.  0.
         13    1    3    3    0    0 -0.37034043893E+02 -0.80394699151E+02  0.50128692874E+02  0.10172371360E+03  0.00000000000E+00 0. -1.
        -13    1    3    3    0    0 -0.57210620843E+02 -0.30256296976E+03  0.36598995420E+03  0.47829494287E+03  0.00000000000E+00 0.  1.
         22    1    1    2    0    0  0.94244664736E+02  0.38295766891E+03 -0.46065704656E+03  0.60641862402E+03  0.00000000000E+00 0. -1.
<mgrwt>
<rscale>  0 0.11856010E+04</rscale>
<asrwt>0</asrwt>
<pdfrwt beam="1">  1        1 0.87838375E-01 0.11856010E+04</pdfrwt>
<pdfrwt beam="2">  1       -1 0.94690437E-01 0.11856010E+04</pdfrwt>
<totfact> 0.39330109E+01</totfact>
</mgrwt>
</event>
<event>
 6    1  0.8968082E-007  0.2241028E+04  0.7818608E-02  0.8501543E-01
          2   -1    0    0  501    0  0.00000000000E+00  0.00000000000E+00  0.14231217970E+04  0.14231217970E+04  0.00000000000E+00 0. -1.
         -2   -1    0    0    0  501 -0.00000000000E+00 -0.00000000000E+00 -0.88225193188E+03  0.88225193188E+03  0.00000000000E+00 0.  1.
         23    2    1    2    0    0 -0.73379125954E+02 -0.21510932118E+03  0.13976730084E+04  0.14189380897E+04  0.90768649989E+02 0.  0.
         13    1    3    3    0    0 -0.30298606269E+02 -0.81602203100E+02  0.30115062446E+03  0.31347826672E+03  0.00000000000E+00 0.  1.
        -13    1    3    3    0    0 -0.43080519685E+02 -0.13350711808E+03  0.10965223839E+04  0.11054598229E+04  0.00000000000E+00 0. -1.
         22    1    1    2    0    0  0.73379125954E+02  0.21510932118E+03 -0.85680314325E+03  0.88643563921E+03  0.00000000000E+00 0.  1.
<mgrwt>
<rscale>  0 0.22410283E+04</rscale>
<asrwt>0</asrwt>
<pdfrwt beam="1">  1        2 0.21894181E+00 0.22410283E+04</pdfrwt>
<pdfrwt beam="2">  1       -2 0.13573107E+00 0.22410283E+04</pdfrwt>
<totfact> 0.49763069E+00</totfact>
</mgrwt>
</event>
<event>
 6    1  0.8968082E-007  0.1356989E+04  0.7818608E-02  0.8985554E-01
         -1   -1    0    0    0  501 -0.00000000000E+00  0.00000000000E+00  0.77439930529E+03  0.77439930529E+03  0.00000000000E+00 0.  1.
          1   -1    0    0  501    0  0.00000000000E+00 -0.00000000000E+00 -0.59446688014E+03  0.59446688014E+03  0.00000000000E+00 0. -1.
         23    2    1    2    0    0  0.27044792405E+02 -0.51433753396E+03  0.53125801350E+03  0.74540472818E+03  0.90103342049E+02 0.  0.
         11    1    3    3    0    0  0.39665650058E+02 -0.31831905422E+03  0.38126378824E+03  0.49825943071E+03  0.00000000000E+00 0.  1.
        -11    1    3    3    0    0 -0.12620857653E+02 -0.19601847974E+03  0.14999422527E+03  0.24714529747E+03  0.00000000000E+00 0. -1.
         22    1    1    2    0    0 -0.27044792405E+02  0.51433753396E+03 -0.35132558836E+03  0.62346145725E+03  0.00000000000E+00 0. -1.
<mgrwt>
<rscale>  0 0.13569889E+04</rscale>
<asrwt>0</asrwt>
<pdfrwt beam="1">  1        1 0.91456443E-01 0.13569889E+04</pdfrwt>
<pdfrwt beam="2">  1       -1 0.11913835E+00 0.13569889E+04</pdfrwt>
<totfact> 0.21405109E+01</totfact>
</mgrwt>
</event>
<event>
 6    1  0.8968082E-007  0.2653441E+04  0.7818608E-02  0.8350272E-01
          2   -1    0    0  501    0  0.00000000000E+00  0.00000000000E+00  0.23250029706E+04  0.23250029706E+04  0.00000000000E+00 0. -1.
         -2   -1    0    0    0  501 -0.00000000000E+00 -0.00000000000E+00 -0.75706859024E+03  0.75706859024E+03  0.00000000000E+00 0.  1.
         23    2    1    2    0    0 -0.37976083456E+03  0.11583897333E+04  0.13874465135E+04  0.18497319421E+04  0.10205569192E+03 0.  0.
         11    1    3    3    0    0 -0.14677507844E+03  0.36796767149E+03  0.38994706970E+03  0.55587934669E+03  0.00000000000E+00 0.  1.
        -11    1    3    3    0    0 -0.23298575612E+03  0.79042206181E+03  0.99749944381E+03  0.12938525955E+04  0.00000000000E+00 0. -1.
         22    1    1    2    0    0  0.37976083456E+03 -0.11583897333E+04  0.18048786683E+03  0.12323396187E+04  0.00000000000E+00 0.  1.
<mgrwt>
<rscale>  0 0.26534406E+04</rscale>
<asrwt>0</asrwt>
<pdfrwt beam="1">  1        2 0.35769276E+00 0.26534406E+04</pdfrwt>
<pdfrwt beam="2">  1       -2 0.11647209E+00 0.26534406E+04</pdfrwt>
<totfact> 0.22082658E+00</totfact>
</mgrwt>
</event>
<event>
 6    1  0.8968082E-007  0.1312078E+04  0.7818608E-02  0.9020042E-01
          1   -1    0    0  501    0  0.00000000000E+00  0.00000000000E+00  0.62151375627E+03  0.62151375627E+03  0.00000000000E+00 0. -1.
         -1   -1    0    0    0  501 -0.00000000000E+00 -0.00000000000E+00 -0.69248206334E+03  0.69248206334E+03  0.00000000000E+00 0.  1.
         23    2    1    2    0    0  0.22175565149E+03  0.43710540585E+03 -0.46691231423E+03  0.68390982422E+03  0.97410644653E+02 0.  0.
         13    1    3    3    0    0  0.26889100622E+02  0.14698313637E+03 -0.12228513785E+03  0.19308216139E+03  0.00000000000E+00 0. -1.
        -13    1    3    3    0    0  0.19486655087E+03  0.29012226948E+03 -0.34462717637E+03  0.49082766282E+03  0.00000000000E+00 0.  1.
         22    1    1    2    0    0 -0.22175565149E+03 -0.43710540585E+03  0.39594400716E+03  0.63008599540E+03  0.00000000000E+00 0. -1.
<mgrwt>
<rscale>  0 0.13120779E+04</rscale>
<asrwt>0</asrwt>
<pdfrwt beam="1">  1        1 0.95617501E-01 0.13120779E+04</pdfrwt>
<pdfrwt beam="2">  1       -1 0.10653570E+00 0.13120779E+04</pdfrwt>
<totfact> 0.26296559E+01</totfact>
</mgrwt>
</event>
<event>
 6    1  0.8968082E-007  0.1736717E+04  0.7818608E-02  0.8740696E-01
          2   -1    0    0  501    0  0.00000000000E+00  0.00000000000E+00  0.18572926751E+04  0.18572926751E+04  0.00000000000E+00 0. -1.
         -2   -1    0    0    0  501 -0.00000000000E+00 -0.00000000000E+00 -0.40599211252E+03  0.40599211252E+03  0.00000000000E+00 0.  1.
         23    2    1    2    0    0  0.27067980100E+01  0.42063488342E+03  0.17140936339E+04  0.17672996767E+04  0.91050150053E+02 0.  0.
         11    1    3    3    0    0 -0.82888234263E+01  0.34885189103E+02  0.27632827248E+03  0.27864492671E+03  0.00000000000E+00 0. -1.
        -11    1    3    3    0    0  0.10995621436E+02  0.38574969432E+03  0.14377653614E+04  0.14886547500E+04  0.00000000000E+00 0.  1.
         22    1    1    2    0    0 -0.27067980100E+01 -0.42063488342E+03 -0.26279307129E+03  0.49598511089E+03  0.00000000000E+00 0.  1.
<mgrwt>
<rscale>  0 0.17367166E+04</rscale>
<asrwt>0</asrwt>
<pdfrwt beam="1">  1        2 0.28573733E+00 0.17367166E+04</pdfrwt>
<pdfrwt beam="2">  1       -2 0.62460326E-01 0.17367166E+04</pdfrwt>
<totfact> 0.18091888E+01</totfact>
</mgrwt>
</event>
<event>
 6    1  0.8968082E-007  0.5190901E+03  0.7818608E-02  0.1008913E+00
         -2   -1    0    0    0  501 -0.00000000000E+00  0.00000000000E+00  0.14024059613E+03  0.14024059613E+03  0.00000000000E+00 0.  1.
          2   -1    0    0  501    0  0.00000000000E+00 -0.00000000000E+00 -0.48034325322E+03  0.48034325322E+03  0.00000000000E+00 0. -1.
         23    2    1    2    0    0 -0.70283923940E+02 -0.23596892349E+03 -0.23711614482E+03  0.35369925907E+03  0.90873191427E+02 0.  0.
         11    1    3    3    0    0 -0.86101605038E+02 -0.13555288922E+03 -0.13830896417E+03  0.21193735333E+03  0.00000000000E+00 0.  1.
        -11    1    3    3    0    0  0.15817681097E+02 -0.10041603426E+03 -0.98807180648E+02  0.14176190574E+03  0.00000000000E+00 0. -1.
         22    1    1    2    0    0  0.70283923940E+02  0.23596892349E+03 -0.10298651228E+03  0.26688459028E+03  0.00000000000E+00 0.  1.
<mgrwt>
<rscale>  0 0.51909007E+03</rscale>
<asrwt>0</asrwt>
<pdfrwt beam="1">  1        2 0.73898962E-01 0.51909007E+03</pdfrwt>
<pdfrwt beam="2">  1       -2 0.21575476E-01 0.51909007E+03</pdfrwt>
<totfact> 0.12053544E+03</totfact>
</mgrwt>
</event>
<event>
 6    1  0.8968082E-007  0.1018431E+04  0.7818608E-02  0.9288558E-01
         -1   -1    0    0    0  501 -0.00000000000E+00  0.00000000000E+00  0.12774550777E+03  0.12774550777E+03  0.00000000000E+00 0.  1.
          1   -1    0    0  501    0  0.00000000000E+00 -0.00000000000E+00 -0.20298211411E+04  0.20298211411E+04  0.00000000000E+00 0. -1.
         23    2    1    2    0    0  0.46012138732E+03  0.11049843064E+03 -0.58168246599E+03  0.75494064363E+03  0.87517369181E+02 0.  0.
         13    1    3    3    0    0  0.34604591617E+03  0.93516604323E+02 -0.37846301469E+03  0.52127476907E+03  0.00000000000E+00 0.  1.
        -13    1    3    3    0    0  0.11407547115E+03  0.16981826322E+02 -0.20321945130E+03  0.23366587455E+03  0.00000000000E+00 0. -1.
         22    1    1    2    0    0 -0.46012138732E+03 -0.11049843064E+03 -0.13203931674E+04  0.14026260053E+04  0.00000000000E+00 0.  1.
<mgrwt>
<rscale>  0 0.10184312E+04</rscale>
<asrwt>0</asrwt>
<pdfrwt beam="1">  1        1 0.31228016E+00 0.10184312E+04</pdfrwt>
<pdfrwt beam="2">  1       -1 0.19653156E-01 0.10184312E+04</pdfrwt>
<totfact> 0.60284640E+01</totfact>
</mgrwt>
</event>
<event>
 6    1  0.8968082E-007  0.4928286E+04  0.7818608E-02  0.7839666E-01
         -2   -1    0    0    0  501 -0.00000000000E+00  0.00000000000E+00  0.24487730638E+04  0.24487730638E+04  0.00000000000E+00 0.  1.
          2   -1    0    0  501    0  0.00000000000E+00 -0.00000000000E+00 -0.24796095471E+04  0.24796095471E+04  0.00000000000E+00 0. -1.
         23    2    1    2    0    0  0.17670133898E+04  0.13787464471E+04  0.10067739929E+04  0.24585822980E+04  0.88062239349E+02 0.  0.
         11    1    3    3    0    0  0.76072481632E+03  0.63623543504E+03  0.41466915840E+03  0.10749178042E+04  0.00000000000E+00 0. -1.
        -11    1    3    3    0    0  0.10062885735E+04  0.74251101206E+03  0.59210483454E+03  0.13836644937E+04  0.00000000000E+00 0.  1.
         22    1    1    2    0    0 -0.17670133898E+04 -0.13787464471E+04 -0.10376104763E+04  0.24698003129E+04  0.00000000000E+00 0. -1.
<mgrwt>
<rscale>  0 0.49282861E+04</rscale>
<asrwt>0</asrwt>
<pdfrwt beam="1">  1        2 0.38147839E+00 0.49282861E+04</pdfrwt>
<pdfrwt beam="2">  1       -2 0.37673432E+00 0.49282861E+04</pdfrwt>
<totfact> 0.27533157E-02</totfact>
</mgrwt>
</event>
<event>
 6    1  0.8968082E-007  0.2500300E+04  0.7818608E-02  0.8402879E-01
          2   -1    0    0  501    0  0.00000000000E+00  0.00000000000E+00  0.13020307685E+04  0.13020307685E+04  0.00000000000E+00 0. -1.
         -2   -1    0    0    0  501 -0.00000000000E+00 -0.00000000000E+00 -0.12003365011E+04  0.12003365011E+04  0.00000000000E+00 0.  1.
         23    2    1    2    0    0  0.94554539196E+03  0.18356306457E+03  0.84596182729E+03  0.12851221474E+04  0.90199964429E+02 0.  0.
         13    1    3    3    0    0  0.75596147035E+03  0.17332762456E+03  0.64588547867E+03  0.10093008777E+04  0.00000000000E+00 0. -1.
        -13    1    3    3    0    0  0.18958392160E+03  0.10235440010E+02  0.20007634862E+03  0.27582126974E+03  0.00000000000E+00 0.  1.
         22    1    1    2    0    0 -0.94554539196E+03 -0.18356306457E+03 -0.74426755987E+03  0.12172451222E+04  0.00000000000E+00 0.  1.
<mgrwt>
<rscale>  0 0.25003000E+04</rscale>
<asrwt>0</asrwt>
<pdfrwt beam="1">  1        2 0.20031243E+00 0.25003000E+04</pdfrwt>
<pdfrwt beam="2">  1       -2 0.18466715E+00 0.25003000E+04</pdfrwt>
<totfact> 0.24766437E+00</totfact>
</mgrwt>
</event>
<event>
 6    1  0.8968082E-007  0.1937544E+04  0.7818608E-02  0.8636391E-01
         -2   -1    0    0    0  501 -0.00000000000E+00  0.00000000000E+00  0.67603312085E+03  0.67603312085E+03  0.00000000000E+00 0.  1.
          2   -1    0    0  501    0  0.00000000000E+00 -0.00000000000E+00 -0.13882743917E+04  0.13882743917E+04  0.00000000000E+00 0. -1.
         23    2    1    2    0    0  0.95697206638E+03 -0.11307346797E+03 -0.26386443108E+03  0.10014703023E+04  0.68827199902E+02 0.  0.
         11    1    3    3    0    0  0.78561008061E+03 -0.86436744413E+02 -0.24263152044E+03  0.82675544404E+03  0.00000000000E+00 0. -1.
        -11    1    3    3    0    0  0.17136198577E+03 -0.26636723561E+02 -0.21232910647E+02  0.17471485828E+03  0.00000000000E+00 0.  1.
         22    1    1    2    0    0 -0.95697206638E+03  0.11307346797E+03 -0.44837683975E+03  0.10628372102E+04  0.00000000000E+00 0. -1.
<mgrwt>
<rscale>  0 0.19375443E+04</rscale>
<asrwt>0</asrwt>
<pdfrwt beam="1">  1        2 0.21358067E+00 0.19375443E+04</pdfrwt>
<pdfrwt beam="2">  1       -2 0.10400510E+00 0.19375443E+04</pdfrwt>
<totfact> 0.10322173E+01</totfact>
</mgrwt>
</event>
<event>
 6    1  0.8968082E-007  0.1743192E+04  0.7818608E-02  0.8737107E-01
         -1   -1    0    0    0  501 -0.00000000000E+00  0.00000000000E+00  0.56882971216E+03  0.56882971216E+03  0.00000000000E+00 0.  1.
          1   -1    0    0  501    0  0.00000000000E+00 -0.00000000000E+00 -0.13355129208E+04  0.13355129208E+04  0.00000000000E+00 0. -1.
         23    2    1    2    0    0 -0.81461846764E+03  0.10549134828E+03 -0.69494939773E+03  0.10797958411E+04  0.90954497990E+02 0.  0.
         11    1    3    3    0    0 -0.53179159126E+03  0.10944516378E+03 -0.43642918518E+03  0.69659957945E+03  0.00000000000E+00 0.  1.
        -11    1    3    3    0    0 -0.28282687638E+03 -0.39538155021E+01 -0.25852021255E+03  0.38319626167E+03  0.00000000000E+00 0. -1.
         22    1    1    2    0    0  0.81461846764E+03 -0.10549134828E+03 -0.71733810948E+02  0.82454679189E+03  0.00000000000E+00 0. -1.
<mgrwt>
<rscale>  0 0.17431918E+04</rscale>
<asrwt>0</asrwt>
<pdfrwt beam="1">  1        1 0.20546352E+00 0.17431918E+04</pdfrwt>
<pdfrwt beam="2">  1       -1 0.87512265E-01 0.17431918E+04</pdfrwt>
<totfact> 0.10395435E+01</totfact>
</mgrwt>
</event>
<event>
 6    1  0.8968082E-007  0.1302038E+04  0.7818608E-02  0.9027950E-01
         -2   -1    0    0    0  501 -0.00000000000E+00  0.00000000000E+00  0.14497830553E+03  0.14497830553E+03  0.00000000000E+00 0.  1.
          2   -1    0    0  501    0  0.00000000000E+00 -0.00000000000E+00 -0.29233742793E+04  0.29233742793E+04  0.00000000000E+00 0. -1.
         23    2    1    2    0    0  0.90353875108E+02 -0.51085977001E+03 -0.48263722681E+03  0.71470652996E+03  0.93408799932E+02 0.  0.
         13    1    3    3    0    0  0.99851524051E+02 -0.30249811519E+03 -0.29115542846E+03  0.43156334421E+03  0.00000000000E+00 0. -1.
        -13    1    3    3    0    0 -0.94976489435E+01 -0.20836165482E+03 -0.19148179835E+03  0.28314318575E+03  0.00000000000E+00 0.  1.
         22    1    1    2    0    0 -0.90353875108E+02  0.51085977001E+03 -0.22957587470E+04  0.23536460549E+04  0.00000000000E+00 0.  1.
<mgrwt>
<rscale>  0 0.13020382E+04</rscale>
<asrwt>0</asrwt>
<pdfrwt beam="1">  1        2 0.44974986E+00 0.13020382E+04</pdfrwt>
<pdfrwt beam="2">  1       -2 0.22304356E-01 0.13020382E+04</pdfrwt>
<totfact> 0.33899379E+01</totfact>
</mgrwt>
</event>
<event>
 6    1  0.8968082E-007  0.7360184E+03  0.7818608E-02  0.9657544E-01
          2   -1    0    0  501    0  0.00000000000E+00  0.00000000000E+00  0.25308826206E+03  0.25308826206E+03  0.00000000000E+00 0. -1.
         -2   -1    0    0    0  501 -0.00000000000E+00 -0.00000000000E+00 -0.53511284243E+03  0.53511284243E+03  0.00000000000E+00 0.  1.
         23    2    1    2    0    0  0.18706867220E+03 -0.28741661537E+03 -0.16868842334E+02  0.35471458298E+03  0.89077935720E+02 0.  0.
         11    1    3    3    0    0  0.23310709592E+02 -0.98198818149E+02 -0.26296134455E+02  0.10429709370E+03  0.00000000000E+00 0. -1.
        -11    1    3    3    0    0  0.16375796260E+03 -0.18921779722E+03  0.94272921207E+01  0.25041748928E+03  0.00000000000E+00 0.  1.
         22    1    1    2    0    0 -0.18706867220E+03  0.28741661537E+03 -0.26515573804E+03  0.43348652150E+03  0.00000000000E+00 0. -1.
<mgrwt>
<rscale>  0 0.73601842E+03</rscale>
<asrwt>0</asrwt>
<pdfrwt beam="1">  1        2 0.38936656E-01 0.73601842E+03</pdfrwt>
<pdfrwt beam="2">  1       -2 0.82325053E-01 0.73601842E+03</pdfrwt>
<totfact> 0.17357735E+02</totfact>
</mgrwt>
</event>
<event>
 6    1  0.8968082E-007  0.1247426E+04  0.7818608E-02  0.9072328E-01
         -2   -1    0    0    0  501 -0.00000000000E+00  0.00000000000E+00  0.27722111336E+03  0.27722111336E+03  0.00000000000E+00 0.  1.
          2   -1    0    0  501    0  0.00000000000E+00 -0.00000000000E+00 -0.14032768305E+04  0.14032768305E+04  0.00000000000E+00 0. -1.
         23    2    1    2    0    0 -0.22641368797E+03  0.54521641022E+02  0.20892619218E+03  0.32535497515E+03  0.89274512821E+02 0.  0.
         13    1    3    3    0    0 -0.60931617904E+02  0.25611118146E+02  0.11565757871E+03  0.13321136193E+03  0.00000000000E+00 0. -1.
        -13    1    3    3    0    0 -0.16548207006E+03  0.28910522875E+02  0.93268613468E+02  0.19214361323E+03  0.00000000000E+00 0.  1.
         22    1    1    2    0    0  0.22641368797E+03 -0.54521641022E+02 -0.13349819093E+04  0.13551429687E+04  0.00000000000E+00 0. -1.
<mgrwt>
<rscale>  0 0.12474261E+04</rscale>
<asrwt>0</asrwt>
<pdfrwt beam="1">  1        2 0.21588875E+00 0.12474261E+04</pdfrwt>
<pdfrwt beam="2">  1       -2 0.42649401E-01 0.12474261E+04</pdfrwt>
<totfact> 0.73829081E+01</totfact>
</mgrwt>
</event>
<event>
 6    1  0.8968082E-007  0.9375061E+03  0.7818608E-02  0.9379874E-01
          1   -1    0    0  501    0  0.00000000000E+00  0.00000000000E+00  0.52543211782E+03  0.52543211782E+03  0.00000000000E+00 0. -1.
         -1   -1    0    0    0  501 -0.00000000000E+00 -0.00000000000E+00 -0.41818803078E+03  0.41818803078E+03  0.00000000000E+00 0.  1.
         23    2    1    2    0    0  0.33819601331E+02 -0.59172779727E+02  0.51648623242E+03  0.52874147133E+03  0.90356692776E+02 0.  0.
         11    1    3    3    0    0  0.47835221297E+02 -0.75766934867E+02  0.37245935301E+03  0.38308589959E+03  0.00000000000E+00 0.  1.
        -11    1    3    3    0    0 -0.14015619966E+02  0.16594155140E+02  0.14402687941E+03  0.14565557174E+03  0.00000000000E+00 0. -1.
         22    1    1    2    0    0 -0.33819601331E+02  0.59172779727E+02 -0.40924214538E+03  0.41487867727E+03  0.00000000000E+00 0.  1.
<mgrwt>
<rscale>  0 0.93750610E+03</rscale>
<asrwt>0</asrwt>
<pdfrwt beam="1">  1        1 0.80835711E-01 0.93750610E+03</pdfrwt>
<pdfrwt beam="2">  1       -1 0.64336620E-01 0.93750610E+03</pdfrwt>
<totfact> 0.10198766E+02</totfact>
</mgrwt>
</event>
<event>
 6    1  0.8968082E-007  0.2760074E+04  0.7818608E-02  0.8315772E-01
         -2   -1    0    0    0  501 -0.00000000000E+00  0.00000000000E+00  0.58280158954E+03  0.58280158954E+03  0.00000000000E+00 0.  1.
          2   -1    0    0  501    0  0.00000000000E+00 -0.00000000000E+00 -0.32678389033E+04  0.32678389033E+04  0.00000000000E+00 0. -1.
         23    2    1    2    0    0  0.52324154075E+03  0.68451735673E+03  0.15839233208E+03  0.87954004477E+03  0.78465520208E+02 0.  0.
         13    1    3    3    0    0  0.24529551728E+03  0.35942215140E+03  0.47857660551E+02  0.43777223461E+03  0.00000000000E+00 0. -1.
        -13    1    3    3    0    0  0.27794602347E+03  0.32509520533E+03  0.11053467153E+03  0.44176781017E+03  0.00000000000E+00 0.  1.
         22    1    1    2    0    0 -0.52324154075E+03 -0.68451735673E+03 -0.28434296459E+04  0.29711004481E+04  0.00000000000E+00 0. -1.
<mgrwt>
<rscale>  0 0.27600737E+04</rscale>
<asrwt>0</asrwt>
<pdfrwt beam="1">  1        2 0.50274445E+00 0.27600737E+04</pdfrwt>
<pdfrwt beam="2">  1       -2 0.89661783E-01 0.27600737E+04</pdfrwt>
<totfact> 0.10886819E+00</totfact>
</mgrwt>
</event>
<event>
 6    1  0.8968082E-007  0.3549792E+04  0.7818608E-02  0.8102090E-01
         -2   -1    0    0    0  501 -0.00000000000E+00  0.00000000000E+00  0.16326501339E+04  0.16326501339E+04  0.00000000000E+00 0.  1.
          2   -1    0    0  501    0  0.00000000000E+00 -0.00000000000E+00 -0.19295355241E+04  0.19295355241E+04  0.00000000000E+00 0. -1.
         23    2    1    2    0    0 -0.45083889745E+03 -0.21800932712E+03 -0.18561968062E+04  0.19244323584E+04  0.84791157725E+02 0.  0.
         11    1    3    3    0    0 -0.39503863872E+03 -0.20035521967E+03 -0.15217808254E+04  0.15849336329E+04  0.00000000000E+00 0. -1.
        -11    1    3    3    0    0 -0.55800258730E+02 -0.17654107453E+02 -0.33441598079E+03  0.33949872546E+03  0.00000000000E+00 0.  1.
         22    1    1    2    0    0  0.45083889745E+03  0.21800932712E+03  0.15593114160E+04  0.16377532996E+04  0.00000000000E+00 0.  1.
<mgrwt>
<rscale>  0 0.35497923E+04</rscale>
<asrwt>0</asrwt>
<pdfrwt beam="1">  1        2 0.29685162E+00 0.35497923E+04</pdfrwt>
<pdfrwt beam="2">  1       -2 0.25117694E+00 0.35497923E+04</pdfrwt>
<totfact> 0.37820524E-01</totfact>
</mgrwt>
</event>
<event>
 6    1  0.8968082E-007  0.2591955E+04  0.7818608E-02  0.8370939E-01
          2   -1    0    0  501    0  0.00000000000E+00  0.00000000000E+00  0.86115441561E+03  0.86115441561E+03  0.00000000000E+00 0. -1.
         -2   -1    0    0    0  501 -0.00000000000E+00 -0.00000000000E+00 -0.19503553704E+04  0.19503553704E+04  0.00000000000E+00 0.  1.
         23    2    1    2    0    0 -0.95039252727E+03 -0.87433594401E+03 -0.45308490313E+03  0.13719428616E+04  0.96083229859E+02 0.  0.
         11    1    3    3    0    0 -0.36695173759E+03 -0.34395336798E+03 -0.12733119714E+03  0.51881666398E+03  0.00000000000E+00 0. -1.
        -11    1    3    3    0    0 -0.58344078968E+03 -0.53038257603E+03 -0.32575370599E+03  0.85312619757E+03  0.00000000000E+00 0.  1.
         22    1    1    2    0    0  0.95039252727E+03  0.87433594401E+03 -0.63611605169E+03  0.14395669245E+04  0.00000000000E+00 0.  1.
<mgrwt>
<rscale>  0 0.25919546E+04</rscale>
<asrwt>0</asrwt>
<pdfrwt beam="1">  1        2 0.13248530E+00 0.25919546E+04</pdfrwt>
<pdfrwt beam="2">  1       -2 0.30005467E+00 0.25919546E+04</pdfrwt>
<totfact> 0.87649692E-01</totfact>
</mgrwt>
</event>
<event>
 6    1  0.8968082E-007  0.2544003E+04  0.7818608E-02  0.8387475E-01
          2   -1    0    0  501    0  0.00000000000E+00  0.00000000000E+00  0.23002047969E+04  0.23002047969E+04  0.00000000000E+00 0. -1.
         -2   -1    0    0    0  501 -0.00000000000E+00 -0.00000000000E+00 -0.70341041260E+03  0.70341041260E+03  0.00000000000E+00 0.  1.
         23    2    1    2    0    0 -0.12490375491E+04  0.22769589319E+03  0.74254535778E+03  0.14733598000E+04  0.86459661335E+02 0.  0.
         11    1    3    3    0    0 -0.41104326698E+03  0.74296475598E+02  0.29192394942E+03  0.50960389113E+03  0.00000000000E+00 0. -1.
        -11    1    3    3    0    0 -0.83799428215E+03  0.15339941759E+03  0.45062140836E+03  0.96375590888E+03  0.00000000000E+00 0.  1.
         22    1    1    2    0    0  0.12490375491E+04 -0.22769589319E+03  0.85424902648E+03  0.15302554094E+04  0.00000000000E+00 0.  1.
<mgrwt>
<rscale>  0 0.25440031E+04</rscale>
<asrwt>0</asrwt>
<pdfrwt beam="1">  1        2 0.35387766E+00 0.25440031E+04</pdfrwt>
<pdfrwt beam="2">  1       -2 0.10821699E+00 0.25440031E+04</pdfrwt>
<totfact> 0.27526213E+00</totfact>
</mgrwt>
</event>
<event>
 6    1  0.8968082E-007  0.1897116E+04  0.7818608E-02  0.8656293E-01
          2   -1    0    0  501    0  0.00000000000E+00  0.00000000000E+00  0.66571844395E+03  0.66571844395E+03  0.00000000000E+00 0. -1.
         -2   -1    0    0    0  501 -0.00000000000E+00 -0.00000000000E+00 -0.13515659737E+04  0.13515659737E+04  0.00000000000E+00 0.  1.
         23    2    1    2    0    0  0.20839862185E+03 -0.83838679520E+03  0.67506583127E+02  0.87104499093E+03  0.88542834305E+02 0.  0.
         11    1    3    3    0    0  0.82411720882E+02 -0.46494636211E+03  0.65497954401E+01  0.47223904031E+03  0.00000000000E+00 0. -1.
        -11    1    3    3    0    0  0.12598690096E+03 -0.37344043310E+03  0.60956787687E+02  0.39880595062E+03  0.00000000000E+00 0.  1.
         22    1    1    2    0    0 -0.20839862185E+03  0.83838679520E+03 -0.75335411285E+03  0.11462394267E+04  0.00000000000E+00 0.  1.
<mgrwt>
<rscale>  0 0.18971161E+04</rscale>
<asrwt>0</asrwt>
<pdfrwt beam="1">  1        2 0.10241822E+00 0.18971161E+04</pdfrwt>
<pdfrwt beam="2">  1       -2 0.20793323E+00 0.18971161E+04</pdfrwt>
<totfact> 0.48244364E+00</totfact>
</mgrwt>
</event>
<event>
 6    1  0.8968082E-007  0.8604289E+03  0.7818608E-02  0.9476446E-01
         -1   -1    0    0    0  501 -0.00000000000E+00  0.00000000000E+00  0.79464124628E+02  0.79464124628E+02  0.00000000000E+00 0.  1.
          1   -1    0    0  501    0  0.00000000000E+00 -0.00000000000E+00 -0.23291578708E+04  0.23291578708E+04  0.00000000000E+00 0. -1.
         23    2    1    2    0    0  0.93340793908E+02  0.23432834879E+03 -0.20966100356E+04  0.21135679304E+04  0.88167319912E+02 0.  0.
         11    1    3    3    0    0  0.38256070561E+02  0.16249110116E+02 -0.38670693657E+03  0.38893420434E+03  0.00000000000E+00 0.  1.
        -11    1    3    3    0    0  0.55084723347E+02  0.21807923867E+03 -0.17099030990E+04  0.17246337260E+04  0.00000000000E+00 0. -1.
         22    1    1    2    0    0 -0.93340793908E+02 -0.23432834879E+03 -0.15308371065E+03  0.29505406508E+03  0.00000000000E+00 0.  1.
<mgrwt>
<rscale>  0 0.86042894E+03</rscale>
<asrwt>0</asrwt>
<pdfrwt beam="1">  1        1 0.35833202E+00 0.86042894E+03</pdfrwt>
<pdfrwt beam="2">  1       -1 0.12225249E-01 0.86042894E+03</pdfrwt>
<totfact> 0.83562955E+01</totfact>
</mgrwt>
</event>
<event>
 6    1  0.8968082E-007  0.2498004E+04  0.7818608E-02  0.8403697E-01
         -2   -1    0    0    0  501 -0.00000000000E+00  0.00000000000E+00  0.12613650251E+04  0.12613650251E+04  0.00000000000E+00 0.  1.
          2   -1    0    0  501    0  0.00000000000E+00 -0.00000000000E+00 -0.12367604032E+04  0.12367604032E+04  0.00000000000E+00 0. -1.
         23    2    1    2    0    0  0.11019717037E+04 -0.51664496492E+03  0.28529430846E+03  0.12534476515E+04  0.92057139771E+02 0.  0.
         11    1    3    3    0    0  0.52718936702E+03 -0.19797694118E+03  0.14301770320E+03  0.58101425229E+03  0.00000000000E+00 0. -1.
        -11    1    3    3    0    0  0.57478233668E+03 -0.31866802375E+03  0.14227660526E+03  0.67243339917E+03  0.00000000000E+00 0.  1.
         22    1    1    2    0    0 -0.11019717037E+04  0.51664496492E+03 -0.26068968654E+03  0.12446777769E+04  0.00000000000E+00 0. -1.
<mgrwt>
<rscale>  0 0.24980043E+04</rscale>
<asrwt>0</asrwt>
<pdfrwt beam="1">  1        2 0.19027083E+00 0.24980043E+04</pdfrwt>
<pdfrwt beam="2">  1       -2 0.19405616E+00 0.24980043E+04</pdfrwt>
<totfact> 0.23392454E+00</totfact>
</mgrwt>
</event>
<event>
 6    1  0.8968082E-007  0.1966707E+04  0.7818608E-02  0.8622346E-01
          1   -1    0    0  501    0  0.00000000000E+00  0.00000000000E+00  0.32673107194E+04  0.32673107194E+04  0.00000000000E+00 0. -1.
         -1   -1    0    0    0  501 -0.00000000000E+00 -0.00000000000E+00 -0.29595724273E+03  0.29595724273E+03  0.00000000000E+00 0.  1.
         23    2    1    2    0    0  0.40539854172E+03 -0.87478112910E+03  0.18192636373E+04  0.20609693901E+04  0.91020017503E+02 0.  0.
         13    1    3    3    0    0  0.30037041623E+03 -0.71058627732E+03  0.15040428547E+04  0.16903550376E+04  0.00000000000E+00 0. -1.
        -13    1    3    3    0    0  0.10502812549E+03 -0.16419485178E+03  0.31522078256E+03  0.37061435246E+03  0.00000000000E+00 0.  1.
         22    1    1    2    0    0 -0.40539854172E+03  0.87478112910E+03  0.11520898394E+04  0.15022985720E+04  0.00000000000E+00 0.  1.
<mgrwt>
<rscale>  0 0.19667072E+04</rscale>
<asrwt>0</asrwt>
<pdfrwt beam="1">  1        1 0.50266316E+00 0.19667072E+04</pdfrwt>
<pdfrwt beam="2">  1       -1 0.45531886E-01 0.19667072E+04</pdfrwt>
<totfact> 0.16911044E+00</totfact>
</mgrwt>
</event>
<event>
 6    1  0.8968082E-007  0.2774532E+04  0.7818608E-02  0.8311219E-01
          2   -1    0    0  501    0  0.00000000000E+00  0.00000000000E+00  0.27176563847E+04  0.27176563847E+04  0.00000000000E+00 0. -1.
         -2   -1    0    0    0  501 -0.00000000000E+00 -0.00000000000E+00 -0.70814966661E+03  0.70814966661E+03  0.00000000000E+00 0.  1.
         23    2    1    2    0    0 -0.51321231514E+03  0.43641222026E+03 -0.48941418171E+03  0.83767000971E+03  0.91226627211E+02 0.  0.
         11    1    3    3    0    0 -0.23810930926E+03  0.22505776134E+03 -0.18579162777E+03  0.37665045871E+03  0.00000000000E+00 0. -1.
        -11    1    3    3    0    0 -0.27510300588E+03  0.21135445892E+03 -0.30362255393E+03  0.46101955100E+03  0.00000000000E+00 0.  1.
         22    1    1    2    0    0  0.51321231514E+03 -0.43641222026E+03  0.24989208997E+04  0.25881360416E+04  0.00000000000E+00 0. -1.
<mgrwt>
<rscale>  0 0.27745324E+04</rscale>
<asrwt>0</asrwt>
<pdfrwt beam="1">  1        2 0.41810098E+00 0.27745324E+04</pdfrwt>
<pdfrwt beam="2">  1       -2 0.10894610E+00 0.27745324E+04</pdfrwt>
<totfact> 0.15193724E+00</totfact>
</mgrwt>
</event>
<event>
 6    1  0.8968082E-007  0.2221374E+04  0.7818608E-02  0.8509584E-01
          1   -1    0    0  501    0  0.00000000000E+00  0.00000000000E+00  0.61375721653E+03  0.61375721653E+03  0.00000000000E+00 0. -1.
         -1   -1    0    0    0  501 -0.00000000000E+00 -0.00000000000E+00 -0.20099570579E+04  0.20099570579E+04  0.00000000000E+00 0.  1.
         23    2    1    2    0    0  0.17209360664E+03 -0.71887543584E+03 -0.16754156247E+04  0.18335500159E+04  0.92141433153E+02 0.  0.
         11    1    3    3    0    0  0.72643399243E+02 -0.32191998378E+03 -0.86156844213E+03  0.92261027519E+03  0.00000000000E+00 0. -1.
        -11    1    3    3    0    0  0.99450207399E+02 -0.39695545206E+03 -0.81384718257E+03  0.91093974073E+03  0.00000000000E+00 0.  1.
         22    1    1    2    0    0 -0.17209360664E+03  0.71887543584E+03  0.27921578335E+03  0.79016425847E+03  0.00000000000E+00 0. -1.
<mgrwt>
<rscale>  0 0.22213740E+04</rscale>
<asrwt>0</asrwt>
<pdfrwt beam="1">  1        1 0.94424187E-01 0.22213740E+04</pdfrwt>
<pdfrwt beam="2">  1       -1 0.30922416E+00 0.22213740E+04</pdfrwt>
<totfact> 0.86796312E-01</totfact>
</mgrwt>
</event>
<event>
 6    1  0.8968082E-007  0.1675692E+04  0.7818608E-02  0.8775351E-01
         -1   -1    0    0    0  501 -0.00000000000E+00  0.00000000000E+00  0.36085366092E+03  0.36085366092E+03  0.00000000000E+00 0.  1.
          1   -1    0    0  501    0  0.00000000000E+00 -0.00000000000E+00 -0.19453485375E+04  0.19453485375E+04  0.00000000000E+00 0. -1.
         23    2    1    2    0    0 -0.83162087183E+03 -0.73647389800E+02 -0.81901211644E+03  0.11735146561E+04  0.96636373446E+02 0.  0.
         11    1    3    3    0    0 -0.12519872393E+02 -0.14567037373E+02 -0.19701406719E+02  0.27515290463E+02  0.00000000000E+00 0.  1.
        -11    1    3    3    0    0 -0.81910099944E+03 -0.59080352427E+02 -0.79931070973E+03  0.11459993656E+04  0.00000000000E+00 0. -1.
         22    1    1    2    0    0  0.83162087183E+03  0.73647389800E+02 -0.76548276010E+03  0.11326875423E+04  0.00000000000E+00 0. -1.
<mgrwt>
<rscale>  0 0.16756923E+04</rscale>
<asrwt>0</asrwt>
<pdfrwt beam="1">  1        1 0.29928440E+00 0.16756923E+04</pdfrwt>
<pdfrwt beam="2">  1       -1 0.55515947E-01 0.16756923E+04</pdfrwt>
<totfact> 0.10156568E+01</totfact>
</mgrwt>
</event>
<event>
 6    1  0.8968082E-007  0.2153479E+04  0.7818608E-02  0.8538044E-01
          2   -1    0    0  501    0  0.00000000000E+00  0.00000000000E+00  0.24528200731E+04  0.24528200731E+04  0.00000000000E+00 0. -1.
         -2   -1    0    0    0  501 -0.00000000000E+00 -0.00000000000E+00 -0.47266753750E+03  0.47266753750E+03  0.00000000000E+00 0.  1.
         23    2    1    2    0    0 -0.80899915259E+03 -0.32606451692E+03  0.13882675506E+03  0.88801900271E+03  0.92234392542E+02 0.  0.
         13    1    3    3    0    0 -0.38545169307E+03 -0.14769002142E+03  0.19664004837E+02  0.41324571770E+03  0.00000000000E+00 0.  1.
        -13    1    3    3    0    0 -0.42354745953E+03 -0.17837449550E+03  0.11916275023E+03  0.47477328501E+03  0.00000000000E+00 0. -1.
         22    1    1    2    0    0  0.80899915259E+03  0.32606451692E+03  0.18413257806E+04  0.20374686079E+04  0.00000000000E+00 0. -1.
<mgrwt>
<rscale>  0 0.21534794E+04</rscale>
<asrwt>0</asrwt>
<pdfrwt beam="1">  1        2 0.37735693E+00 0.21534794E+04</pdfrwt>
<pdfrwt beam="2">  1       -2 0.72718084E-01 0.21534794E+04</pdfrwt>
<totfact> 0.58159685E+00</totfact>
</mgrwt>
</event>
<event>
 6    1  0.8968082E-007  0.2952885E+04  0.7818608E-02  0.8257314E-01
         -2   -1    0    0    0  501 -0.00000000000E+00  0.00000000000E+00  0.90844955979E+03  0.90844955979E+03  0.00000000000E+00 0.  1.
          2   -1    0    0  501    0  0.00000000000E+00 -0.00000000000E+00 -0.23995628027E+04  0.23995628027E+04  0.00000000000E+00 0. -1.
         23    2    1    2    0    0  0.53362025741E+03  0.13648643398E+04 -0.93389377440E+03  0.17401798519E+04  0.91995052515E+02 0.  0.
         13    1    3    3    0    0  0.89647698855E+02  0.24329426288E+03 -0.12516582828E+03  0.28791542652E+03  0.00000000000E+00 0.  1.
        -13    1    3    3    0    0  0.44397255856E+03  0.11215700770E+04 -0.80872794612E+03  0.14522644253E+04  0.00000000000E+00 0. -1.
         22    1    1    2    0    0 -0.53362025741E+03 -0.13648643398E+04 -0.55721946849E+03  0.15678325106E+04  0.00000000000E+00 0.  1.
<mgrwt>
<rscale>  0 0.29528845E+04</rscale>
<asrwt>0</asrwt>
<pdfrwt beam="1">  1        2 0.36916351E+00 0.29528845E+04</pdfrwt>
<pdfrwt beam="2">  1       -2 0.13976147E+00 0.29528845E+04</pdfrwt>
<totfact> 0.12329713E+00</totfact>
</mgrwt>
</event>
<event>
 6    1  0.8968082E-007  0.1741333E+04  0.7818608E-02  0.8738135E-01
          1   -1    0    0  501    0  0.00000000000E+00  0.00000000000E+00  0.17547900566E+04  0.17547900566E+04  0.00000000000E+00 0. -1.
         -1   -1    0    0    0  501 -0.00000000000E+00 -0.00000000000E+00 -0.43199483402E+03  0.43199483402E+03  0.00000000000E+00 0.  1.
         23    2    1    2    0    0 -0.43456821445E+03 -0.48059199781E+03  0.13894372391E+04  0.15354329429E+04  0.84854460153E+02 0.  0.
         13    1    3    3    0    0 -0.36361424504E+03 -0.37521859862E+03  0.10456632575E+04  0.11689379641E+04  0.00000000000E+00 0.  1.
        -13    1    3    3    0    0 -0.70953969418E+02 -0.10537339919E+03  0.34377398160E+03  0.36649497876E+03  0.00000000000E+00 0. -1.
         22    1    1    2    0    0  0.43456821445E+03  0.48059199781E+03 -0.66642016542E+02  0.65135194768E+03  0.00000000000E+00 0. -1.
<mgrwt>
<rscale>  0 0.17413331E+04</rscale>
<asrwt>0</asrwt>
<pdfrwt beam="1">  1        1 0.26996770E+00 0.17413331E+04</pdfrwt>
<pdfrwt beam="2">  1       -1 0.66460745E-01 0.17413331E+04</pdfrwt>
<totfact> 0.95134872E+00</totfact>
</mgrwt>
</event>
<event>
 6    1  0.8968082E-007  0.4379191E+04  0.7818608E-02  0.7932135E-01
         -2   -1    0    0    0  501 -0.00000000000E+00  0.00000000000E+00  0.20009963177E+04  0.20009963177E+04  0.00000000000E+00 0.  1.
          2   -1    0    0  501    0  0.00000000000E+00 -0.00000000000E+00 -0.23959701264E+04  0.23959701264E+04  0.00000000000E+00 0. -1.
         23    2    1    2    0    0 -0.39457958525E+03 -0.12451483216E+04  0.15657379426E+04  0.20410212063E+04  0.90248921086E+02 0.  0.
         11    1    3    3    0    0 -0.11866256978E+03 -0.44651685571E+03  0.49622776895E+03  0.67801187790E+03  0.00000000000E+00 0.  1.
        -11    1    3    3    0    0 -0.27591701547E+03 -0.79863146592E+03  0.10695101737E+04  0.13630093284E+04  0.00000000000E+00 0. -1.
         22    1    1    2    0    0  0.39457958525E+03  0.12451483216E+04 -0.19607117513E+04  0.23559452378E+04  0.00000000000E+00 0. -1.
<mgrwt>
<rscale>  0 0.43791905E+04</rscale>
<asrwt>0</asrwt>
<pdfrwt beam="1">  1        2 0.36861079E+00 0.43791905E+04</pdfrwt>
<pdfrwt beam="2">  1       -2 0.30784559E+00 0.43791905E+04</pdfrwt>
<totfact> 0.87000721E-02</totfact>
</mgrwt>
</event>
<event>
 6    1  0.8968082E-007  0.1536907E+04  0.7818608E-02  0.8860274E-01
          1   -1    0    0  501    0  0.00000000000E+00  0.00000000000E+00  0.67771821456E+03  0.67771821456E+03  0.00000000000E+00 0. -1.
         -1   -1    0    0    0  501 -0.00000000000E+00 -0.00000000000E+00 -0.87133712743E+03  0.87133712743E+03  0.00000000000E+00 0.  1.
         23    2    1    2    0    0  0.13527491113E+02  0.48528040728E+03 -0.69179544138E+03  0.85345493928E+03  0.11884584118E+03 0.  0.
         13    1    3    3    0    0  0.38204848181E+02  0.38191952661E+03 -0.46463272864E+03  0.60266550237E+03  0.00000000000E+00 0. -1.
        -13    1    3    3    0    0 -0.24677357068E+02  0.10336088067E+03 -0.22716271274E+03  0.25078943691E+03  0.00000000000E+00 0.  1.
         22    1    1    2    0    0 -0.13527491113E+02 -0.48528040728E+03  0.49817652851E+03  0.69560040272E+03  0.00000000000E+00 0. -1.
<mgrwt>
<rscale>  0 0.15369073E+04</rscale>
<asrwt>0</asrwt>
<pdfrwt beam="1">  1        1 0.10426434E+00 0.15369073E+04</pdfrwt>
<pdfrwt beam="2">  1       -1 0.13405187E+00 0.15369073E+04</pdfrwt>
<totfact> 0.12946195E+01</totfact>
</mgrwt>
</event>
<event>
 6    1  0.8968082E-007  0.2854996E+04  0.7818608E-02  0.8286395E-01
          1   -1    0    0  501    0  0.00000000000E+00  0.00000000000E+00  0.30638083783E+04  0.30638083783E+04  0.00000000000E+00 0. -1.
         -1   -1    0    0    0  501 -0.00000000000E+00 -0.00000000000E+00 -0.66510373922E+03  0.66510373922E+03  0.00000000000E+00 0.  1.
         23    2    1    2    0    0 -0.31685379836E+03  0.83106375025E+03  0.26564829799E+04  0.28028921611E+04  0.90770909106E+02 0.  0.
         13    1    3    3    0    0 -0.17511226202E+03  0.56465579857E+03  0.18229671571E+04  0.19164315096E+04  0.00000000000E+00 0.  1.
        -13    1    3    3    0    0 -0.14174153633E+03  0.26640795167E+03  0.83351582283E+03  0.88646065155E+03  0.00000000000E+00 0. -1.
         22    1    1    2    0    0  0.31685379836E+03 -0.83106375025E+03 -0.25777834087E+03  0.92601995634E+03  0.00000000000E+00 0.  1.
<mgrwt>
<rscale>  0 0.28549959E+04</rscale>
<asrwt>0</asrwt>
<pdfrwt beam="1">  1        1 0.47135513E+00 0.28549959E+04</pdfrwt>
<pdfrwt beam="2">  1       -1 0.10232365E+00 0.28549959E+04</pdfrwt>
<totfact> 0.41777160E-01</totfact>
</mgrwt>
</event>
<event>
 6    1  0.8968082E-007  0.2549214E+04  0.7818608E-02  0.8385659E-01
         -2   -1    0    0    0  501 -0.00000000000E+00  0.00000000000E+00  0.60836748646E+03  0.60836748646E+03  0.00000000000E+00 0.  1.
          2   -1    0    0  501    0  0.00000000000E+00 -0.00000000000E+00 -0.26704641109E+04  0.26704641109E+04  0.00000000000E+00 0. -1.
         23    2    1    2    0    0  0.29546746908E+03  0.12217951001E+04 -0.77379378259E+03  0.14788847914E+04  0.90879681598E+02 0.  0.
         11    1    3    3    0    0  0.12952594977E+03  0.72572366128E+03 -0.44933456627E+03  0.86333849482E+03  0.00000000000E+00 0. -1.
        -11    1    3    3    0    0  0.16594151931E+03  0.49607143880E+03 -0.32445921632E+03  0.61554629662E+03  0.00000000000E+00 0.  1.
         22    1    1    2    0    0 -0.29546746908E+03 -0.12217951001E+04 -0.12883028419E+04  0.17999468059E+04  0.00000000000E+00 0. -1.
<mgrwt>
<rscale>  0 0.25492144E+04</rscale>
<asrwt>0</asrwt>
<pdfrwt beam="1">  1        2 0.41084062E+00 0.25492144E+04</pdfrwt>
<pdfrwt beam="2">  1       -2 0.93595000E-01 0.25492144E+04</pdfrwt>
<totfact> 0.23698241E+00</totfact>
</mgrwt>
</event>
<event>
 6    1  0.8968082E-007  0.3327934E+04  0.7818608E-02  0.8155824E-01
         -1   -1    0    0    0  501 -0.00000000000E+00  0.00000000000E+00  0.18131408460E+04  0.18131408460E+04  0.00000000000E+00 0.  1.
          1   -1    0    0  501    0  0.00000000000E+00 -0.00000000000E+00 -0.15270663446E+04  0.15270663446E+04  0.00000000000E+00 0. -1.
         23    2    1    2    0    0 -0.67614973819E+03  0.16471706304E+03  0.16587749755E+04  0.18011760763E+04  0.91600540482E+02 0.  0.
         11    1    3    3    0    0 -0.39587081827E+03  0.12095393765E+03  0.88438492630E+03  0.97646313687E+03  0.00000000000E+00 0. -1.
        -11    1    3    3    0    0 -0.28027891992E+03  0.43763125388E+02  0.77439004921E+03  0.82471293940E+03  0.00000000000E+00 0.  1.
         22    1    1    2    0    0  0.67614973819E+03 -0.16471706304E+03 -0.13727004741E+04  0.15390311144E+04  0.00000000000E+00 0. -1.
<mgrwt>
<rscale>  0 0.33279341E+04</rscale>
<asrwt>0</asrwt>
<pdfrwt beam="1">  1        1 0.23493329E+00 0.33279341E+04</pdfrwt>
<pdfrwt beam="2">  1       -1 0.27894474E+00 0.33279341E+04</pdfrwt>
<totfact> 0.23443789E-01</totfact>
</mgrwt>
</event>
<event>
 6    1  0.8968082E-007  0.5413297E+04  0.7818608E-02  0.7767733E-01
          1   -1    0    0  501    0  0.00000000000E+00  0.00000000000E+00  0.22293050403E+04  0.22293050403E+04  0.00000000000E+00 0. -1.
         -1   -1    0    0    0  501 -0.00000000000E+00 -0.00000000000E+00 -0.32862019941E+04  0.32862019941E+04  0.00000000000E+00 0.  1.
         23    2    1    2    0    0 -0.19780095019E+04  0.16738088986E+04 -0.13229061854E+04  0.29107193789E+04  0.89714593538E+02 0.  0.
         13    1    3    3    0    0 -0.11982692188E+04  0.10676003911E+04 -0.83566715179E+03  0.18094085510E+04  0.00000000000E+00 0.  1.
        -13    1    3    3    0    0 -0.77974028313E+03  0.60620850751E+03 -0.48723903363E+03  0.11013108279E+04  0.00000000000E+00 0. -1.
         22    1    1    2    0    0  0.19780095019E+04 -0.16738088986E+04  0.26600923160E+03  0.26047876555E+04  0.00000000000E+00 0. -1.
<mgrwt>
<rscale>  0 0.54132972E+04</rscale>
<asrwt>0</asrwt>
<pdfrwt beam="1">  1        1 0.34297001E+00 0.54132972E+04</pdfrwt>
<pdfrwt beam="2">  1       -1 0.50556954E+00 0.54132972E+04</pdfrwt>
<totfact> 0.20124275E-03</totfact>
</mgrwt>
</event>
<event>
 6    1  0.8968082E-007  0.3115773E+04  0.7818608E-02  0.8211423E-01
         -1   -1    0    0    0  501 -0.00000000000E+00  0.00000000000E+00  0.71782922747E+03  0.71782922747E+03  0.00000000000E+00 0.  1.
          1   -1    0    0  501    0  0.00000000000E+00 -0.00000000000E+00 -0.33810406569E+04  0.33810406569E+04  0.00000000000E+00 0. -1.
         23    2    1    2    0    0  0.10294127081E+04 -0.79036868870E+03 -0.20241250964E+03  0.13168014971E+04  0.92855646388E+02 0.  0.
         11    1    3    3    0    0  0.42791027986E+03 -0.28107360336E+03 -0.54130313940E+02  0.51482003555E+03  0.00000000000E+00 0. -1.
        -11    1    3    3    0    0  0.60150242825E+03 -0.50929508535E+03 -0.14828219570E+03  0.80198146157E+03  0.00000000000E+00 0.  1.
         22    1    1    2    0    0 -0.10294127081E+04  0.79036868870E+03 -0.24607989198E+04  0.27820683872E+04  0.00000000000E+00 0. -1.
<mgrwt>
<rscale>  0 0.31157727E+04</rscale>
<asrwt>0</asrwt>
<pdfrwt beam="1">  1        1 0.52016010E+00 0.31157727E+04</pdfrwt>
<pdfrwt beam="2">  1       -1 0.11043527E+00 0.31157727E+04</pdfrwt>
<totfact> 0.19696660E-01</totfact>
</mgrwt>
</event>
<event>
 6    1  0.8968082E-007  0.8827241E+03  0.7818608E-02  0.9447439E-01
          4   -1    0    0  501    0  0.00000000000E+00  0.00000000000E+00  0.29927679822E+03  0.29927679822E+03  0.00000000000E+00 0. -1.
         -4   -1    0    0    0  501 -0.00000000000E+00 -0.00000000000E+00 -0.65090396128E+03  0.65090396128E+03  0.00000000000E+00 0.  1.
         23    2    1    2    0    0 -0.20329093397E+03 -0.38483001210E+03 -0.14176698745E+03  0.46700104620E+03  0.92578379635E+02 0.  0.
         11    1    3    3    0    0 -0.13857689300E+02 -0.79613092563E+02  0.11314457087E-01  0.80810149042E+02  0.00000000000E+00 0.  1.
        -11    1    3    3    0    0 -0.18943324467E+03 -0.30521691954E+03 -0.14177830190E+03  0.38619089716E+03  0.00000000000E+00 0. -1.
         22    1    1    2    0    0  0.20329093397E+03  0.38483001210E+03 -0.20986017561E+03  0.48317971331E+03  0.00000000000E+00 0.  1.
<mgrwt>
<rscale>  0 0.88272409E+03</rscale>
<asrwt>0</asrwt>
<pdfrwt beam="1">  1        4 0.46042585E-01 0.88272409E+03</pdfrwt>
<pdfrwt beam="2">  1       -4 0.10013907E+00 0.88272409E+03</pdfrwt>
<totfact> 0.74937127E+00</totfact>
</mgrwt>
</event>
<event>
 6    1  0.8968082E-007  0.1394147E+04  0.7818608E-02  0.8958066E-01
          2   -1    0    0  501    0  0.00000000000E+00  0.00000000000E+00  0.12921256940E+04  0.12921256940E+04  0.00000000000E+00 0. -1.
         -2   -1    0    0    0  501 -0.00000000000E+00 -0.00000000000E+00 -0.37605571217E+03  0.37605571217E+03  0.00000000000E+00 0.  1.
         23    2    1    2    0    0  0.51294244802E+03  0.55730543161E+02  0.10166113515E+04  0.11425157182E+04  0.75017851263E+02 0.  0.
         11    1    3    3    0    0  0.97160215515E+02 -0.17177296082E+02  0.21468527295E+03  0.23627300608E+03  0.00000000000E+00 0.  1.
        -11    1    3    3    0    0  0.41578223250E+03  0.72907839242E+02  0.80192607851E+03  0.90624271213E+03  0.00000000000E+00 0. -1.
         22    1    1    2    0    0 -0.51294244802E+03 -0.55730543161E+02 -0.10054136969E+03  0.52566568790E+03  0.00000000000E+00 0.  1.
<mgrwt>
<rscale>  0 0.13941467E+04</rscale>
<asrwt>0</asrwt>
<pdfrwt beam="1">  1        2 0.19878857E+00 0.13941467E+04</pdfrwt>
<pdfrwt beam="2">  1       -2 0.57854725E-01 0.13941467E+04</pdfrwt>
<totfact> 0.45493490E+01</totfact>
</mgrwt>
</event>
<event>
 6    1  0.8968082E-007  0.1202519E+04  0.7818608E-02  0.9110655E-01
         -2   -1    0    0    0  501 -0.00000000000E+00  0.00000000000E+00  0.14006372270E+03  0.14006372270E+03  0.00000000000E+00 0.  1.
          2   -1    0    0  501    0  0.00000000000E+00 -0.00000000000E+00 -0.25810597857E+04  0.25810597857E+04  0.00000000000E+00 0. -1.
         23    2    1    2    0    0 -0.75096098762E+02 -0.18850134436E+03 -0.24998739854E+04  0.25098445681E+04  0.93689019271E+02 0.  0.
         11    1    3    3    0    0  0.66720846162E-01 -0.12337595737E+03 -0.14796053946E+04  0.14847402989E+04  0.00000000000E+00 0.  1.
        -11    1    3    3    0    0 -0.75162819608E+02 -0.65125386988E+02 -0.10202685907E+04  0.10251042692E+04  0.00000000000E+00 0. -1.
         22    1    1    2    0    0  0.75096098762E+02  0.18850134436E+03  0.58877922385E+02  0.21127894031E+03  0.00000000000E+00 0.  1.
<mgrwt>
<rscale>  0 0.12025188E+04</rscale>
<asrwt>0</asrwt>
<pdfrwt beam="1">  1        2 0.39708610E+00 0.12025188E+04</pdfrwt>
<pdfrwt beam="2">  1       -2 0.21548266E-01 0.12025188E+04</pdfrwt>
<totfact> 0.58140126E+01</totfact>
</mgrwt>
</event>
<event>
 6    1  0.8968082E-007  0.2836562E+04  0.7818608E-02  0.8292006E-01
         -2   -1    0    0    0  501 -0.00000000000E+00  0.00000000000E+00  0.80222808357E+03  0.80222808357E+03  0.00000000000E+00 0.  1.
          2   -1    0    0  501    0  0.00000000000E+00 -0.00000000000E+00 -0.25074173435E+04  0.25074173435E+04  0.00000000000E+00 0. -1.
         23    2    1    2    0    0  0.55619423199E+02 -0.10609309678E+04 -0.19471857761E+04  0.22200444209E+04  0.91633758349E+02 0.  0.
         13    1    3    3    0    0 -0.49945710076E+01 -0.12365415065E+03 -0.28795628318E+03  0.31342322144E+03  0.00000000000E+00 0. -1.
        -13    1    3    3    0    0  0.60613994207E+02 -0.93727681714E+03 -0.16592294929E+04  0.19066211995E+04  0.00000000000E+00 0.  1.
         22    1    1    2    0    0 -0.55619423199E+02  0.10609309678E+04  0.24199651618E+03  0.10896010061E+04  0.00000000000E+00 0.  1.
<mgrwt>
<rscale>  0 0.28365617E+04</rscale>
<asrwt>0</asrwt>
<pdfrwt beam="1">  1        2 0.38575652E+00 0.28365617E+04</pdfrwt>
<pdfrwt beam="2">  1       -2 0.12341970E+00 0.28365617E+04</pdfrwt>
<totfact> 0.14799379E+00</totfact>
</mgrwt>
</event>
<event>
 6    1  0.8968082E-007  0.4908115E+04  0.7818608E-02  0.7842840E-01
         -2   -1    0    0    0  501 -0.00000000000E+00  0.00000000000E+00  0.22181111258E+04  0.22181111258E+04  0.00000000000E+00 0.  1.
          2   -1    0    0  501    0  0.00000000000E+00 -0.00000000000E+00 -0.27151019486E+04  0.27151019486E+04  0.00000000000E+00 0. -1.
         23    2    1    2    0    0 -0.80307363627E+03 -0.18824740437E+04  0.11109263219E+04  0.23305157554E+04  0.92252928917E+02 0.  0.
         13    1    3    3    0    0 -0.48018144963E+02 -0.17922644397E+03  0.10487287493E+03  0.21313418393E+03  0.00000000000E+00 0. -1.
        -13    1    3    3    0    0 -0.75505549131E+03 -0.17032475997E+04  0.10060534469E+04  0.21173815714E+04  0.00000000000E+00 0.  1.
         22    1    1    2    0    0  0.80307363627E+03  0.18824740437E+04 -0.16079171446E+04  0.26026973190E+04  0.00000000000E+00 0. -1.
<mgrwt>
<rscale>  0 0.49081148E+04</rscale>
<asrwt>0</asrwt>
<pdfrwt beam="1">  1        2 0.41770799E+00 0.49081148E+04</pdfrwt>
<pdfrwt beam="2">  1       -2 0.34124787E+00 0.49081148E+04</pdfrwt>
<totfact> 0.33682883E-02</totfact>
</mgrwt>
</event>
<event>
 6    1  0.8968082E-007  0.1555080E+04  0.7818608E-02  0.8848630E-01
          2   -1    0    0  501    0  0.00000000000E+00  0.00000000000E+00  0.10229679891E+04  0.10229679891E+04  0.00000000000E+00 0. -1.
         -2   -1    0    0    0  501 -0.00000000000E+00 -0.00000000000E+00 -0.59099418566E+03  0.59099418566E+03  0.00000000000E+00 0.  1.
         23    2    1    2    0    0  0.18955255444E+03  0.53082345433E+03 -0.33515617962E+03  0.66202093631E+03  0.90765328236E+02 0.  0.
         13    1    3    3    0    0  0.16277644405E+03  0.32899459872E+03 -0.22502119280E+03  0.43054402090E+03  0.00000000000E+00 0. -1.
        -13    1    3    3    0    0  0.26776110393E+02  0.20182885561E+03 -0.11013498682E+03  0.23147691540E+03  0.00000000000E+00 0.  1.
         22    1    1    2    0    0 -0.18955255444E+03 -0.53082345433E+03  0.76712998306E+03  0.95194123846E+03  0.00000000000E+00 0.  1.
<mgrwt>
<rscale>  0 0.15550796E+04</rscale>
<asrwt>0</asrwt>
<pdfrwt beam="1">  1        2 0.15737969E+00 0.15550796E+04</pdfrwt>
<pdfrwt beam="2">  1       -2 0.90922183E-01 0.15550796E+04</pdfrwt>
<totfact> 0.24189071E+01</totfact>
</mgrwt>
</event>
<event>
 6    1  0.8968082E-007  0.1171136E+04  0.7818608E-02  0.9138504E-01
         -1   -1    0    0    0  501 -0.00000000000E+00  0.00000000000E+00  0.12514458452E+04  0.12514458452E+04  0.00000000000E+00 0.  1.
          1   -1    0    0  501    0  0.00000000000E+00 -0.00000000000E+00 -0.27399477629E+03  0.27399477629E+03  0.00000000000E+00 0. -1.
         23    2    1    2    0    0  0.22599719982E+02  0.45050427889E+03  0.97072004353E+03  0.10743196185E+04  0.91653625425E+02 0.  0.
         11    1    3    3    0    0  0.53896952548E+02  0.22710374464E+03  0.45334230869E+03  0.50990218785E+03  0.00000000000E+00 0. -1.
        -11    1    3    3    0    0 -0.31297232565E+02  0.22340053425E+03  0.51737773485E+03  0.56441743062E+03  0.00000000000E+00 0.  1.
         22    1    1    2    0    0 -0.22599719982E+02 -0.45050427889E+03  0.67310253491E+01  0.45112100300E+03  0.00000000000E+00 0. -1.
<mgrwt>
<rscale>  0 0.11711356E+04</rscale>
<asrwt>0</asrwt>
<pdfrwt beam="1">  1        1 0.42153043E-01 0.11711356E+04</pdfrwt>
<pdfrwt beam="2">  1       -1 0.19253013E+00 0.11711356E+04</pdfrwt>
<totfact> 0.16606395E+01</totfact>
</mgrwt>
</event>
<event>
 6    1  0.8968082E-007  0.2884305E+04  0.7818608E-02  0.8277562E-01
         -1   -1    0    0    0  501 -0.00000000000E+00  0.00000000000E+00  0.98574014635E+03  0.98574014635E+03  0.00000000000E+00 0.  1.
          1   -1    0    0  501    0  0.00000000000E+00 -0.00000000000E+00 -0.21098911995E+04  0.21098911995E+04  0.00000000000E+00 0. -1.
         23    2    1    2    0    0  0.38957167873E+03 -0.35478521620E+03 -0.20017622874E+04  0.20719907249E+04  0.91949259967E+02 0.  0.
         13    1    3    3    0    0  0.25520820518E+03 -0.25607950880E+03 -0.15122288884E+04  0.15548453793E+04  0.00000000000E+00 0. -1.
        -13    1    3    3    0    0  0.13436347355E+03 -0.98705707400E+02 -0.48953339902E+03  0.51714534558E+03  0.00000000000E+00 0.  1.
         22    1    1    2    0    0 -0.38957167873E+03  0.35478521620E+03  0.87761123420E+03  0.10236406210E+04  0.00000000000E+00 0.  1.
<mgrwt>
<rscale>  0 0.28843054E+04</rscale>
<asrwt>0</asrwt>
<pdfrwt beam="1">  1        1 0.32459865E+00 0.28843054E+04</pdfrwt>
<pdfrwt beam="2">  1       -1 0.15165233E+00 0.28843054E+04</pdfrwt>
<totfact> 0.73041031E-01</totfact>
</mgrwt>
</event>
<event>
 6    1  0.8968082E-007  0.3939518E+04  0.7818608E-02  0.8016860E-01
          2   -1    0    0  501    0  0.00000000000E+00  0.00000000000E+00  0.32288365766E+04  0.32288365766E+04  0.00000000000E+00 0. -1.
         -2   -1    0    0    0  501 -0.00000000000E+00 -0.00000000000E+00 -0.12016558511E+04  0.12016558511E+04  0.00000000000E+00 0.  1.
         23    2    1    2    0    0  0.88192355017E+03  0.15355389607E+04  0.46529586544E+02  0.17736808081E+04  0.90053086181E+02 0.  0.
         11    1    3    3    0    0  0.69850797844E+03  0.12842458774E+04  0.43087830181E+02  0.14625516848E+04  0.00000000000E+00 0.  1.
        -11    1    3    3    0    0  0.18341557173E+03  0.25129308324E+03  0.34417563626E+01  0.31112912323E+03  0.00000000000E+00 0. -1.
         22    1    1    2    0    0 -0.88192355017E+03 -0.15355389607E+04  0.19806511390E+04  0.26568116197E+04  0.00000000000E+00 0.  1.
<mgrwt>
<rscale>  0 0.39395179E+04</rscale>
<asrwt>0</asrwt>
<pdfrwt beam="1">  1        2 0.49674409E+00 0.39395179E+04</pdfrwt>
<pdfrwt beam="2">  1       -2 0.18487013E+00 0.39395179E+04</pdfrwt>
<totfact> 0.16506621E-01</totfact>
</mgrwt>
</event>
<event>
 6    1  0.8968082E-007  0.1500534E+04  0.7818608E-02  0.8884098E-01
         -1   -1    0    0    0  501 -0.00000000000E+00  0.00000000000E+00  0.11255083087E+04  0.11255083087E+04  0.00000000000E+00 0.  1.
          1   -1    0    0  501    0  0.00000000000E+00 -0.00000000000E+00 -0.50012999691E+03  0.50012999691E+03  0.00000000000E+00 0. -1.
         23    2    1    2    0    0 -0.23169096892E+03 -0.61058862644E+03  0.70745651940E+03  0.96743164512E+03  0.94499128693E+02 0.  0.
         13    1    3    3    0    0 -0.72018168750E+02 -0.20684329232E+03  0.17468036165E+03  0.28014994727E+03  0.00000000000E+00 0. -1.
        -13    1    3    3    0    0 -0.15967280017E+03 -0.40374533412E+03  0.53277615775E+03  0.68728169785E+03  0.00000000000E+00 0.  1.
         22    1    1    2    0    0  0.23169096892E+03  0.61058862644E+03 -0.82078207571E+02  0.65820666054E+03  0.00000000000E+00 0. -1.
<mgrwt>
<rscale>  0 0.15005339E+04</rscale>
<asrwt>0</asrwt>
<pdfrwt beam="1">  1        1 0.76943076E-01 0.15005339E+04</pdfrwt>
<pdfrwt beam="2">  1       -1 0.17315512E+00 0.15005339E+04</pdfrwt>
<totfact> 0.99979266E+00</totfact>
</mgrwt>
</event>
<event>
 6    1  0.8968082E-007  0.2383296E+04  0.7818608E-02  0.8445784E-01
         -2   -1    0    0    0  501 -0.00000000000E+00  0.00000000000E+00  0.64615542088E+03  0.64615542088E+03  0.00000000000E+00 0.  1.
          2   -1    0    0  501    0  0.00000000000E+00 -0.00000000000E+00 -0.21976516943E+04  0.21976516943E+04  0.00000000000E+00 0. -1.
         23    2    1    2    0    0  0.86602928708E+03 -0.76286667930E+03 -0.11207395102E+04  0.16119290021E+04  0.10141874367E+03 0.  0.
         13    1    3    3    0    0  0.21353238331E+03 -0.23344721837E+03 -0.34879494284E+03  0.47090508028E+03  0.00000000000E+00 0. -1.
        -13    1    3    3    0    0  0.65249690377E+03 -0.52941946093E+03 -0.77194456734E+03  0.11410239218E+04  0.00000000000E+00 0.  1.
         22    1    1    2    0    0 -0.86602928708E+03  0.76286667930E+03 -0.43075676324E+03  0.12318781131E+04  0.00000000000E+00 0.  1.
<mgrwt>
<rscale>  0 0.23832957E+04</rscale>
<asrwt>0</asrwt>
<pdfrwt beam="1">  1        2 0.33810025E+00 0.23832957E+04</pdfrwt>
<pdfrwt beam="2">  1       -2 0.99408528E-01 0.23832957E+04</pdfrwt>
<totfact> 0.39065215E+00</totfact>
</mgrwt>
</event>
<event>
 6    1  0.8968082E-007  0.1756068E+04  0.7818608E-02  0.8730017E-01
          2   -1    0    0  501    0  0.00000000000E+00  0.00000000000E+00  0.20323878733E+04  0.20323878733E+04  0.00000000000E+00 0. -1.
         -2   -1    0    0    0  501 -0.00000000000E+00 -0.00000000000E+00 -0.37932920654E+03  0.37932920654E+03  0.00000000000E+00 0.  1.
         23    2    1    2    0    0  0.50520450876E+03  0.37151166258E+03 -0.10641079158E+02  0.63375494422E+03  0.90992228562E+02 0.  0.
         11    1    3    3    0    0  0.20240362416E+03  0.18329215375E+03 -0.40173410191E+02  0.27600207170E+03  0.00000000000E+00 0. -1.
        -11    1    3    3    0    0  0.30280088461E+03  0.18821950883E+03  0.29532331033E+02  0.35775287252E+03  0.00000000000E+00 0.  1.
         22    1    1    2    0    0 -0.50520450876E+03 -0.37151166258E+03  0.16636997460E+04  0.17779621356E+04  0.00000000000E+00 0. -1.
<mgrwt>
<rscale>  0 0.17560684E+04</rscale>
<asrwt>0</asrwt>
<pdfrwt beam="1">  1        2 0.31267505E+00 0.17560684E+04</pdfrwt>
<pdfrwt beam="2">  1       -2 0.58358341E-01 0.17560684E+04</pdfrwt>
<totfact> 0.16676189E+01</totfact>
</mgrwt>
</event>
<event>
 6    1  0.8968082E-007  0.3990454E+04  0.7818608E-02  0.8006475E-01
         -2   -1    0    0    0  501 -0.00000000000E+00  0.00000000000E+00  0.13537806526E+04  0.13537806526E+04  0.00000000000E+00 0.  1.
          2   -1    0    0  501    0  0.00000000000E+00 -0.00000000000E+00 -0.29406021587E+04  0.29406021587E+04  0.00000000000E+00 0. -1.
         23    2    1    2    0    0  0.38362323990E+03 -0.35944730603E+03 -0.28640739835E+04  0.29131720934E+04  0.85338777878E+02 0.  0.
         13    1    3    3    0    0  0.33532899101E+03 -0.27903598024E+03 -0.22393809183E+04  0.22814761686E+04  0.00000000000E+00 0. -1.
        -13    1    3    3    0    0  0.48294248892E+02 -0.80411325793E+02 -0.62469306517E+03  0.63169592484E+03  0.00000000000E+00 0.  1.
         22    1    1    2    0    0 -0.38362323990E+03  0.35944730603E+03  0.12772524774E+04  0.13812107178E+04  0.00000000000E+00 0.  1.
<mgrwt>
<rscale>  0 0.39904538E+04</rscale>
<asrwt>0</asrwt>
<pdfrwt beam="1">  1        2 0.45240033E+00 0.39904538E+04</pdfrwt>
<pdfrwt beam="2">  1       -2 0.20827395E+00 0.39904538E+04</pdfrwt>
<totfact> 0.17578861E-01</totfact>
</mgrwt>
</event>
<event>
 6    1  0.8968082E-007  0.4934182E+04  0.7818608E-02  0.7838741E-01
         -2   -1    0    0    0  501 -0.00000000000E+00  0.00000000000E+00  0.24061651983E+04  0.24061651983E+04  0.00000000000E+00 0.  1.
          2   -1    0    0  501    0  0.00000000000E+00 -0.00000000000E+00 -0.25295598871E+04  0.25295598871E+04  0.00000000000E+00 0. -1.
         23    2    1    2    0    0  0.72661487858E+03 -0.16843470518E+04  0.15873013101E+04  0.24274438066E+04  0.89240195553E+02 0.  0.
         11    1    3    3    0    0  0.22254061766E+03 -0.56225975115E+03  0.47379736106E+03  0.76820849619E+03  0.00000000000E+00 0. -1.
        -11    1    3    3    0    0  0.50407426092E+03 -0.11220873007E+04  0.11135039490E+04  0.16592353104E+04  0.00000000000E+00 0.  1.
         22    1    1    2    0    0 -0.72661487858E+03  0.16843470518E+04 -0.17106959989E+04  0.25082812787E+04  0.00000000000E+00 0. -1.
<mgrwt>
<rscale>  0 0.49341824E+04</rscale>
<asrwt>0</asrwt>
<pdfrwt beam="1">  1        2 0.38916306E+00 0.49341824E+04</pdfrwt>
<pdfrwt beam="2">  1       -2 0.37017926E+00 0.49341824E+04</pdfrwt>
<totfact> 0.28360969E-02</totfact>
</mgrwt>
</event>
<event>
 6    1  0.8968082E-007  0.1939180E+04  0.7818608E-02  0.8635596E-01
         -1   -1    0    0    0  501 -0.00000000000E+00  0.00000000000E+00  0.65302220600E+03  0.65302220600E+03  0.00000000000E+00 0.  1.
          1   -1    0    0  501    0  0.00000000000E+00 -0.00000000000E+00 -0.14396220440E+04  0.14396220440E+04  0.00000000000E+00 0. -1.
         23    2    1    2    0    0  0.46849702209E+03 -0.63077224924E+03 -0.10024035262E+04  0.12778225996E+04  0.10322149341E+03 0.  0.
         13    1    3    3    0    0  0.21798817150E+03 -0.36878387986E+03 -0.58326415922E+03  0.72368326800E+03  0.00000000000E+00 0.  1.
        -13    1    3    3    0    0  0.25050885060E+03 -0.26198836938E+03 -0.41913936694E+03  0.55413933161E+03  0.00000000000E+00 0. -1.
         22    1    1    2    0    0 -0.46849702209E+03  0.63077224924E+03  0.21580368816E+03  0.81482165039E+03  0.00000000000E+00 0.  1.
<mgrwt>
<rscale>  0 0.19391804E+04</rscale>
<asrwt>0</asrwt>
<pdfrwt beam="1">  1        1 0.22148031E+00 0.19391804E+04</pdfrwt>
<pdfrwt beam="2">  1       -1 0.10046496E+00 0.19391804E+04</pdfrwt>
<totfact> 0.63373481E+00</totfact>
</mgrwt>
</event>
<event>
 6    1  0.8968082E-007  0.7374316E+03  0.7818608E-02  0.9655277E-01
         -2   -1    0    0    0  501 -0.00000000000E+00  0.00000000000E+00  0.16275253706E+03  0.16275253706E+03  0.00000000000E+00 0.  1.
          2   -1    0    0  501    0  0.00000000000E+00 -0.00000000000E+00 -0.83532547869E+03  0.83532547869E+03  0.00000000000E+00 0. -1.
         23    2    1    2    0    0  0.28076050609E+03 -0.21784956624E+03 -0.43871988084E+03  0.57266980082E+03  0.95867990695E+02 0.  0.
         13    1    3    3    0    0  0.22776613777E+03 -0.21766236640E+03 -0.37803989066E+03  0.49210616557E+03  0.00000000000E+00 0. -1.
        -13    1    3    3    0    0  0.52994368319E+02 -0.18719984549E+00 -0.60679990181E+02  0.80563635256E+02  0.00000000000E+00 0.  1.
         22    1    1    2    0    0 -0.28076050609E+03  0.21784956624E+03 -0.23385306079E+03  0.42540821493E+03  0.00000000000E+00 0.  1.
<mgrwt>
<rscale>  0 0.73743160E+03</rscale>
<asrwt>0</asrwt>
<pdfrwt beam="1">  1        2 0.12851161E+00 0.73743160E+03</pdfrwt>
<pdfrwt beam="2">  1       -2 0.25038852E-01 0.73743160E+03</pdfrwt>
<totfact> 0.46715900E+02</totfact>
</mgrwt>
</event>
<event>
 6    1  0.8968082E-007  0.1556791E+04  0.7818608E-02  0.8847542E-01
          1   -1    0    0  501    0  0.00000000000E+00  0.00000000000E+00  0.14177502785E+04  0.14177502785E+04  0.00000000000E+00 0. -1.
         -1   -1    0    0    0  501 -0.00000000000E+00 -0.00000000000E+00 -0.42736668880E+03  0.42736668880E+03  0.00000000000E+00 0.  1.
         23    2    1    2    0    0  0.74510733678E+03  0.17297503337E+03  0.34347093690E+03  0.84331794262E+03  0.90042003310E+02 0.  0.
         11    1    3    3    0    0  0.58400791642E+03  0.12449205756E+03  0.22757717089E+03  0.63902651553E+03  0.00000000000E+00 0. -1.
        -11    1    3    3    0    0  0.16109942035E+03  0.48482975809E+02  0.11589376601E+03  0.20429142709E+03  0.00000000000E+00 0.  1.
         22    1    1    2    0    0 -0.74510733678E+03 -0.17297503337E+03  0.64691265280E+03  0.10017990247E+04  0.00000000000E+00 0.  1.
<mgrwt>
<rscale>  0 0.15567906E+04</rscale>
<asrwt>0</asrwt>
<pdfrwt beam="1">  1        1 0.21811542E+00 0.15567906E+04</pdfrwt>
<pdfrwt beam="2">  1       -1 0.65748722E-01 0.15567906E+04</pdfrwt>
<totfact> 0.16854708E+01</totfact>
</mgrwt>
</event>
<event>
 6    1  0.8968082E-007  0.1082485E+04  0.7818608E-02  0.9222433E-01
         -1   -1    0    0    0  501 -0.00000000000E+00  0.00000000000E+00  0.38057090380E+03  0.38057090380E+03  0.00000000000E+00 0.  1.
          1   -1    0    0  501    0  0.00000000000E+00 -0.00000000000E+00 -0.76974736860E+03  0.76974736860E+03  0.00000000000E+00 0. -1.
         23    2    1    2    0    0  0.13546115076E+03  0.49683895830E+03 -0.32472956057E+02  0.52387109425E+03  0.90486223669E+02 0.  0.
         13    1    3    3    0    0  0.11754399790E+03  0.33197898589E+03 -0.55255965953E+02  0.35648262270E+03  0.00000000000E+00 0.  1.
        -13    1    3    3    0    0  0.17917152855E+02  0.16485997241E+03  0.22783009896E+02  0.16738847156E+03  0.00000000000E+00 0. -1.
         22    1    1    2    0    0 -0.13546115076E+03 -0.49683895830E+03 -0.35670350875E+03  0.62644717814E+03  0.00000000000E+00 0. -1.
<mgrwt>
<rscale>  0 0.10824850E+04</rscale>
<asrwt>0</asrwt>
<pdfrwt beam="1">  1        1 0.11842267E+00 0.10824850E+04</pdfrwt>
<pdfrwt beam="2">  1       -1 0.58549371E-01 0.10824850E+04</pdfrwt>
<totfact> 0.69341807E+01</totfact>
</mgrwt>
</event>
<event>
 6    1  0.8968082E-007  0.2990397E+04  0.7818608E-02  0.8246478E-01
          2   -1    0    0  501    0  0.00000000000E+00  0.00000000000E+00  0.26937523160E+04  0.26937523160E+04  0.00000000000E+00 0. -1.
         -2   -1    0    0    0  501 -0.00000000000E+00 -0.00000000000E+00 -0.82992750149E+03  0.82992750149E+03  0.00000000000E+00 0.  1.
         23    2    1    2    0    0 -0.22183689667E+03  0.98001762110E+03 -0.36975567879E+03  0.10744905707E+04  0.90358055517E+02 0.  0.
         11    1    3    3    0    0 -0.13615250436E+03  0.41943800214E+03 -0.14065450502E+03  0.46287085873E+03  0.00000000000E+00 0. -1.
        -11    1    3    3    0    0 -0.85684392316E+02  0.56057961896E+03 -0.22910117377E+03  0.61161971199E+03  0.00000000000E+00 0.  1.
         22    1    1    2    0    0  0.22183689667E+03 -0.98001762110E+03  0.22335804933E+04  0.24491892467E+04  0.00000000000E+00 0. -1.
<mgrwt>
<rscale>  0 0.29903974E+04</rscale>
<asrwt>0</asrwt>
<pdfrwt beam="1">  1        2 0.41442343E+00 0.29903974E+04</pdfrwt>
<pdfrwt beam="2">  1       -2 0.12768116E+00 0.29903974E+04</pdfrwt>
<totfact> 0.10425555E+00</totfact>
</mgrwt>
</event>
<event>
 6    1  0.9686054E-007  0.3341678E+04  0.7818608E-02  0.8152371E-01
         -1   -1    0    0    0  501 -0.00000000000E+00  0.00000000000E+00  0.17435437797E+04  0.17435437797E+04  0.00000000000E+00 0.  1.
          1   -1    0    0  501    0  0.00000000000E+00 -0.00000000000E+00 -0.16011661394E+04  0.16011661394E+04  0.00000000000E+00 0. -1.
         23    2    1    2    0    0  0.82311192391E+03  0.15736935535E+03 -0.13741658333E+04  0.16120292039E+04  0.89599461266E+02 0.  0.
         11    1    3    3    0    0  0.26299490486E+03  0.49496080427E+02 -0.36167376659E+03  0.44991565365E+03  0.00000000000E+00 0. -1.
        -11    1    3    3    0    0  0.56011701906E+03  0.10787327493E+03 -0.10124920667E+04  0.11621135502E+04  0.00000000000E+00 0.  1.
         22    1    1    2    0    0 -0.82311192391E+03 -0.15736935535E+03  0.15165434736E+04  0.17326807152E+04  0.00000000000E+00 0.  1.
<mgrwt>
<rscale>  0 0.33416782E+04</rscale>
<asrwt>0</asrwt>
<pdfrwt beam="1">  1        1 0.24633325E+00 0.33416782E+04</pdfrwt>
<pdfrwt beam="2">  1       -1 0.26823750E+00 0.33416782E+04</pdfrwt>
<totfact> 0.24426403E-01</totfact>
</mgrwt>
</event>
<event>
 6    1  0.8968082E-007  0.3247550E+04  0.7818608E-02  0.8176371E-01
          2   -1    0    0  501    0  0.00000000000E+00  0.00000000000E+00  0.24447211823E+04  0.24447211823E+04  0.00000000000E+00 0. -1.
         -2   -1    0    0    0  501 -0.00000000000E+00 -0.00000000000E+00 -0.10785054201E+04  0.10785054201E+04  0.00000000000E+00 0.  1.
         23    2    1    2    0    0  0.71429747774E+01 -0.53749798715E+03 -0.97690527190E+03  0.11192359017E+04  0.96901935229E+02 0.  0.
         11    1    3    3    0    0  0.43724280730E+02 -0.28064990386E+03 -0.56620441845E+03  0.63345372738E+03  0.00000000000E+00 0. -1.
        -11    1    3    3    0    0 -0.36581305953E+02 -0.25684808329E+03 -0.41070085345E+03  0.48578217429E+03  0.00000000000E+00 0.  1.
         22    1    1    2    0    0 -0.71429747774E+01  0.53749798715E+03  0.23431210342E+04  0.24039907007E+04  0.00000000000E+00 0. -1.
<mgrwt>
<rscale>  0 0.32475499E+04</rscale>
<asrwt>0</asrwt>
<pdfrwt beam="1">  1        2 0.37611095E+00 0.32475499E+04</pdfrwt>
<pdfrwt beam="2">  1       -2 0.16592391E+00 0.32475499E+04</pdfrwt>
<totfact> 0.71640917E-01</totfact>
</mgrwt>
</event>
<event>
 6    1  0.8968082E-007  0.1637186E+04  0.7818608E-02  0.8798024E-01
          1   -1    0    0  501    0  0.00000000000E+00  0.00000000000E+00  0.13024435367E+04  0.13024435367E+04  0.00000000000E+00 0. -1.
         -1   -1    0    0    0  501 -0.00000000000E+00 -0.00000000000E+00 -0.51448995271E+03  0.51448995271E+03  0.00000000000E+00 0.  1.
         23    2    1    2    0    0 -0.50559477537E+03 -0.49766896947E+03 -0.51901351521E+02  0.71754420769E+03  0.94209657936E+02 0.  0.
         11    1    3    3    0    0 -0.30068406868E+03 -0.23998167055E+03 -0.31292978702E+01  0.38472315224E+03  0.00000000000E+00 0. -1.
        -11    1    3    3    0    0 -0.20491070668E+03 -0.25768729891E+03 -0.48772053650E+02  0.33282105545E+03  0.00000000000E+00 0.  1.
         22    1    1    2    0    0  0.50559477537E+03  0.49766896947E+03  0.83985493548E+03  0.10993892817E+04  0.00000000000E+00 0. -1.
<mgrwt>
<rscale>  0 0.16371855E+04</rscale>
<asrwt>0</asrwt>
<pdfrwt beam="1">  1        1 0.20037593E+00 0.16371855E+04</pdfrwt>
<pdfrwt beam="2">  1       -1 0.79152301E-01 0.16371855E+04</pdfrwt>
<totfact> 0.13752605E+01</totfact>
</mgrwt>
</event>
<event>
 6    1  0.8968082E-007  0.5366234E+04  0.7818608E-02  0.7774368E-01
          2   -1    0    0  501    0  0.00000000000E+00  0.00000000000E+00  0.20431554656E+04  0.20431554656E+04  0.00000000000E+00 0. -1.
         -2   -1    0    0    0  501 -0.00000000000E+00 -0.00000000000E+00 -0.35235280233E+04  0.35235280233E+04  0.00000000000E+00 0.  1.
         23    2    1    2    0    0  0.23647525654E+04  0.11073471458E+04 -0.13770859811E+04  0.29534593283E+04  0.91015427900E+02 0.  0.
         13    1    3    3    0    0  0.18717705109E+04  0.90707079827E+03 -0.10691930996E+04  0.23386911218E+04  0.00000000000E+00 0.  1.
        -13    1    3    3    0    0  0.49298205445E+03  0.20027634748E+03 -0.30789288141E+03  0.61476820655E+03  0.00000000000E+00 0. -1.
         22    1    1    2    0    0 -0.23647525654E+04 -0.11073471458E+04 -0.10328657663E+03  0.26132241606E+04  0.00000000000E+00 0.  1.
<mgrwt>
<rscale>  0 0.53662335E+04</rscale>
<asrwt>0</asrwt>
<pdfrwt beam="1">  1        2 0.31433161E+00 0.53662335E+04</pdfrwt>
<pdfrwt beam="2">  1       -2 0.54208123E+00 0.53662335E+04</pdfrwt>
<totfact> 0.42538873E-03</totfact>
</mgrwt>
</event>
<event>
 6    1  0.8968082E-007  0.3678060E+04  0.7818608E-02  0.8072841E-01
          1   -1    0    0  501    0  0.00000000000E+00  0.00000000000E+00  0.14637947955E+04  0.14637947955E+04  0.00000000000E+00 0. -1.
         -1   -1    0    0    0  501 -0.00000000000E+00 -0.00000000000E+00 -0.23104545347E+04  0.23104545347E+04  0.00000000000E+00 0.  1.
         23    2    1    2    0    0 -0.17398776816E+04  0.19315551915E+03  0.15083067044E+03  0.17594365551E+04  0.91562539910E+02 0.  0.
         11    1    3    3    0    0 -0.58533451187E+03  0.32779197354E+02  0.79633366504E+02  0.59163539416E+03  0.00000000000E+00 0.  1.
        -11    1    3    3    0    0 -0.11545431697E+04  0.16037632179E+03  0.71197303937E+02  0.11678011609E+04  0.00000000000E+00 0. -1.
         22    1    1    2    0    0  0.17398776816E+04 -0.19315551915E+03 -0.99749040959E+03  0.20148127751E+04  0.00000000000E+00 0. -1.
<mgrwt>
<rscale>  0 0.36780600E+04</rscale>
<asrwt>0</asrwt>
<pdfrwt beam="1">  1        1 0.22519920E+00 0.36780600E+04</pdfrwt>
<pdfrwt beam="2">  1       -1 0.35545454E+00 0.36780600E+04</pdfrwt>
<totfact> 0.79607811E-02</totfact>
</mgrwt>
</event>
<event>
 6    1  0.8968082E-007  0.1742189E+04  0.7818608E-02  0.8737662E-01
          2   -1    0    0  501    0  0.00000000000E+00  0.00000000000E+00  0.44510259384E+03  0.44510259384E+03  0.00000000000E+00 0. -1.
         -2   -1    0    0    0  501 -0.00000000000E+00 -0.00000000000E+00 -0.17047876241E+04  0.17047876241E+04  0.00000000000E+00 0.  1.
         23    2    1    2    0    0 -0.36413624245E+02 -0.37613841552E+03  0.33355512097E+03  0.51244701614E+03  0.92395162014E+02 0.  0.
         11    1    3    3    0    0 -0.35499345025E+02 -0.19127663033E+03  0.11421058386E+03  0.22559035944E+03  0.00000000000E+00 0.  1.
        -11    1    3    3    0    0 -0.91427922034E+00 -0.18486178518E+03  0.21934453711E+03  0.28685665669E+03  0.00000000000E+00 0. -1.
         22    1    1    2    0    0  0.36413624245E+02  0.37613841552E+03 -0.15932401513E+04  0.16374432018E+04  0.00000000000E+00 0.  1.
<mgrwt>
<rscale>  0 0.17421887E+04</rscale>
<asrwt>0</asrwt>
<pdfrwt beam="1">  1        2 0.68477321E-01 0.17421887E+04</pdfrwt>
<pdfrwt beam="2">  1       -2 0.26227502E+00 0.17421887E+04</pdfrwt>
<totfact> 0.36104538E+00</totfact>
</mgrwt>
</event>
<event>
 6    1  0.8968082E-007  0.1989564E+04  0.7818608E-02  0.8611515E-01
          2   -1    0    0  501    0  0.00000000000E+00  0.00000000000E+00  0.13046327443E+04  0.13046327443E+04  0.00000000000E+00 0. -1.
         -2   -1    0    0    0  501 -0.00000000000E+00 -0.00000000000E+00 -0.75852125873E+03  0.75852125873E+03  0.00000000000E+00 0.  1.
         23    2    1    2    0    0  0.58768576634E+03  0.72202475804E+03  0.63095641423E+03  0.11283315744E+04  0.91278879666E+02 0.  0.
         11    1    3    3    0    0  0.10495543570E+03  0.12594395247E+03  0.15507008681E+03  0.22566403007E+03  0.00000000000E+00 0. -1.
        -11    1    3    3    0    0  0.48273033065E+03  0.59608080557E+03  0.47588632741E+03  0.90266754429E+03  0.00000000000E+00 0.  1.
         22    1    1    2    0    0 -0.58768576634E+03 -0.72202475804E+03 -0.84844928668E+02  0.93482242865E+03  0.00000000000E+00 0.  1.
<mgrwt>
<rscale>  0 0.19895644E+04</rscale>
<asrwt>0</asrwt>
<pdfrwt beam="1">  1        2 0.20071273E+00 0.19895644E+04</pdfrwt>
<pdfrwt beam="2">  1       -2 0.11669558E+00 0.19895644E+04</pdfrwt>
<totfact> 0.86922176E+00</totfact>
</mgrwt>
</event>
<event>
 6    1  0.8968082E-007  0.2154572E+04  0.7818608E-02  0.8537578E-01
          2   -1    0    0  501    0  0.00000000000E+00  0.00000000000E+00  0.21223899684E+04  0.21223899684E+04  0.00000000000E+00 0. -1.
         -2   -1    0    0    0  501 -0.00000000000E+00 -0.00000000000E+00 -0.54681071121E+03  0.54681071121E+03  0.00000000000E+00 0.  1.
         23    2    1    2    0    0  0.73961247531E+03 -0.47680851960E+03  0.15548414994E+04  0.17889717136E+04  0.92275272565E+02 0.  0.
         13    1    3    3    0    0  0.56869402352E+03 -0.37566220837E+03  0.12761738436E+04  0.14467738822E+04  0.00000000000E+00 0.  1.
        -13    1    3    3    0    0  0.17091845179E+03 -0.10114631122E+03  0.27866765585E+03  0.34219783146E+03  0.00000000000E+00 0. -1.
         22    1    1    2    0    0 -0.73961247531E+03  0.47680851960E+03  0.20737757817E+02  0.88022896600E+03  0.00000000000E+00 0.  1.
<mgrwt>
<rscale>  0 0.21545724E+04</rscale>
<asrwt>0</asrwt>
<pdfrwt beam="1">  1        2 0.32652153E+00 0.21545724E+04</pdfrwt>
<pdfrwt beam="2">  1       -2 0.84124726E-01 0.21545724E+04</pdfrwt>
<totfact> 0.64605450E+00</totfact>
</mgrwt>
</event>
<event>
 6    1  0.8968082E-007  0.3704152E+04  0.7818608E-02  0.8067042E-01
         -2   -1    0    0    0  501 -0.00000000000E+00  0.00000000000E+00  0.19191122969E+04  0.19191122969E+04  0.00000000000E+00 0.  1.
          2   -1    0    0  501    0  0.00000000000E+00 -0.00000000000E+00 -0.17873809949E+04  0.17873809949E+04  0.00000000000E+00 0. -1.
         23    2    1    2    0    0  0.18402415095E+04  0.67872898711E+02  0.24717604327E+03  0.18613854272E+04  0.11209000090E+03 0.  0.
         13    1    3    3    0    0  0.84649973681E+03 -0.14691663266E+02  0.81366606040E+02  0.85052817353E+03  0.00000000000E+00 0.  1.
        -13    1    3    3    0    0  0.99374177272E+03  0.82564561977E+02  0.16580943723E+03  0.10108572536E+04  0.00000000000E+00 0. -1.
         22    1    1    2    0    0 -0.18402415095E+04 -0.67872898711E+02 -0.11544474132E+03  0.18451078646E+04  0.00000000000E+00 0.  1.
<mgrwt>
<rscale>  0 0.37041516E+04</rscale>
<asrwt>0</asrwt>
<pdfrwt beam="1">  1        2 0.27498169E+00 0.37041516E+04</pdfrwt>
<pdfrwt beam="2">  1       -2 0.29524805E+00 0.37041516E+04</pdfrwt>
<totfact> 0.24082677E-01</totfact>
</mgrwt>
</event>
<event>
 6    1  0.8968082E-007  0.2840206E+04  0.7818608E-02  0.8290894E-01
          2   -1    0    0  501    0  0.00000000000E+00  0.00000000000E+00  0.24740439730E+04  0.24740439730E+04  0.00000000000E+00 0. -1.
         -2   -1    0    0    0  501 -0.00000000000E+00 -0.00000000000E+00 -0.81514019903E+03  0.81514019903E+03  0.00000000000E+00 0.  1.
         23    2    1    2    0    0 -0.10275852495E+04 -0.97268603517E+03  0.71157634050E+03  0.15863985619E+04  0.90939214384E+02 0.  0.
         13    1    3    3    0    0 -0.78742750044E+03 -0.71755171915E+03  0.49725194704E+03  0.11756623822E+04  0.00000000000E+00 0.  1.
        -13    1    3    3    0    0 -0.24015774906E+03 -0.25513431601E+03  0.21432439346E+03  0.41073617965E+03  0.00000000000E+00 0. -1.
         22    1    1    2    0    0  0.10275852495E+04  0.97268603517E+03  0.94732743344E+03  0.17027856101E+04  0.00000000000E+00 0. -1.
<mgrwt>
<rscale>  0 0.28402061E+04</rscale>
<asrwt>0</asrwt>
<pdfrwt beam="1">  1        2 0.38062215E+00 0.28402061E+04</pdfrwt>
<pdfrwt beam="2">  1       -2 0.12540619E+00 0.28402061E+04</pdfrwt>
<totfact> 0.14861425E+00</totfact>
</mgrwt>
</event>
<event>
 6    1  0.8968082E-007  0.1948431E+04  0.7818608E-02  0.8631118E-01
          2   -1    0    0  501    0  0.00000000000E+00  0.00000000000E+00  0.18820638878E+04  0.18820638878E+04  0.00000000000E+00 0. -1.
         -2   -1    0    0    0  501 -0.00000000000E+00 -0.00000000000E+00 -0.50428460578E+03  0.50428460578E+03  0.00000000000E+00 0.  1.
         23    2    1    2    0    0  0.29817869117E+03 -0.72588054384E+03 -0.12245012836E+02  0.79010896391E+03  0.91154477219E+02 0.  0.
         11    1    3    3    0    0  0.62975133962E+02 -0.84441437252E+02  0.14792967021E+02  0.10637225059E+03  0.00000000000E+00 0.  1.
        -11    1    3    3    0    0  0.23520355721E+03 -0.64143910658E+03 -0.27037979856E+02  0.68373671332E+03  0.00000000000E+00 0. -1.
         22    1    1    2    0    0 -0.29817869117E+03  0.72588054384E+03  0.13900242948E+04  0.15962395296E+04  0.00000000000E+00 0. -1.
<mgrwt>
<rscale>  0 0.19484310E+04</rscale>
<asrwt>0</asrwt>
<pdfrwt beam="1">  1        2 0.28954829E+00 0.19484310E+04</pdfrwt>
<pdfrwt beam="2">  1       -2 0.77582248E-01 0.19484310E+04</pdfrwt>
<totfact> 0.10732748E+01</totfact>
</mgrwt>
</event>
<event>
 6    1  0.8968082E-007  0.4168545E+04  0.7818608E-02  0.7971383E-01
         -2   -1    0    0    0  501 -0.00000000000E+00  0.00000000000E+00  0.13284964164E+04  0.13284964164E+04  0.00000000000E+00 0.  1.
          2   -1    0    0  501    0  0.00000000000E+00 -0.00000000000E+00 -0.32700068926E+04  0.32700068926E+04  0.00000000000E+00 0. -1.
         23    2    1    2    0    0  0.16661269205E+04  0.96459081276E+03 -0.18492154063E+04  0.26710872327E+04  0.93247168717E+02 0.  0.
         13    1    3    3    0    0  0.20037349236E+03  0.84800977242E+02 -0.19268321943E+03  0.29063304222E+03  0.00000000000E+00 0.  1.
        -13    1    3    3    0    0  0.14657534282E+04  0.87978983552E+03 -0.16565321868E+04  0.23804541905E+04  0.00000000000E+00 0. -1.
         22    1    1    2    0    0 -0.16661269205E+04 -0.96459081276E+03 -0.92295069875E+02  0.19274160763E+04  0.00000000000E+00 0. -1.
<mgrwt>
<rscale>  0 0.41685453E+04</rscale>
<asrwt>0</asrwt>
<pdfrwt beam="1">  1        2 0.50307798E+00 0.41685453E+04</pdfrwt>
<pdfrwt beam="2">  1       -2 0.20438407E+00 0.41685453E+04</pdfrwt>
<totfact> 0.11286777E-01</totfact>
</mgrwt>
</event>
<event>
 6    1  0.8968082E-007  0.2615667E+04  0.7818608E-02  0.8362899E-01
         -2   -1    0    0    0  501 -0.00000000000E+00  0.00000000000E+00  0.68910379902E+03  0.68910379902E+03  0.00000000000E+00 0.  1.
          2   -1    0    0  501    0  0.00000000000E+00 -0.00000000000E+00 -0.24821062705E+04  0.24821062705E+04  0.00000000000E+00 0. -1.
         23    2    1    2    0    0  0.87463431429E+03  0.22370996470E+03  0.24756794762E+03  0.93985197020E+03  0.83669021554E+02 0.  0.
         13    1    3    3    0    0  0.20863210132E+03  0.31935291419E+02  0.28421773025E+02  0.21296716582E+03  0.00000000000E+00 0.  1.
        -13    1    3    3    0    0  0.66600221298E+03  0.19177467328E+03  0.21914617459E+03  0.72688480438E+03  0.00000000000E+00 0. -1.
         22    1    1    2    0    0 -0.87463431429E+03 -0.22370996470E+03 -0.20405704191E+04  0.22313580993E+04  0.00000000000E+00 0. -1.
<mgrwt>
<rscale>  0 0.26156673E+04</rscale>
<asrwt>0</asrwt>
<pdfrwt beam="1">  1        2 0.38186251E+00 0.26156673E+04</pdfrwt>
<pdfrwt beam="2">  1       -2 0.10601597E+00 0.26156673E+04</pdfrwt>
<totfact> 0.22617140E+00</totfact>
</mgrwt>
</event>
<event>
 6    1  0.8968082E-007  0.3097046E+04  0.7818608E-02  0.8216549E-01
         -2   -1    0    0    0  501 -0.00000000000E+00  0.00000000000E+00  0.17854530814E+04  0.17854530814E+04  0.00000000000E+00 0.  1.
          2   -1    0    0  501    0  0.00000000000E+00 -0.00000000000E+00 -0.13430335001E+04  0.13430335001E+04  0.00000000000E+00 0. -1.
         23    2    1    2    0    0 -0.12795697046E+04 -0.53179539628E+03 -0.47373856810E+03  0.14673271289E+04  0.92280550092E+02 0.  0.
         11    1    3    3    0    0 -0.59609018703E+03 -0.22782129959E+03 -0.17361791439E+03  0.66133897194E+03  0.00000000000E+00 0.  1.
        -11    1    3    3    0    0 -0.68347951755E+03 -0.30397409670E+03 -0.30012065370E+03  0.80598815696E+03  0.00000000000E+00 0. -1.
         22    1    1    2    0    0  0.12795697046E+04  0.53179539628E+03  0.91615814940E+03  0.16611594526E+04  0.00000000000E+00 0.  1.
<mgrwt>
<rscale>  0 0.30970459E+04</rscale>
<asrwt>0</asrwt>
<pdfrwt beam="1">  1        2 0.20662054E+00 0.30970459E+04</pdfrwt>
<pdfrwt beam="2">  1       -2 0.27468509E+00 0.30970459E+04</pdfrwt>
<totfact> 0.60136937E-01</totfact>
</mgrwt>
</event>
<event>
 6    1  0.8968082E-007  0.2819274E+04  0.7818608E-02  0.8297309E-01
         -1   -1    0    0    0  501 -0.00000000000E+00  0.00000000000E+00  0.11805082905E+04  0.11805082905E+04  0.00000000000E+00 0.  1.
          1   -1    0    0  501    0  0.00000000000E+00 -0.00000000000E+00 -0.16832379670E+04  0.16832379670E+04  0.00000000000E+00 0. -1.
         23    2    1    2    0    0 -0.13283262615E+04  0.40164605329E+03 -0.49414039185E+03  0.14759984473E+04  0.92878847082E+02 0.  0.
         11    1    3    3    0    0 -0.12713738089E+04  0.38153679838E+03 -0.45153910598E+03  0.14020874633E+04  0.00000000000E+00 0. -1.
        -11    1    3    3    0    0 -0.56952452665E+02  0.20109254903E+02 -0.42601285868E+02  0.73910983994E+02  0.00000000000E+00 0.  1.
         22    1    1    2    0    0  0.13283262615E+04 -0.40164605329E+03 -0.85892846079E+01  0.13877478103E+04  0.00000000000E+00 0.  1.
<mgrwt>
<rscale>  0 0.28192739E+04</rscale>
<asrwt>0</asrwt>
<pdfrwt beam="1">  1        1 0.25895969E+00 0.28192739E+04</pdfrwt>
<pdfrwt beam="2">  1       -1 0.18161666E+00 0.28192739E+04</pdfrwt>
<totfact> 0.85699883E-01</totfact>
</mgrwt>
</event>
<event>
 6    1  0.8968082E-007  0.1165251E+04  0.7818608E-02  0.9143828E-01
         -3   -1    0    0    0  501 -0.00000000000E+00  0.00000000000E+00  0.50900937613E+03  0.50900937613E+03  0.00000000000E+00 0.  1.
          3   -1    0    0  501    0  0.00000000000E+00 -0.00000000000E+00 -0.66688829970E+03  0.66688829970E+03  0.00000000000E+00 0. -1.
         23    2    1    2    0    0 -0.25060532790E+03 -0.44183781779E+03  0.20154465418E+03  0.55363648000E+03  0.88709733190E+02 0.  0.
         13    1    3    3    0    0 -0.86357213301E+02 -0.17294867737E+03  0.32352633337E+02  0.19599874024E+03  0.00000000000E+00 0. -1.
        -13    1    3    3    0    0 -0.16424811459E+03 -0.26888914042E+03  0.16919202084E+03  0.35763773976E+03  0.00000000000E+00 0.  1.
         22    1    1    2    0    0  0.25060532790E+03  0.44183781779E+03 -0.35942357775E+03  0.62226119583E+03  0.00000000000E+00 0. -1.
<mgrwt>
<rscale>  0 0.11652509E+04</rscale>
<asrwt>0</asrwt>
<pdfrwt beam="1">  1        3 0.10259820E+00 0.11652509E+04</pdfrwt>
<pdfrwt beam="2">  1       -3 0.78309135E-01 0.11652509E+04</pdfrwt>
<totfact> 0.32566949E+00</totfact>
</mgrwt>
</event>
<event>
 6    1  0.8968082E-007  0.1622842E+04  0.7818608E-02  0.8806637E-01
         -1   -1    0    0    0  501 -0.00000000000E+00  0.00000000000E+00  0.23212450858E+03  0.23212450858E+03  0.00000000000E+00 0.  1.
          1   -1    0    0  501    0  0.00000000000E+00 -0.00000000000E+00 -0.28364274822E+04  0.28364274822E+04  0.00000000000E+00 0. -1.
         23    2    1    2    0    0 -0.65878890329E+03 -0.23919426450E+03 -0.20705617555E+04  0.21875886526E+04  0.84269890629E+02 0.  0.
         11    1    3    3    0    0 -0.59814439015E+03 -0.19114229818E+03 -0.18138348692E+04  0.19194553973E+04  0.00000000000E+00 0. -1.
        -11    1    3    3    0    0 -0.60644513132E+02 -0.48051966328E+02 -0.25672688636E+03  0.26813325534E+03  0.00000000000E+00 0.  1.
         22    1    1    2    0    0  0.65878890329E+03  0.23919426450E+03 -0.53374121814E+03  0.88096333817E+03  0.00000000000E+00 0.  1.
<mgrwt>
<rscale>  0 0.16228424E+04</rscale>
<asrwt>0</asrwt>
<pdfrwt beam="1">  1        1 0.43637348E+00 0.16228424E+04</pdfrwt>
<pdfrwt beam="2">  1       -1 0.35711461E-01 0.16228424E+04</pdfrwt>
<totfact> 0.56464682E+00</totfact>
</mgrwt>
</event>
<event>
 6    1  0.8968082E-007  0.1131174E+04  0.7818608E-02  0.9175329E-01
          1   -1    0    0  501    0  0.00000000000E+00  0.00000000000E+00  0.95106979580E+03  0.95106979580E+03  0.00000000000E+00 0. -1.
         -1   -1    0    0    0  501 -0.00000000000E+00 -0.00000000000E+00 -0.33634642476E+03  0.33634642476E+03  0.00000000000E+00 0.  1.
         23    2    1    2    0    0  0.24377916712E+02 -0.54604282576E+03  0.16182006963E+03  0.57757225826E+03  0.92988860563E+02 0.  0.
         13    1    3    3    0    0  0.55137658554E+02 -0.43224764884E+03  0.11443712874E+03  0.45052641183E+03  0.00000000000E+00 0.  1.
        -13    1    3    3    0    0 -0.30759741842E+02 -0.11379517692E+03  0.47382940897E+02  0.12704584643E+03  0.00000000000E+00 0. -1.
         22    1    1    2    0    0 -0.24377916712E+02  0.54604282576E+03  0.45290330140E+03  0.70984396230E+03  0.00000000000E+00 0.  1.
<mgrwt>
<rscale>  0 0.11311745E+04</rscale>
<asrwt>0</asrwt>
<pdfrwt beam="1">  1        1 0.14631843E+00 0.11311745E+04</pdfrwt>
<pdfrwt beam="2">  1       -1 0.51745604E-01 0.11311745E+04</pdfrwt>
<totfact> 0.61816528E+01</totfact>
</mgrwt>
</event>
<event>
 6    1  0.8968082E-007  0.1299371E+04  0.7818608E-02  0.9030064E-01
         -2   -1    0    0    0  501 -0.00000000000E+00  0.00000000000E+00  0.31803877551E+03  0.31803877551E+03  0.00000000000E+00 0.  1.
          2   -1    0    0  501    0  0.00000000000E+00 -0.00000000000E+00 -0.13271693672E+04  0.13271693672E+04  0.00000000000E+00 0. -1.
         23    2    1    2    0    0 -0.98091981790E+02 -0.25131446650E+03  0.23645512469E+03  0.37074167597E+03  0.93580801168E+02 0.  0.
         11    1    3    3    0    0 -0.83919643778E+01 -0.43002553079E+02  0.91839766117E+02  0.10175552701E+03  0.00000000000E+00 0. -1.
        -11    1    3    3    0    0 -0.89700017412E+02 -0.20831191342E+03  0.14461535858E+03  0.26898614896E+03  0.00000000000E+00 0.  1.
         22    1    1    2    0    0  0.98091981790E+02  0.25131446650E+03 -0.12455857164E+04  0.12744664668E+04  0.00000000000E+00 0. -1.
<mgrwt>
<rscale>  0 0.12993711E+04</rscale>
<asrwt>0</asrwt>
<pdfrwt beam="1">  1        2 0.20417990E+00 0.12993711E+04</pdfrwt>
<pdfrwt beam="2">  1       -2 0.48929042E-01 0.12993711E+04</pdfrwt>
<totfact> 0.61778191E+01</totfact>
</mgrwt>
</event>
<event>
 6    1  0.8968082E-007  0.1358605E+04  0.7818608E-02  0.8984339E-01
         -2   -1    0    0    0  501 -0.00000000000E+00  0.00000000000E+00  0.27699056718E+03  0.27699056718E+03  0.00000000000E+00 0.  1.
          2   -1    0    0  501    0  0.00000000000E+00 -0.00000000000E+00 -0.16659489021E+04  0.16659489021E+04  0.00000000000E+00 0. -1.
         23    2    1    2    0    0  0.65281378981E+03  0.11154608682E+03 -0.89218222785E+03  0.11150536836E+04  0.93526551629E+02 0.  0.
         13    1    3    3    0    0  0.38798682007E+03  0.29830930150E+02 -0.56860471211E+03  0.68901014185E+03  0.00000000000E+00 0. -1.
        -13    1    3    3    0    0  0.26482696974E+03  0.81715156672E+02 -0.32357751574E+03  0.42604354170E+03  0.00000000000E+00 0.  1.
         22    1    1    2    0    0 -0.65281378981E+03 -0.11154608682E+03 -0.49677610708E+03  0.82788578573E+03  0.00000000000E+00 0. -1.
<mgrwt>
<rscale>  0 0.13586054E+04</rscale>
<asrwt>0</asrwt>
<pdfrwt beam="1">  1        2 0.25629983E+00 0.13586054E+04</pdfrwt>
<pdfrwt beam="2">  1       -2 0.42613933E-01 0.13586054E+04</pdfrwt>
<totfact> 0.52197605E+01</totfact>
</mgrwt>
</event>
<event>
 6    1  0.8968082E-007  0.1185379E+04  0.7818608E-02  0.9125752E-01
          1   -1    0    0  501    0  0.00000000000E+00  0.00000000000E+00  0.53042868760E+03  0.53042868760E+03  0.00000000000E+00 0. -1.
         -1   -1    0    0    0  501 -0.00000000000E+00 -0.00000000000E+00 -0.66225797231E+03  0.66225797231E+03  0.00000000000E+00 0.  1.
         23    2    1    2    0    0 -0.36735590409E+03  0.34714770891E+03  0.23843135394E+03  0.56614469595E+03  0.90600298757E+02 0.  0.
         13    1    3    3    0    0 -0.61335024546E+02  0.17963532058E+02  0.33776995396E+02  0.72288029009E+02  0.00000000000E+00 0. -1.
        -13    1    3    3    0    0 -0.30602087955E+03  0.32918417686E+03  0.20465435854E+03  0.49385666694E+03  0.00000000000E+00 0.  1.
         22    1    1    2    0    0  0.36735590409E+03 -0.34714770891E+03 -0.37026063865E+03  0.62654196396E+03  0.00000000000E+00 0.  1.
<mgrwt>
<rscale>  0 0.11853786E+04</rscale>
<asrwt>0</asrwt>
<pdfrwt beam="1">  1        1 0.81604414E-01 0.11853786E+04</pdfrwt>
<pdfrwt beam="2">  1       -1 0.10188584E+00 0.11853786E+04</pdfrwt>
<totfact> 0.36945399E+01</totfact>
</mgrwt>
</event>
<event>
 6    1  0.9444326E-007  0.2088652E+04  0.7818608E-02  0.8566259E-01
         -2   -1    0    0    0  501 -0.00000000000E+00  0.00000000000E+00  0.90761000066E+03  0.90761000066E+03  0.00000000000E+00 0.  1.
          2   -1    0    0  501    0  0.00000000000E+00 -0.00000000000E+00 -0.12016355321E+04  0.12016355321E+04  0.00000000000E+00 0. -1.
         23    2    1    2    0    0  0.95244791045E+03  0.42229168093E+03 -0.10314971370E+03  0.10500378743E+04  0.80326758048E+02 0.  0.
         13    1    3    3    0    0  0.25922717325E+03  0.84002762245E+02 -0.57947796895E+01  0.27255966482E+03  0.00000000000E+00 0.  1.
        -13    1    3    3    0    0  0.69322073721E+03  0.33828891868E+03 -0.97354934008E+02  0.77747820945E+03  0.00000000000E+00 0. -1.
         22    1    1    2    0    0 -0.95244791045E+03 -0.42229168093E+03 -0.19087581770E+03  0.10592076584E+04  0.00000000000E+00 0. -1.
<mgrwt>
<rscale>  0 0.20886516E+04</rscale>
<asrwt>0</asrwt>
<pdfrwt beam="1">  1        2 0.18486700E+00 0.20886516E+04</pdfrwt>
<pdfrwt beam="2">  1       -2 0.13963231E+00 0.20886516E+04</pdfrwt>
<totfact> 0.63044553E+00</totfact>
</mgrwt>
</event>
<event>
 6    1  0.8968082E-007  0.2185131E+04  0.7818608E-02  0.8524643E-01
         -2   -1    0    0    0  501 -0.00000000000E+00  0.00000000000E+00  0.67015682007E+03  0.67015682007E+03  0.00000000000E+00 0.  1.
          2   -1    0    0  501    0  0.00000000000E+00 -0.00000000000E+00 -0.17812235709E+04  0.17812235709E+04  0.00000000000E+00 0. -1.
         23    2    1    2    0    0 -0.65900207948E+03 -0.21839400104E+03  0.38761715924E+03  0.79970453211E+03  0.85443525721E+02 0.  0.
         11    1    3    3    0    0 -0.61860359163E+03 -0.22170065287E+03  0.37782033489E+03  0.75800381827E+03  0.00000000000E+00 0. -1.
        -11    1    3    3    0    0 -0.40398487853E+02  0.33066518264E+01  0.97968243425E+01  0.41700713835E+02  0.00000000000E+00 0.  1.
         22    1    1    2    0    0  0.65900207948E+03  0.21839400104E+03 -0.14986839101E+04  0.16516758589E+04  0.00000000000E+00 0. -1.
<mgrwt>
<rscale>  0 0.21851308E+04</rscale>
<asrwt>0</asrwt>
<pdfrwt beam="1">  1        2 0.27403440E+00 0.21851308E+04</pdfrwt>
<pdfrwt beam="2">  1       -2 0.10310105E+00 0.21851308E+04</pdfrwt>
<totfact> 0.62119560E+00</totfact>
</mgrwt>
</event>
<event>
 6    1  0.8968082E-007  0.2326647E+04  0.7818608E-02  0.8467488E-01
          1   -1    0    0  501    0  0.00000000000E+00  0.00000000000E+00  0.10565386623E+04  0.10565386623E+04  0.00000000000E+00 0. -1.
         -1   -1    0    0    0  501 -0.00000000000E+00 -0.00000000000E+00 -0.12809007102E+04  0.12809007102E+04  0.00000000000E+00 0.  1.
         23    2    1    2    0    0 -0.82366027601E+03  0.67579298766E+03  0.35238346027E+03  0.11259329574E+04  0.91861358291E+02 0.  0.
         11    1    3    3    0    0 -0.16650476680E+03  0.18587380354E+03  0.90102562065E+02  0.26531373862E+03  0.00000000000E+00 0.  1.
        -11    1    3    3    0    0 -0.65715550921E+03  0.48991918413E+03  0.26228089820E+03  0.86061921883E+03  0.00000000000E+00 0. -1.
         22    1    1    2    0    0  0.82366027601E+03 -0.67579298766E+03 -0.57674550825E+03  0.12115064151E+04  0.00000000000E+00 0.  1.
<mgrwt>
<rscale>  0 0.23266466E+04</rscale>
<asrwt>0</asrwt>
<pdfrwt beam="1">  1        1 0.16254441E+00 0.23266466E+04</pdfrwt>
<pdfrwt beam="2">  1       -1 0.19706165E+00 0.23266466E+04</pdfrwt>
<totfact> 0.19458338E+00</totfact>
</mgrwt>
</event>
<event>
 6    1  0.8968082E-007  0.2813598E+04  0.7818608E-02  0.8299059E-01
          2   -1    0    0  501    0  0.00000000000E+00  0.00000000000E+00  0.27412393330E+04  0.27412393330E+04  0.00000000000E+00 0. -1.
         -2   -1    0    0    0  501 -0.00000000000E+00 -0.00000000000E+00 -0.72196659620E+03  0.72196659620E+03  0.00000000000E+00 0.  1.
         23    2    1    2    0    0 -0.49394872142E+03 -0.98132281059E+03 -0.67766727149E+02  0.11046653800E+04  0.93345993769E+02 0.  0.
         11    1    3    3    0    0 -0.42402876325E+03 -0.75855183870E+03 -0.48125600157E+02  0.87035473081E+03  0.00000000000E+00 0. -1.
        -11    1    3    3    0    0 -0.69919958173E+02 -0.22277097189E+03 -0.19641126992E+02  0.23431064922E+03  0.00000000000E+00 0.  1.
         22    1    1    2    0    0  0.49394872142E+03  0.98132281059E+03  0.20870394639E+04  0.23585405492E+04  0.00000000000E+00 0. -1.
<mgrwt>
<rscale>  0 0.28135979E+04</rscale>
<asrwt>0</asrwt>
<pdfrwt beam="1">  1        2 0.42172912E+00 0.28135979E+04</pdfrwt>
<pdfrwt beam="2">  1       -2 0.11107179E+00 0.28135979E+04</pdfrwt>
<totfact> 0.13989520E+00</totfact>
</mgrwt>
</event>
<event>
 6    1  0.8968082E-007  0.1318906E+04  0.7818608E-02  0.9014705E-01
          1   -1    0    0  501    0  0.00000000000E+00  0.00000000000E+00  0.96256983020E+03  0.96256983020E+03  0.00000000000E+00 0. -1.
         -1   -1    0    0    0  501 -0.00000000000E+00 -0.00000000000E+00 -0.45178898784E+03  0.45178898784E+03  0.00000000000E+00 0.  1.
         23    2    1    2    0    0  0.55557151476E+03 -0.15099728421E+03 -0.80982684141E+02  0.58874149800E+03  0.92727927213E+02 0.  0.
         11    1    3    3    0    0  0.19166774410E+03 -0.64955630513E+02  0.14223483494E+02  0.20287450689E+03  0.00000000000E+00 0.  1.
        -11    1    3    3    0    0  0.36390377066E+03 -0.86041653696E+02 -0.95206167635E+02  0.38586699111E+03  0.00000000000E+00 0. -1.
         22    1    1    2    0    0 -0.55557151476E+03  0.15099728421E+03  0.59176352650E+03  0.82561732004E+03  0.00000000000E+00 0. -1.
<mgrwt>
<rscale>  0 0.13189063E+04</rscale>
<asrwt>0</asrwt>
<pdfrwt beam="1">  1        1 0.14808767E+00 0.13189063E+04</pdfrwt>
<pdfrwt beam="2">  1       -1 0.69505999E-01 0.13189063E+04</pdfrwt>
<totfact> 0.33273122E+01</totfact>
</mgrwt>
</event>
<event>
 6    1  0.8968082E-007  0.1743448E+04  0.7818608E-02  0.8736965E-01
         -1   -1    0    0    0  501 -0.00000000000E+00  0.00000000000E+00  0.17230097298E+04  0.17230097298E+04  0.00000000000E+00 0.  1.
          1   -1    0    0  501    0  0.00000000000E+00 -0.00000000000E+00 -0.44103226533E+03  0.44103226533E+03  0.00000000000E+00 0. -1.
         23    2    1    2    0    0  0.39307004344E+03  0.63220331985E+03  0.12000543833E+04  0.14151117661E+04  0.90695595323E+02 0.  0.
         13    1    3    3    0    0  0.12262011773E+03  0.28011754646E+03  0.50524167645E+03  0.59056810338E+03  0.00000000000E+00 0. -1.
        -13    1    3    3    0    0  0.27044992571E+03  0.35208577339E+03  0.69481270686E+03  0.82454366274E+03  0.00000000000E+00 0.  1.
         22    1    1    2    0    0 -0.39307004344E+03 -0.63220331985E+03  0.81923081150E+02  0.74893022900E+03  0.00000000000E+00 0. -1.
<mgrwt>
<rscale>  0 0.17434482E+04</rscale>
<asrwt>0</asrwt>
<pdfrwt beam="1">  1        1 0.67851118E-01 0.17434482E+04</pdfrwt>
<pdfrwt beam="2">  1       -1 0.26507842E+00 0.17434482E+04</pdfrwt>
<totfact> 0.27758606E+00</totfact>
</mgrwt>
</event>
<event>
 6    1  0.8968082E-007  0.4280657E+04  0.7818608E-02  0.7950205E-01
          2   -1    0    0  501    0  0.00000000000E+00  0.00000000000E+00  0.17800060810E+04  0.17800060810E+04  0.00000000000E+00 0. -1.
         -2   -1    0    0    0  501 -0.00000000000E+00 -0.00000000000E+00 -0.25735899433E+04  0.25735899433E+04  0.00000000000E+00 0.  1.
         23    2    1    2    0    0 -0.63365084756E+03 -0.19802976771E+04  0.11544832520E+03  0.20843600727E+04  0.90201498825E+02 0.  0.
         11    1    3    3    0    0 -0.42459009396E+03 -0.14305295941E+04  0.10838523972E+03  0.14961413796E+04  0.00000000000E+00 0. -1.
        -11    1    3    3    0    0 -0.20906075360E+03 -0.54976808297E+03  0.70630854783E+01  0.58821869311E+03  0.00000000000E+00 0.  1.
         22    1    1    2    0    0  0.63365084756E+03  0.19802976771E+04 -0.90903218748E+03  0.22692359517E+04  0.00000000000E+00 0.  1.
<mgrwt>
<rscale>  0 0.42806568E+04</rscale>
<asrwt>0</asrwt>
<pdfrwt beam="1">  1        2 0.27384709E+00 0.42806568E+04</pdfrwt>
<pdfrwt beam="2">  1       -2 0.39593692E+00 0.42806568E+04</pdfrwt>
<totfact> 0.53859176E-02</totfact>
</mgrwt>
</event>
<event>
 6    1  0.8968082E-007  0.2165249E+04  0.7818608E-02  0.8533033E-01
         -1   -1    0    0    0  501 -0.00000000000E+00  0.00000000000E+00  0.92036094676E+03  0.92036094676E+03  0.00000000000E+00 0.  1.
          1   -1    0    0  501    0  0.00000000000E+00 -0.00000000000E+00 -0.12734959738E+04  0.12734959738E+04  0.00000000000E+00 0. -1.
         23    2    1    2    0    0  0.85526622082E+02  0.82500244394E+03 -0.87891447590E+03  0.12118244035E+04  0.89910474480E+02 0.  0.
         13    1    3    3    0    0  0.38474134839E+02  0.20940229864E+03 -0.27910889237E+03  0.35104323883E+03  0.00000000000E+00 0. -1.
        -13    1    3    3    0    0  0.47052487243E+02  0.61560014530E+03 -0.59980558353E+03  0.86078116469E+03  0.00000000000E+00 0.  1.
         22    1    1    2    0    0 -0.85526622082E+02 -0.82500244394E+03  0.52577944890E+03  0.98203251701E+03  0.00000000000E+00 0.  1.
<mgrwt>
<rscale>  0 0.21652491E+04</rscale>
<asrwt>0</asrwt>
<pdfrwt beam="1">  1        1 0.19592246E+00 0.21652491E+04</pdfrwt>
<pdfrwt beam="2">  1       -1 0.14159399E+00 0.21652491E+04</pdfrwt>
<totfact> 0.35167350E+00</totfact>
</mgrwt>
</event>
<event>
 6    1  0.1038085E-006  0.2543521E+04  0.7818608E-02  0.8387643E-01
          1   -1    0    0  501    0  0.00000000000E+00  0.00000000000E+00  0.17606487267E+04  0.17606487267E+04  0.00000000000E+00 0. -1.
         -1   -1    0    0    0  501 -0.00000000000E+00 -0.00000000000E+00 -0.91862408461E+03  0.91862408461E+03  0.00000000000E+00 0.  1.
         23    2    1    2    0    0 -0.20409863956E+03  0.30187746248E+03 -0.86009118755E+03  0.93858772935E+03  0.91672339214E+02 0.  0.
         13    1    3    3    0    0 -0.51248009791E+02  0.10778407076E+03 -0.38537869373E+03  0.40343587099E+03  0.00000000000E+00 0. -1.
        -13    1    3    3    0    0 -0.15285062976E+03  0.19409339172E+03 -0.47471249381E+03  0.53515185837E+03  0.00000000000E+00 0.  1.
         22    1    1    2    0    0  0.20409863956E+03 -0.30187746248E+03  0.17021158297E+04  0.17406850820E+04  0.00000000000E+00 0. -1.
<mgrwt>
<rscale>  0 0.25435207E+04</rscale>
<asrwt>0</asrwt>
<pdfrwt beam="1">  1        1 0.27086903E+00 0.25435207E+04</pdfrwt>
<pdfrwt beam="2">  1       -1 0.14132678E+00 0.25435207E+04</pdfrwt>
<totfact> 0.15681423E+00</totfact>
</mgrwt>
</event>
<event>
 6    1  0.8968082E-007  0.2145212E+04  0.7818608E-02  0.8541585E-01
          1   -1    0    0  501    0  0.00000000000E+00  0.00000000000E+00  0.24552111872E+04  0.24552111872E+04  0.00000000000E+00 0. -1.
         -1   -1    0    0    0  501 -0.00000000000E+00 -0.00000000000E+00 -0.46858842547E+03  0.46858842547E+03  0.00000000000E+00 0.  1.
         23    2    1    2    0    0 -0.49172450505E+03 -0.86940619080E+03  0.46946900230E+03  0.11073702463E+04  0.90595831539E+02 0.  0.
         13    1    3    3    0    0 -0.43771101045E+03 -0.75580821322E+03  0.37722316732E+03  0.95138546437E+03  0.00000000000E+00 0. -1.
        -13    1    3    3    0    0 -0.54013494601E+02 -0.11359797758E+03  0.92245834978E+02  0.15598478189E+03  0.00000000000E+00 0.  1.
         22    1    1    2    0    0  0.49172450505E+03  0.86940619080E+03  0.15171537595E+04  0.18164293665E+04  0.00000000000E+00 0. -1.
<mgrwt>
<rscale>  0 0.21452119E+04</rscale>
<asrwt>0</asrwt>
<pdfrwt beam="1">  1        1 0.37772479E+00 0.21452119E+04</pdfrwt>
<pdfrwt beam="2">  1       -1 0.72090528E-01 0.21452119E+04</pdfrwt>
<totfact> 0.25883899E+00</totfact>
</mgrwt>
</event>
<event>
 6    1  0.8968082E-007  0.3431272E+04  0.7818608E-02  0.8130274E-01
          1   -1    0    0  501    0  0.00000000000E+00  0.00000000000E+00  0.13704455092E+04  0.13704455092E+04  0.00000000000E+00 0. -1.
         -1   -1    0    0    0  501 -0.00000000000E+00 -0.00000000000E+00 -0.21477733168E+04  0.21477733168E+04  0.00000000000E+00 0.  1.
         23    2    1    2    0    0  0.63624338284E+03 -0.14409604516E+04  0.30506664016E+03  0.16070018300E+04  0.90645249314E+02 0.  0.
         13    1    3    3    0    0  0.95576057563E+02 -0.23499276408E+03  0.82563302730E+02  0.26678283473E+03  0.00000000000E+00 0. -1.
        -13    1    3    3    0    0  0.54066732527E+03 -0.12059676876E+04  0.22250333743E+03  0.13402189952E+04  0.00000000000E+00 0.  1.
         22    1    1    2    0    0 -0.63624338284E+03  0.14409604516E+04 -0.10823944478E+04  0.19112169961E+04  0.00000000000E+00 0.  1.
<mgrwt>
<rscale>  0 0.34312717E+04</rscale>
<asrwt>0</asrwt>
<pdfrwt beam="1">  1        1 0.21083777E+00 0.34312717E+04</pdfrwt>
<pdfrwt beam="2">  1       -1 0.33042666E+00 0.34312717E+04</pdfrwt>
<totfact> 0.13829399E-01</totfact>
</mgrwt>
</event>
<event>
 6    1  0.8968082E-007  0.3984474E+04  0.7818608E-02  0.8007686E-01
          1   -1    0    0  501    0  0.00000000000E+00  0.00000000000E+00  0.25324140879E+04  0.25324140879E+04  0.00000000000E+00 0. -1.
         -1   -1    0    0    0  501 -0.00000000000E+00 -0.00000000000E+00 -0.15672825051E+04  0.15672825051E+04  0.00000000000E+00 0.  1.
         23    2    1    2    0    0 -0.10098610947E+04 -0.12963130949E+04  0.16397971554E+04  0.23233462037E+04  0.93572436875E+02 0.  0.
         13    1    3    3    0    0 -0.77028118160E+03 -0.98644386508E+03  0.13038261978E+04  0.18073094234E+04  0.00000000000E+00 0.  1.
        -13    1    3    3    0    0 -0.23957991308E+03 -0.30986922980E+03  0.33597095757E+03  0.51603678033E+03  0.00000000000E+00 0. -1.
         22    1    1    2    0    0  0.10098610947E+04  0.12963130949E+04 -0.67466557256E+03  0.17763503892E+04  0.00000000000E+00 0.  1.
<mgrwt>
<rscale>  0 0.39844740E+04</rscale>
<asrwt>0</asrwt>
<pdfrwt beam="1">  1        1 0.38960217E+00 0.39844740E+04</pdfrwt>
<pdfrwt beam="2">  1       -1 0.24112039E+00 0.39844740E+04</pdfrwt>
<totfact> 0.80343616E-02</totfact>
</mgrwt>
</event>
<event>
 6    1  0.8968082E-007  0.3899354E+04  0.7818608E-02  0.8025164E-01
          1   -1    0    0  501    0  0.00000000000E+00  0.00000000000E+00  0.14385030758E+04  0.14385030758E+04  0.00000000000E+00 0. -1.
         -1   -1    0    0    0  501 -0.00000000000E+00 -0.00000000000E+00 -0.26424973417E+04  0.26424973417E+04  0.00000000000E+00 0.  1.
         23    2    1    2    0    0  0.11285785606E+04  0.10858830391E+04  0.61110736332E+03  0.16836215433E+04  0.91091984325E+02 0.  0.
         13    1    3    3    0    0  0.61977515472E+03  0.54306010056E+03  0.29494359511E+03  0.87522982098E+03  0.00000000000E+00 0. -1.
        -13    1    3    3    0    0  0.50880340585E+03  0.54282293853E+03  0.31616376821E+03  0.80839172233E+03  0.00000000000E+00 0.  1.
         22    1    1    2    0    0 -0.11285785606E+04 -0.10858830391E+04 -0.18151016292E+04  0.23973788742E+04  0.00000000000E+00 0.  1.
<mgrwt>
<rscale>  0 0.38993541E+04</rscale>
<asrwt>0</asrwt>
<pdfrwt beam="1">  1        1 0.22130817E+00 0.38993541E+04</pdfrwt>
<pdfrwt beam="2">  1       -1 0.40653805E+00 0.38993541E+04</pdfrwt>
<totfact> 0.36736009E-02</totfact>
</mgrwt>
</event>
<event>
 6    1  0.8968082E-007  0.4695030E+04  0.7818608E-02  0.7877355E-01
         -2   -1    0    0    0  501 -0.00000000000E+00  0.00000000000E+00  0.12543199385E+04  0.12543199385E+04  0.00000000000E+00 0.  1.
          2   -1    0    0  501    0  0.00000000000E+00 -0.00000000000E+00 -0.43934782093E+04  0.43934782093E+04  0.00000000000E+00 0. -1.
         23    2    1    2    0    0  0.12941391205E+03  0.12706580367E+04 -0.39382796176E+04  0.41411745273E+04  0.89220584839E+02 0.  0.
         11    1    3    3    0    0  0.88119405456E+02  0.72042640347E+03 -0.21013496715E+04  0.22231620891E+04  0.00000000000E+00 0. -1.
        -11    1    3    3    0    0  0.41294506597E+02  0.55023163320E+03 -0.18369299461E+04  0.19180124382E+04  0.00000000000E+00 0.  1.
         22    1    1    2    0    0 -0.12941391205E+03 -0.12706580367E+04  0.79912134674E+03  0.15066236204E+04  0.00000000000E+00 0.  1.
<mgrwt>
<rscale>  0 0.46950303E+04</rscale>
<asrwt>0</asrwt>
<pdfrwt beam="1">  1        2 0.67591972E+00 0.46950303E+04</pdfrwt>
<pdfrwt beam="2">  1       -2 0.19297230E+00 0.46950303E+04</pdfrwt>
<totfact> 0.17053384E-02</totfact>
</mgrwt>
</event>
<event>
 6    1  0.8968082E-007  0.1400727E+04  0.7818608E-02  0.8953293E-01
          2   -1    0    0  501    0  0.00000000000E+00  0.00000000000E+00  0.12845055397E+04  0.12845055397E+04  0.00000000000E+00 0. -1.
         -2   -1    0    0    0  501 -0.00000000000E+00 -0.00000000000E+00 -0.38186589543E+03  0.38186589543E+03  0.00000000000E+00 0.  1.
         23    2    1    2    0    0 -0.36435542686E+03  0.28021236369E+03  0.10769646251E+04  0.11747790788E+04  0.94758821450E+02 0.  0.
         11    1    3    3    0    0 -0.26812883194E+03  0.16606097185E+03  0.80411032875E+03  0.86374923310E+03  0.00000000000E+00 0.  1.
        -11    1    3    3    0    0 -0.96226594919E+02  0.11415139184E+03  0.27285429640E+03  0.31102984566E+03  0.00000000000E+00 0. -1.
         22    1    1    2    0    0  0.36435542686E+03 -0.28021236369E+03 -0.17432498090E+03  0.49159235634E+03  0.00000000000E+00 0.  1.
<mgrwt>
<rscale>  0 0.14007268E+04</rscale>
<asrwt>0</asrwt>
<pdfrwt beam="1">  1        2 0.19761623E+00 0.14007268E+04</pdfrwt>
<pdfrwt beam="2">  1       -2 0.58748600E-01 0.14007268E+04</pdfrwt>
<totfact> 0.44483240E+01</totfact>
</mgrwt>
</event>
<event>
 6    1  0.8968082E-007  0.2880884E+04  0.7818608E-02  0.8278588E-01
         -2   -1    0    0    0  501 -0.00000000000E+00  0.00000000000E+00  0.15448127763E+04  0.15448127763E+04  0.00000000000E+00 0.  1.
          2   -1    0    0  501    0  0.00000000000E+00 -0.00000000000E+00 -0.13431228433E+04  0.13431228433E+04  0.00000000000E+00 0. -1.
         23    2    1    2    0    0 -0.50928142401E+03 -0.41386205971E+03 -0.11827485172E+04  0.13558392794E+04  0.93577364723E+02 0.  0.
         11    1    3    3    0    0 -0.20393184364E+03 -0.11405200008E+03 -0.37799777396E+03  0.44438538758E+03  0.00000000000E+00 0. -1.
        -11    1    3    3    0    0 -0.30534958036E+03 -0.29981005964E+03 -0.80475074327E+03  0.91145389180E+03  0.00000000000E+00 0.  1.
         22    1    1    2    0    0  0.50928142401E+03  0.41386205971E+03  0.13844384502E+04  0.15320963403E+04  0.00000000000E+00 0.  1.
<mgrwt>
<rscale>  0 0.28808841E+04</rscale>
<asrwt>0</asrwt>
<pdfrwt beam="1">  1        2 0.20663428E+00 0.28808841E+04</pdfrwt>
<pdfrwt beam="2">  1       -2 0.23766350E+00 0.28808841E+04</pdfrwt>
<totfact> 0.10330965E+00</totfact>
</mgrwt>
</event>
<event>
 6    1  0.8968082E-007  0.2130896E+04  0.7818608E-02  0.8547754E-01
         -1   -1    0    0    0  501 -0.00000000000E+00  0.00000000000E+00  0.61975115724E+03  0.61975115724E+03  0.00000000000E+00 0.  1.
          1   -1    0    0  501    0  0.00000000000E+00 -0.00000000000E+00 -0.18316699883E+04  0.18316699883E+04  0.00000000000E+00 0. -1.
         23    2    1    2    0    0 -0.84522230847E+03 -0.46853388690E+03 -0.11180255488E+04  0.14804727935E+04  0.88847119761E+02 0.  0.
         13    1    3    3    0    0 -0.39360815255E+03 -0.26559253644E+03 -0.52303579593E+03  0.70642283159E+03  0.00000000000E+00 0. -1.
        -13    1    3    3    0    0 -0.45161415592E+03 -0.20294135046E+03 -0.59498975283E+03  0.77404996191E+03  0.00000000000E+00 0.  1.
         22    1    1    2    0    0  0.84522230847E+03  0.46853388690E+03 -0.93893282322E+02  0.97094835206E+03  0.00000000000E+00 0.  1.
<mgrwt>
<rscale>  0 0.21308961E+04</rscale>
<asrwt>0</asrwt>
<pdfrwt beam="1">  1        1 0.28179538E+00 0.21308961E+04</pdfrwt>
<pdfrwt beam="2">  1       -1 0.95346334E-01 0.21308961E+04</pdfrwt>
<totfact> 0.37761045E+00</totfact>
</mgrwt>
</event>
<event>
 6    1  0.8968082E-007  0.2132009E+04  0.7818608E-02  0.8547273E-01
         -1   -1    0    0    0  501 -0.00000000000E+00  0.00000000000E+00  0.39603388698E+03  0.39603388698E+03  0.00000000000E+00 0.  1.
          1   -1    0    0  501    0  0.00000000000E+00 -0.00000000000E+00 -0.28693650719E+04  0.28693650719E+04  0.00000000000E+00 0. -1.
         23    2    1    2    0    0 -0.34558418164E+03  0.19193116283E+03 -0.27520017158E+04  0.27817428179E+04  0.91179294573E+02 0.  0.
         11    1    3    3    0    0 -0.15608073945E+03  0.11104316463E+03 -0.10516433941E+04  0.10689460276E+04  0.00000000000E+00 0. -1.
        -11    1    3    3    0    0 -0.18950344220E+03  0.80887998207E+02 -0.17003583216E+04  0.17127967903E+04  0.00000000000E+00 0.  1.
         22    1    1    2    0    0  0.34558418164E+03 -0.19193116283E+03  0.27867053087E+03  0.48365614091E+03  0.00000000000E+00 0.  1.
<mgrwt>
<rscale>  0 0.21320092E+04</rscale>
<asrwt>0</asrwt>
<pdfrwt beam="1">  1        1 0.44144078E+00 0.21320092E+04</pdfrwt>
<pdfrwt beam="2">  1       -1 0.60928290E-01 0.21320092E+04</pdfrwt>
<totfact> 0.18640049E+00</totfact>
</mgrwt>
</event>
<event>
 6    1  0.8968082E-007  0.3088163E+04  0.7818608E-02  0.8218994E-01
         -1   -1    0    0    0  501 -0.00000000000E+00  0.00000000000E+00  0.94913799991E+03  0.94913799991E+03  0.00000000000E+00 0.  1.
          1   -1    0    0  501    0  0.00000000000E+00 -0.00000000000E+00 -0.25119507760E+04  0.25119507760E+04  0.00000000000E+00 0. -1.
         23    2    1    2    0    0  0.13639007471E+04  0.25631845820E+03 -0.15373196801E+04  0.20730778617E+04  0.91518423925E+02 0.  0.
         13    1    3    3    0    0  0.45883236184E+03  0.12985598402E+03 -0.51683559301E+03  0.70321315620E+03  0.00000000000E+00 0.  1.
        -13    1    3    3    0    0  0.90506838523E+03  0.12646247418E+03 -0.10204840871E+04  0.13698647055E+04  0.00000000000E+00 0. -1.
         22    1    1    2    0    0 -0.13639007471E+04 -0.25631845820E+03 -0.25493095893E+02  0.13880109141E+04  0.00000000000E+00 0. -1.
<mgrwt>
<rscale>  0 0.30881632E+04</rscale>
<asrwt>0</asrwt>
<pdfrwt beam="1">  1        1 0.38645396E+00 0.30881632E+04</pdfrwt>
<pdfrwt beam="2">  1       -1 0.14602123E+00 0.30881632E+04</pdfrwt>
<totfact> 0.42083827E-01</totfact>
</mgrwt>
</event>
<event>
 6    1  0.8968082E-007  0.2058293E+04  0.7818608E-02  0.8579841E-01
          2   -1    0    0  501    0  0.00000000000E+00  0.00000000000E+00  0.11248770476E+04  0.11248770476E+04  0.00000000000E+00 0. -1.
         -2   -1    0    0    0  501 -0.00000000000E+00 -0.00000000000E+00 -0.94156336301E+03  0.94156336301E+03  0.00000000000E+00 0.  1.
         23    2    1    2    0    0 -0.23666506189E+03 -0.98691908061E+03 -0.66225514764E+02  0.10213138943E+04  0.93148422596E+02 0.  0.
         11    1    3    3    0    0 -0.81301573713E+02 -0.42314632478E+03  0.13610659021E+02  0.43110092566E+03  0.00000000000E+00 0.  1.
        -11    1    3    3    0    0 -0.15536348818E+03 -0.56377275582E+03 -0.79836173785E+02  0.59021296861E+03  0.00000000000E+00 0. -1.
         22    1    1    2    0    0  0.23666506189E+03  0.98691908061E+03  0.24953919939E+03  0.10451265164E+04  0.00000000000E+00 0. -1.
<mgrwt>
<rscale>  0 0.20582935E+04</rscale>
<asrwt>0</asrwt>
<pdfrwt beam="1">  1        2 0.17305801E+00 0.20582935E+04</pdfrwt>
<pdfrwt beam="2">  1       -2 0.14485590E+00 0.20582935E+04</pdfrwt>
<totfact> 0.63894804E+00</totfact>
</mgrwt>
</event>
<event>
 6    1  0.8968082E-007  0.1685163E+04  0.7818608E-02  0.8769872E-01
          1   -1    0    0  501    0  0.00000000000E+00  0.00000000000E+00  0.13919930798E+04  0.13919930798E+04  0.00000000000E+00 0. -1.
         -1   -1    0    0    0  501 -0.00000000000E+00 -0.00000000000E+00 -0.51001964733E+03  0.51001964733E+03  0.00000000000E+00 0.  1.
         23    2    1    2    0    0  0.16683968190E+03  0.80980108338E+03  0.61020458775E+03  0.10316842954E+04  0.91703720377E+02 0.  0.
         13    1    3    3    0    0  0.94653742049E+02  0.27772975453E+03  0.24572234656E+03  0.38271741407E+03  0.00000000000E+00 0.  1.
        -13    1    3    3    0    0  0.72185939856E+02  0.53207132886E+03  0.36448224119E+03  0.64896688132E+03  0.00000000000E+00 0. -1.
         22    1    1    2    0    0 -0.16683968190E+03 -0.80980108338E+03  0.27176884468E+03  0.87032843171E+03  0.00000000000E+00 0.  1.
<mgrwt>
<rscale>  0 0.16851633E+04</rscale>
<asrwt>0</asrwt>
<pdfrwt beam="1">  1        1 0.21415278E+00 0.16851633E+04</pdfrwt>
<pdfrwt beam="2">  1       -1 0.78464561E-01 0.16851633E+04</pdfrwt>
<totfact> 0.12054602E+01</totfact>
</mgrwt>
</event>
<event>
 6    1  0.8968082E-007  0.1000913E+04  0.7818608E-02  0.9307544E-01
         -2   -1    0    0    0  501 -0.00000000000E+00  0.00000000000E+00  0.10895902302E+03  0.10895902302E+03  0.00000000000E+00 0.  1.
          2   -1    0    0  501    0  0.00000000000E+00 -0.00000000000E+00 -0.22986314054E+04  0.22986314054E+04  0.00000000000E+00 0. -1.
         23    2    1    2    0    0 -0.45378137583E+03  0.70207957573E+02 -0.65019664585E+03  0.80109354461E+03  0.90269012305E+02 0.  0.
         11    1    3    3    0    0 -0.18740012125E+03 -0.11659055590E+02 -0.23040769828E+03  0.29722457242E+03  0.00000000000E+00 0. -1.
        -11    1    3    3    0    0 -0.26638125458E+03  0.81867013163E+02 -0.41978894756E+03  0.50386897219E+03  0.00000000000E+00 0.  1.
         22    1    1    2    0    0  0.45378137583E+03 -0.70207957573E+02 -0.15394757366E+04  0.16064968838E+04  0.00000000000E+00 0.  1.
<mgrwt>
<rscale>  0 0.10009128E+04</rscale>
<asrwt>0</asrwt>
<pdfrwt beam="1">  1        2 0.35363559E+00 0.10009128E+04</pdfrwt>
<pdfrwt beam="2">  1       -2 0.16762927E-01 0.10009128E+04</pdfrwt>
<totfact> 0.13283304E+02</totfact>
</mgrwt>
</event>
<event>
 6    1  0.8968082E-007  0.3219638E+04  0.7818608E-02  0.8183650E-01
          1   -1    0    0  501    0  0.00000000000E+00  0.00000000000E+00  0.14024163858E+04  0.14024163858E+04  0.00000000000E+00 0. -1.
         -1   -1    0    0    0  501 -0.00000000000E+00 -0.00000000000E+00 -0.18478941814E+04  0.18478941814E+04  0.00000000000E+00 0.  1.
         23    2    1    2    0    0 -0.37685587041E+03 -0.91244389910E+03 -0.15050332584E+04  0.18021282600E+04  0.89257720102E+02 0.  0.
         11    1    3    3    0    0 -0.21351207627E+03 -0.52898494031E+03 -0.94841617623E+03  0.11067545876E+04  0.00000000000E+00 0. -1.
        -11    1    3    3    0    0 -0.16334379414E+03 -0.38345895879E+03 -0.55661708216E+03  0.69537367243E+03  0.00000000000E+00 0.  1.
         22    1    1    2    0    0  0.37685587041E+03  0.91244389910E+03  0.10595554628E+04  0.14481823072E+04  0.00000000000E+00 0. -1.
<mgrwt>
<rscale>  0 0.32196379E+04</rscale>
<asrwt>0</asrwt>
<pdfrwt beam="1">  1        1 0.21575637E+00 0.32196379E+04</pdfrwt>
<pdfrwt beam="2">  1       -1 0.28429141E+00 0.32196379E+04</pdfrwt>
<totfact> 0.26683713E-01</totfact>
</mgrwt>
</event>
<event>
 6    1  0.8968082E-007  0.3152697E+04  0.7818608E-02  0.8201423E-01
          1   -1    0    0  501    0  0.00000000000E+00  0.00000000000E+00  0.21845383159E+04  0.21845383159E+04  0.00000000000E+00 0. -1.
         -1   -1    0    0    0  501 -0.00000000000E+00 -0.00000000000E+00 -0.11374824693E+04  0.11374824693E+04  0.00000000000E+00 0.  1.
         23    2    1    2    0    0  0.96376963521E+03  0.43502429081E+02 -0.78791968459E+03  0.12488879938E+04  0.90329510819E+02 0.  0.
         11    1    3    3    0    0  0.21274519649E+02  0.15017468438E+02 -0.20591400798E+02  0.33198423628E+02  0.00000000000E+00 0. -1.
        -11    1    3    3    0    0  0.94249511556E+03  0.28484960643E+02 -0.76732828379E+03  0.12156895701E+04  0.00000000000E+00 0.  1.
         22    1    1    2    0    0 -0.96376963521E+03 -0.43502429081E+02  0.18349755312E+04  0.20731327915E+04  0.00000000000E+00 0. -1.
<mgrwt>
<rscale>  0 0.31526966E+04</rscale>
<asrwt>0</asrwt>
<pdfrwt beam="1">  1        1 0.33608282E+00 0.31526966E+04</pdfrwt>
<pdfrwt beam="2">  1       -1 0.17499730E+00 0.31526966E+04</pdfrwt>
<totfact> 0.42409839E-01</totfact>
</mgrwt>
</event>
<event>
 6    1  0.8968082E-007  0.6039332E+04  0.7818608E-02  0.7685544E-01
          2   -1    0    0  501    0  0.00000000000E+00  0.00000000000E+00  0.25067980052E+04  0.25067980052E+04  0.00000000000E+00 0. -1.
         -2   -1    0    0    0  501 -0.00000000000E+00 -0.00000000000E+00 -0.36374623355E+04  0.36374623355E+04  0.00000000000E+00 0.  1.
         23    2    1    2    0    0  0.23108459943E+04  0.18641711084E+04 -0.11219764988E+04  0.31752169579E+04  0.89600977007E+02 0.  0.
         13    1    3    3    0    0  0.37288748887E+03  0.30417261844E+03 -0.21738870494E+03  0.52803779240E+03  0.00000000000E+00 0.  1.
        -13    1    3    3    0    0  0.19379585055E+04  0.15599984899E+04 -0.90458779388E+03  0.26471791655E+04  0.00000000000E+00 0. -1.
         22    1    1    2    0    0 -0.23108459943E+04 -0.18641711084E+04 -0.86878314427E+01  0.29690433828E+04  0.00000000000E+00 0.  1.
<mgrwt>
<rscale>  0 0.60393322E+04</rscale>
<asrwt>0</asrwt>
<pdfrwt beam="1">  1        2 0.38566123E+00 0.60393322E+04</pdfrwt>
<pdfrwt beam="2">  1       -2 0.55960959E+00 0.60393322E+04</pdfrwt>
<totfact> 0.18030264E-03</totfact>
</mgrwt>
</event>
<event>
 6    1  0.8968082E-007  0.2445759E+04  0.7818608E-02  0.8422568E-01
         -1   -1    0    0    0  501 -0.00000000000E+00  0.00000000000E+00  0.13362218069E+04  0.13362218069E+04  0.00000000000E+00 0.  1.
          1   -1    0    0  501    0  0.00000000000E+00 -0.00000000000E+00 -0.11191513312E+04  0.11191513312E+04  0.00000000000E+00 0. -1.
         23    2    1    2    0    0 -0.17994749271E+03  0.41728562835E+03  0.12465759277E+04  0.13300332466E+04  0.92349865374E+02 0.  0.
         11    1    3    3    0    0 -0.83165838487E+02  0.10093031310E+03  0.41282370290E+03  0.43304375584E+03  0.00000000000E+00 0. -1.
        -11    1    3    3    0    0 -0.96781654224E+02  0.31635531525E+03  0.83375222483E+03  0.89698949073E+03  0.00000000000E+00 0.  1.
         22    1    1    2    0    0  0.17994749271E+03 -0.41728562835E+03 -0.10295054520E+04  0.11253398915E+04  0.00000000000E+00 0. -1.
<mgrwt>
<rscale>  0 0.24457591E+04</rscale>
<asrwt>0</asrwt>
<pdfrwt beam="1">  1        1 0.17217713E+00 0.24457591E+04</pdfrwt>
<pdfrwt beam="2">  1       -1 0.20557259E+00 0.24457591E+04</pdfrwt>
<totfact> 0.15086580E+00</totfact>
</mgrwt>
</event>
<event>
 6    1  0.8968082E-007  0.3688072E+04  0.7818608E-02  0.8070610E-01
          2   -1    0    0  501    0  0.00000000000E+00  0.00000000000E+00  0.28285829921E+04  0.28285829921E+04  0.00000000000E+00 0. -1.
         -2   -1    0    0    0  501 -0.00000000000E+00 -0.00000000000E+00 -0.12021808338E+04  0.12021808338E+04  0.00000000000E+00 0.  1.
         23    2    1    2    0    0  0.80218312550E+03 -0.15683064650E+04  0.22186056587E+03  0.17778057659E+04  0.91040075661E+02 0.  0.
         11    1    3    3    0    0  0.45094999967E+03 -0.81519414311E+03  0.15143333202E+03  0.94383761697E+03  0.00000000000E+00 0.  1.
        -11    1    3    3    0    0  0.35123312583E+03 -0.75311232192E+03  0.70427233847E+02  0.83396814890E+03  0.00000000000E+00 0. -1.
         22    1    1    2    0    0 -0.80218312550E+03  0.15683064650E+04  0.14045415924E+04  0.22529580600E+04  0.00000000000E+00 0.  1.
<mgrwt>
<rscale>  0 0.36880717E+04</rscale>
<asrwt>0</asrwt>
<pdfrwt beam="1">  1        2 0.43516661E+00 0.36880717E+04</pdfrwt>
<pdfrwt beam="2">  1       -2 0.18495090E+00 0.36880717E+04</pdfrwt>
<totfact> 0.30134998E-01</totfact>
</mgrwt>
</event>
<event>
 6    1  0.8968082E-007  0.2071364E+04  0.7818608E-02  0.8573964E-01
          1   -1    0    0  501    0  0.00000000000E+00  0.00000000000E+00  0.11158898892E+04  0.11158898892E+04  0.00000000000E+00 0. -1.
         -1   -1    0    0    0  501 -0.00000000000E+00 -0.00000000000E+00 -0.96123932296E+03  0.96123932296E+03  0.00000000000E+00 0.  1.
         23    2    1    2    0    0 -0.46305634814E+03  0.24998259425E+03 -0.81464289119E+03  0.97420478791E+03  0.92300864784E+02 0.  0.
         13    1    3    3    0    0 -0.31176674658E+03  0.15412026104E+03 -0.61067087034E+03  0.70275918423E+03  0.00000000000E+00 0. -1.
        -13    1    3    3    0    0 -0.15128960156E+03  0.95862333210E+02 -0.20397202085E+03  0.27144560368E+03  0.00000000000E+00 0.  1.
         22    1    1    2    0    0  0.46305634814E+03 -0.24998259425E+03  0.96929345746E+03  0.11029244243E+04  0.00000000000E+00 0. -1.
<mgrwt>
<rscale>  0 0.20713640E+04</rscale>
<asrwt>0</asrwt>
<pdfrwt beam="1">  1        1 0.17167537E+00 0.20713640E+04</pdfrwt>
<pdfrwt beam="2">  1       -1 0.14788297E+00 0.20713640E+04</pdfrwt>
<totfact> 0.41227708E+00</totfact>
</mgrwt>
</event>
<event>
 6    1  0.8968082E-007  0.2069648E+04  0.7818608E-02  0.8574733E-01
          2   -1    0    0  501    0  0.00000000000E+00  0.00000000000E+00  0.43802913129E+04  0.43802913129E+04  0.00000000000E+00 0. -1.
         -2   -1    0    0    0  501 -0.00000000000E+00 -0.00000000000E+00 -0.24447237619E+03  0.24447237619E+03  0.00000000000E+00 0.  1.
         23    2    1    2    0    0  0.74791491587E+03 -0.16372546069E+03  0.36207742222E+04  0.37020211433E+04  0.93658045388E+02 0.  0.
         13    1    3    3    0    0  0.45572246735E+03 -0.58860537070E+02  0.22684159498E+04  0.23144888099E+04  0.00000000000E+00 0. -1.
        -13    1    3    3    0    0  0.29219244852E+03 -0.10486492363E+03  0.13523582724E+04  0.13875323334E+04  0.00000000000E+00 0.  1.
         22    1    1    2    0    0 -0.74791491587E+03  0.16372546069E+03  0.51504471450E+03  0.92274254578E+03  0.00000000000E+00 0.  1.
<mgrwt>
<rscale>  0 0.20696475E+04</rscale>
<asrwt>0</asrwt>
<pdfrwt beam="1">  1        2 0.67389091E+00 0.20696475E+04</pdfrwt>
<pdfrwt beam="2">  1       -2 0.37611138E-01 0.20696475E+04</pdfrwt>
<totfact> 0.99979454E-01</totfact>
</mgrwt>
</event>
<event>
 6    1  0.8968082E-007  0.1383831E+04  0.7818608E-02  0.8965607E-01
          1   -1    0    0  501    0  0.00000000000E+00  0.00000000000E+00  0.89491718272E+03  0.89491718272E+03  0.00000000000E+00 0. -1.
         -1   -1    0    0    0  501 -0.00000000000E+00 -0.00000000000E+00 -0.53496216427E+03  0.53496216427E+03  0.00000000000E+00 0.  1.
         23    2    1    2    0    0 -0.18589045047E+03 -0.17328428483E+03  0.84218872595E+03  0.88478114338E+03  0.94726546499E+02 0.  0.
         11    1    3    3    0    0 -0.24352642041E+02  0.10335724376E+02  0.72747470052E+02  0.77408479973E+02  0.00000000000E+00 0. -1.
        -11    1    3    3    0    0 -0.16153780842E+03 -0.18362000921E+03  0.76944125590E+03  0.80737266340E+03  0.00000000000E+00 0.  1.
         22    1    1    2    0    0  0.18589045047E+03  0.17328428483E+03 -0.48223370750E+03  0.54509820362E+03  0.00000000000E+00 0.  1.
<mgrwt>
<rscale>  0 0.13838307E+04</rscale>
<asrwt>0</asrwt>
<pdfrwt beam="1">  1        1 0.13767957E+00 0.13838307E+04</pdfrwt>
<pdfrwt beam="2">  1       -1 0.82301871E-01 0.13838307E+04</pdfrwt>
<totfact> 0.26339145E+01</totfact>
</mgrwt>
</event>
<event>
 6    1  0.8968082E-007  0.4053528E+04  0.7818608E-02  0.7993834E-01
          1   -1    0    0  501    0  0.00000000000E+00  0.00000000000E+00  0.48176962621E+04  0.48176962621E+04  0.00000000000E+00 0. -1.
         -1   -1    0    0    0  501 -0.00000000000E+00 -0.00000000000E+00 -0.85264258571E+03  0.85264258571E+03  0.00000000000E+00 0.  1.
         23    2    1    2    0    0 -0.12143098826E+04  0.15942974568E+04  0.23967981120E+04  0.31255877034E+04  0.91238317505E+02 0.  0.
         13    1    3    3    0    0 -0.93636959725E+03  0.11968705748E+04  0.17634032300E+04  0.23278483943E+04  0.00000000000E+00 0. -1.
        -13    1    3    3    0    0 -0.27794028532E+03  0.39742688195E+03  0.63339488204E+03  0.79773930910E+03  0.00000000000E+00 0.  1.
         22    1    1    2    0    0  0.12143098826E+04 -0.15942974568E+04  0.15682555644E+04  0.25447511444E+04  0.00000000000E+00 0.  1.
<mgrwt>
<rscale>  0 0.40535283E+04</rscale>
<asrwt>0</asrwt>
<pdfrwt beam="1">  1        1 0.74118402E+00 0.40535283E+04</pdfrwt>
<pdfrwt beam="2">  1       -1 0.13117579E+00 0.40535283E+04</pdfrwt>
<totfact> 0.55357329E-03</totfact>
</mgrwt>
</event>
<event>
 6    1  0.8968082E-007  0.3599434E+04  0.7818608E-02  0.8090621E-01
          2   -1    0    0  501    0  0.00000000000E+00  0.00000000000E+00  0.18565047477E+04  0.18565047477E+04  0.00000000000E+00 0. -1.
         -2   -1    0    0    0  501 -0.00000000000E+00 -0.00000000000E+00 -0.17446664838E+04  0.17446664838E+04  0.00000000000E+00 0.  1.
         23    2    1    2    0    0 -0.15216831591E+04  0.35343622351E+03 -0.83565209989E+03  0.17741039666E+04  0.93239754055E+02 0.  0.
         13    1    3    3    0    0 -0.33594523205E+03  0.10129212684E+03 -0.15226091785E+03  0.38249533462E+03  0.00000000000E+00 0.  1.
        -13    1    3    3    0    0 -0.11857379270E+04  0.25214409667E+03 -0.68339118204E+03  0.13916086320E+04  0.00000000000E+00 0. -1.
         22    1    1    2    0    0  0.15216831591E+04 -0.35343622351E+03  0.94749036381E+03  0.18270672648E+04  0.00000000000E+00 0. -1.
<mgrwt>
<rscale>  0 0.35994342E+04</rscale>
<asrwt>0</asrwt>
<pdfrwt beam="1">  1        2 0.28561611E+00 0.35994342E+04</pdfrwt>
<pdfrwt beam="2">  1       -2 0.26841023E+00 0.35994342E+04</pdfrwt>
<totfact> 0.32430571E-01</totfact>
</mgrwt>
</event>
<event>
 6    1  0.8968082E-007  0.4120287E+04  0.7818608E-02  0.7980711E-01
         -2   -1    0    0    0  501 -0.00000000000E+00  0.00000000000E+00  0.14284092178E+04  0.14284092178E+04  0.00000000000E+00 0.  1.
          2   -1    0    0  501    0  0.00000000000E+00 -0.00000000000E+00 -0.29712712281E+04  0.29712712281E+04  0.00000000000E+00 0. -1.
         23    2    1    2    0    0  0.82853898538E+02 -0.13452890079E+04 -0.24342898694E+04  0.27837253378E+04  0.81806510194E+02 0.  0.
         13    1    3    3    0    0  0.61858225915E+02 -0.40165251322E+03 -0.74476167345E+03  0.84842273174E+03  0.00000000000E+00 0.  1.
        -13    1    3    3    0    0  0.20995672623E+02 -0.94363649463E+03 -0.16895281959E+04  0.19353026061E+04  0.00000000000E+00 0. -1.
         22    1    1    2    0    0 -0.82853898538E+02  0.13452890079E+04  0.89142785910E+03  0.16159551080E+04  0.00000000000E+00 0.  1.
<mgrwt>
<rscale>  0 0.41202870E+04</rscale>
<asrwt>0</asrwt>
<pdfrwt beam="1">  1        2 0.45711865E+00 0.41202870E+04</pdfrwt>
<pdfrwt beam="2">  1       -2 0.21975526E+00 0.41202870E+04</pdfrwt>
<totfact> 0.14055514E-01</totfact>
</mgrwt>
</event>
<event>
 6    1  0.8968082E-007  0.8208276E+03  0.7818608E-02  0.9530350E-01
          1   -1    0    0  501    0  0.00000000000E+00  0.00000000000E+00  0.78438791715E+02  0.78438791715E+02  0.00000000000E+00 0. -1.
         -1   -1    0    0    0  501 -0.00000000000E+00 -0.00000000000E+00 -0.21474001143E+04  0.21474001143E+04  0.00000000000E+00 0.  1.
         23    2    1    2    0    0  0.32116498591E+02 -0.32380911153E+03 -0.17028722806E+04  0.17360379292E+04  0.90387374658E+02 0.  0.
         13    1    3    3    0    0  0.57937616332E+02 -0.20409282964E+03 -0.11884630697E+04  0.12072510587E+04  0.00000000000E+00 0. -1.
        -13    1    3    3    0    0 -0.25821117741E+02 -0.11971628189E+03 -0.51440921086E+03  0.52878687057E+03  0.00000000000E+00 0.  1.
         22    1    1    2    0    0 -0.32116498591E+02  0.32380911153E+03 -0.36608904196E+03  0.48980097676E+03  0.00000000000E+00 0. -1.
<mgrwt>
<rscale>  0 0.82082756E+03</rscale>
<asrwt>0</asrwt>
<pdfrwt beam="1">  1        1 0.12067506E-01 0.82082756E+03</pdfrwt>
<pdfrwt beam="2">  1       -1 0.33036927E+00 0.82082756E+03</pdfrwt>
<totfact> 0.11290335E+01</totfact>
</mgrwt>
</event>
<event>
 6    1  0.8968082E-007  0.2726608E+04  0.7818608E-02  0.8326423E-01
          2   -1    0    0  501    0  0.00000000000E+00  0.00000000000E+00  0.44803218801E+04  0.44803218801E+04  0.00000000000E+00 0. -1.
         -2   -1    0    0    0  501 -0.00000000000E+00 -0.00000000000E+00 -0.41483566952E+03  0.41483566952E+03  0.00000000000E+00 0.  1.
         23    2    1    2    0    0 -0.11671780581E+04  0.11322467692E+03  0.32781629960E+04  0.34827120495E+04  0.88352388379E+02 0.  0.
         11    1    3    3    0    0 -0.54090829545E+03  0.66606284369E+02  0.14000039748E+04  0.15023412764E+04  0.00000000000E+00 0. -1.
        -11    1    3    3    0    0 -0.62626976260E+03  0.46618392548E+02  0.18781590212E+04  0.19803707731E+04  0.00000000000E+00 0.  1.
         22    1    1    2    0    0  0.11671780581E+04 -0.11322467692E+03  0.78732321456E+03  0.14124455001E+04  0.00000000000E+00 0.  1.
<mgrwt>
<rscale>  0 0.27266077E+04</rscale>
<asrwt>0</asrwt>
<pdfrwt beam="1">  1        2 0.68928025E+00 0.27266077E+04</pdfrwt>
<pdfrwt beam="2">  1       -2 0.63820875E-01 0.27266077E+04</pdfrwt>
<totfact> 0.25630380E-01</totfact>
</mgrwt>
</event>
<event>
 6    1  0.8968082E-007  0.1448903E+04  0.7818608E-02  0.8919162E-01
         -3   -1    0    0    0  501 -0.00000000000E+00  0.00000000000E+00  0.53718422517E+03  0.53718422517E+03  0.00000000000E+00 0.  1.
          3   -1    0    0  501    0  0.00000000000E+00 -0.00000000000E+00 -0.97700123625E+03  0.97700123625E+03  0.00000000000E+00 0. -1.
         23    2    1    2    0    0 -0.44303981038E+03 -0.11580270085E+03  0.36178037853E+03  0.59101000998E+03  0.93344793646E+02 0.  0.
         13    1    3    3    0    0 -0.29930042778E+03 -0.32371814193E+02  0.23884933186E+03  0.38428854231E+03  0.00000000000E+00 0. -1.
        -13    1    3    3    0    0 -0.14373938260E+03 -0.83430886657E+02  0.12293104667E+03  0.20672146767E+03  0.00000000000E+00 0.  1.
         22    1    1    2    0    0  0.44303981038E+03  0.11580270085E+03 -0.80159738961E+03  0.92317545144E+03  0.00000000000E+00 0. -1.
<mgrwt>
<rscale>  0 0.14489026E+04</rscale>
<asrwt>0</asrwt>
<pdfrwt beam="1">  1        3 0.15030788E+00 0.14489026E+04</pdfrwt>
<pdfrwt beam="2">  1       -3 0.82643727E-01 0.14489026E+04</pdfrwt>
<totfact> 0.11056459E+00</totfact>
</mgrwt>
</event>
<event>
 6    1  0.8968082E-007  0.2231915E+04  0.7818608E-02  0.8505260E-01
          1   -1    0    0  501    0  0.00000000000E+00  0.00000000000E+00  0.38555035584E+04  0.38555035584E+04  0.00000000000E+00 0. -1.
         -1   -1    0    0    0  501 -0.00000000000E+00 -0.00000000000E+00 -0.32300878389E+03  0.32300878389E+03  0.00000000000E+00 0.  1.
         23    2    1    2    0    0  0.89126638972E+03 -0.25842280539E+03  0.61561749193E+03  0.11175792811E+04  0.94129853282E+02 0.  0.
         13    1    3    3    0    0  0.42627653002E+03 -0.13225365649E+03  0.24069354589E+03  0.50708588300E+03  0.00000000000E+00 0.  1.
        -13    1    3    3    0    0  0.46498985970E+03 -0.12616914890E+03  0.37492394603E+03  0.61049339806E+03  0.00000000000E+00 0. -1.
         22    1    1    2    0    0 -0.89126638972E+03  0.25842280539E+03  0.29168772826E+04  0.30609330613E+04  0.00000000000E+00 0.  1.
<mgrwt>
<rscale>  0 0.22319153E+04</rscale>
<asrwt>0</asrwt>
<pdfrwt beam="1">  1        1 0.59315436E+00 0.22319153E+04</pdfrwt>
<pdfrwt beam="2">  1       -1 0.49693662E-01 0.22319153E+04</pdfrwt>
<totfact> 0.47446044E-01</totfact>
</mgrwt>
</event>
<event>
 6    1  0.8968082E-007  0.3384523E+04  0.7818608E-02  0.8141715E-01
          2   -1    0    0  501    0  0.00000000000E+00  0.00000000000E+00  0.27389321070E+04  0.27389321070E+04  0.00000000000E+00 0. -1.
         -2   -1    0    0    0  501 -0.00000000000E+00 -0.00000000000E+00 -0.10455711381E+04  0.10455711381E+04  0.00000000000E+00 0.  1.
         23    2    1    2    0    0 -0.13221831952E+04 -0.10494518323E+04  0.95961612081E+03  0.19438786087E+04  0.91013164236E+02 0.  0.
         11    1    3    3    0    0 -0.11070148879E+04 -0.91102207508E+03  0.79030476132E+03  0.16370781286E+04  0.00000000000E+00 0. -1.
        -11    1    3    3    0    0 -0.21516830731E+03 -0.13842975723E+03  0.16931135949E+03  0.30680048013E+03  0.00000000000E+00 0.  1.
         22    1    1    2    0    0  0.13221831952E+04  0.10494518323E+04  0.73374484813E+03  0.18406246364E+04  0.00000000000E+00 0.  1.
<mgrwt>
<rscale>  0 0.33845226E+04</rscale>
<asrwt>0</asrwt>
<pdfrwt beam="1">  1        2 0.42137417E+00 0.33845226E+04</pdfrwt>
<pdfrwt beam="2">  1       -2 0.16085710E+00 0.33845226E+04</pdfrwt>
<totfact> 0.51807474E-01</totfact>
</mgrwt>
</event>
<event>
 6    1  0.8968082E-007  0.3678225E+04  0.7818608E-02  0.8072805E-01
          2   -1    0    0  501    0  0.00000000000E+00  0.00000000000E+00  0.21784437319E+04  0.21784437319E+04  0.00000000000E+00 0. -1.
         -2   -1    0    0    0  501 -0.00000000000E+00 -0.00000000000E+00 -0.15526381655E+04  0.15526381655E+04  0.00000000000E+00 0.  1.
         23    2    1    2    0    0  0.10268322435E+04  0.15142702259E+04  0.49155984486E+03  0.18965736016E+04  0.89227642144E+02 0.  0.
         13    1    3    3    0    0  0.60898015437E+03  0.90177392326E+03  0.33754855924E+03  0.11392945479E+04  0.00000000000E+00 0.  1.
        -13    1    3    3    0    0  0.41785208913E+03  0.61249630262E+03  0.15401128563E+03  0.75727905373E+03  0.00000000000E+00 0. -1.
         22    1    1    2    0    0 -0.10268322435E+04 -0.15142702259E+04  0.13424572155E+03  0.18345082957E+04  0.00000000000E+00 0.  1.
<mgrwt>
<rscale>  0 0.36782250E+04</rscale>
<asrwt>0</asrwt>
<pdfrwt beam="1">  1        2 0.33514519E+00 0.36782250E+04</pdfrwt>
<pdfrwt beam="2">  1       -2 0.23886741E+00 0.36782250E+04</pdfrwt>
<totfact> 0.32375528E-01</totfact>
</mgrwt>
</event>
<event>
 6    1  0.8968082E-007  0.1568574E+04  0.7818608E-02  0.8840090E-01
          2   -1    0    0  501    0  0.00000000000E+00  0.00000000000E+00  0.44061456317E+04  0.44061456317E+04  0.00000000000E+00 0. -1.
         -2   -1    0    0    0  501 -0.00000000000E+00 -0.00000000000E+00 -0.13960187143E+03  0.13960187143E+03  0.00000000000E+00 0.  1.
         23    2    1    2    0    0  0.55898801153E+03  0.40376223744E+03  0.32070548559E+04  0.32816239808E+04  0.91452505006E+02 0.  0.
         11    1    3    3    0    0  0.26209546342E+03  0.15085326023E+03  0.12470792203E+04  0.12832214617E+04  0.00000000000E+00 0. -1.
        -11    1    3    3    0    0  0.29689254811E+03  0.25290897720E+03  0.19599756356E+04  0.19984025190E+04  0.00000000000E+00 0.  1.
         22    1    1    2    0    0 -0.55898801153E+03 -0.40376223744E+03  0.10594889043E+04  0.12641235224E+04  0.00000000000E+00 0.  1.
<mgrwt>
<rscale>  0 0.15685741E+04</rscale>
<asrwt>0</asrwt>
<pdfrwt beam="1">  1        2 0.67786845E+00 0.15685741E+04</pdfrwt>
<pdfrwt beam="2">  1       -2 0.21477214E-01 0.15685741E+04</pdfrwt>
<totfact> 0.28265979E+00</totfact>
</mgrwt>
</event>
<event>
 6    1  0.8968082E-007  0.2638101E+04  0.7818608E-02  0.8355373E-01
          2   -1    0    0  501    0  0.00000000000E+00  0.00000000000E+00  0.27207405230E+04  0.27207405230E+04  0.00000000000E+00 0. -1.
         -2   -1    0    0    0  501 -0.00000000000E+00 -0.00000000000E+00 -0.63949283326E+03  0.63949283326E+03  0.00000000000E+00 0.  1.
         23    2    1    2    0    0  0.44027497950E+03  0.21833089094E+03  0.25988197882E+04  0.26465168070E+04  0.93147639965E+02 0.  0.
         11    1    3    3    0    0  0.30694975965E+03  0.19690391837E+03  0.19465753852E+04  0.19804406172E+04  0.00000000000E+00 0.  1.
        -11    1    3    3    0    0  0.13332521986E+03  0.21426972575E+02  0.65224440302E+03  0.66607618984E+03  0.00000000000E+00 0. -1.
         22    1    1    2    0    0 -0.44027497950E+03 -0.21833089094E+03 -0.51757209847E+03  0.71371654922E+03  0.00000000000E+00 0.  1.
<mgrwt>
<rscale>  0 0.26381009E+04</rscale>
<asrwt>0</asrwt>
<pdfrwt beam="1">  1        2 0.41857546E+00 0.26381009E+04</pdfrwt>
<pdfrwt beam="2">  1       -2 0.98383514E-01 0.26381009E+04</pdfrwt>
<totfact> 0.19531320E+00</totfact>
</mgrwt>
</event>
<event>
 6    1  0.8968082E-007  0.1983199E+04  0.7818608E-02  0.8614516E-01
          1   -1    0    0  501    0  0.00000000000E+00  0.00000000000E+00  0.87750793632E+03  0.87750793632E+03  0.00000000000E+00 0. -1.
         -1   -1    0    0    0  501 -0.00000000000E+00 -0.00000000000E+00 -0.11205245840E+04  0.11205245840E+04  0.00000000000E+00 0.  1.
         23    2    1    2    0    0 -0.78684468038E+03  0.45213822125E+03 -0.51916936432E+03  0.10494473397E+04  0.90826029929E+02 0.  0.
         13    1    3    3    0    0 -0.66558741455E+03  0.40985707376E+03 -0.42113866947E+03  0.88788918579E+03  0.00000000000E+00 0. -1.
        -13    1    3    3    0    0 -0.12125726583E+03  0.42281147494E+02 -0.98030694845E+02  0.16155815387E+03  0.00000000000E+00 0.  1.
         22    1    1    2    0    0  0.78684468038E+03 -0.45213822125E+03  0.27615271661E+03  0.94858518070E+03  0.00000000000E+00 0. -1.
<mgrwt>
<rscale>  0 0.19831986E+04</rscale>
<asrwt>0</asrwt>
<pdfrwt beam="1">  1        1 0.13500122E+00 0.19831986E+04</pdfrwt>
<pdfrwt beam="2">  1       -1 0.17238840E+00 0.19831986E+04</pdfrwt>
<totfact> 0.41697598E+00</totfact>
</mgrwt>
</event>
<event>
 6    1  0.8968082E-007  0.1417965E+04  0.7818608E-02  0.8940916E-01
          1   -1    0    0  501    0  0.00000000000E+00  0.00000000000E+00  0.23999428586E+04  0.23999428586E+04  0.00000000000E+00 0. -1.
         -1   -1    0    0    0  501 -0.00000000000E+00 -0.00000000000E+00 -0.20944517538E+03  0.20944517538E+03  0.00000000000E+00 0.  1.
         23    2    1    2    0    0  0.26528917379E+03 -0.14528032262E+02  0.23035497327E+04  0.23206490941E+04  0.92094719604E+02 0.  0.
         13    1    3    3    0    0  0.17909032014E+03 -0.12686444247E+02  0.18707144742E+04  0.18793102279E+04  0.00000000000E+00 0.  1.
        -13    1    3    3    0    0  0.86198853651E+02 -0.18415880150E+01  0.43283525851E+03  0.44133886621E+03  0.00000000000E+00 0. -1.
         22    1    1    2    0    0 -0.26528917379E+03  0.14528032262E+02 -0.11305204957E+03  0.28873893981E+03  0.00000000000E+00 0.  1.
<mgrwt>
<rscale>  0 0.14179654E+04</rscale>
<asrwt>0</asrwt>
<pdfrwt beam="1">  1        1 0.36922196E+00 0.14179654E+04</pdfrwt>
<pdfrwt beam="2">  1       -1 0.32222336E-01 0.14179654E+04</pdfrwt>
<totfact> 0.13951785E+01</totfact>
</mgrwt>
</event>
<event>
 6    1  0.8968082E-007  0.1593206E+04  0.7818608E-02  0.8824733E-01
         -1   -1    0    0    0  501 -0.00000000000E+00  0.00000000000E+00  0.89369633182E+03  0.89369633182E+03  0.00000000000E+00 0.  1.
          1   -1    0    0  501    0  0.00000000000E+00 -0.00000000000E+00 -0.71005783104E+03  0.71005783104E+03  0.00000000000E+00 0. -1.
         23    2    1    2    0    0 -0.47592228893E+03 -0.21940037676E+03  0.69248450903E+03  0.87330032411E+03  0.92087514958E+02 0.  0.
         11    1    3    3    0    0 -0.12558968961E+03 -0.10344071382E+03  0.22686416880E+03  0.27917754655E+03  0.00000000000E+00 0. -1.
        -11    1    3    3    0    0 -0.35033259931E+03 -0.11595966295E+03  0.46562034023E+03  0.59412277755E+03  0.00000000000E+00 0.  1.
         22    1    1    2    0    0  0.47592228893E+03  0.21940037676E+03 -0.50884600825E+03  0.73045383874E+03  0.00000000000E+00 0. -1.
<mgrwt>
<rscale>  0 0.15932057E+04</rscale>
<asrwt>0</asrwt>
<pdfrwt beam="1">  1        1 0.10923967E+00 0.15932057E+04</pdfrwt>
<pdfrwt beam="2">  1       -1 0.13749174E+00 0.15932057E+04</pdfrwt>
<totfact> 0.11247294E+01</totfact>
</mgrwt>
</event>
<event>
 6    1  0.8968082E-007  0.1372089E+04  0.7818608E-02  0.8974274E-01
          2   -1    0    0  501    0  0.00000000000E+00  0.00000000000E+00  0.95294664195E+03  0.95294664195E+03  0.00000000000E+00 0. -1.
         -2   -1    0    0    0  501 -0.00000000000E+00 -0.00000000000E+00 -0.49389646302E+03  0.49389646302E+03  0.00000000000E+00 0.  1.
         23    2    1    2    0    0 -0.53562154440E+03  0.38979409615E+03  0.40626632738E+03  0.78230114904E+03  0.90071542725E+02 0.  0.
         13    1    3    3    0    0 -0.11012055040E+03  0.11238883513E+03  0.12992355337E+03  0.20405370765E+03  0.00000000000E+00 0. -1.
        -13    1    3    3    0    0 -0.42550099399E+03  0.27740526101E+03  0.27634277401E+03  0.57824744139E+03  0.00000000000E+00 0.  1.
         22    1    1    2    0    0  0.53562154440E+03 -0.38979409615E+03  0.52783851545E+02  0.66454195593E+03  0.00000000000E+00 0.  1.
<mgrwt>
<rscale>  0 0.13720889E+04</rscale>
<asrwt>0</asrwt>
<pdfrwt beam="1">  1        2 0.14660717E+00 0.13720889E+04</pdfrwt>
<pdfrwt beam="2">  1       -2 0.75984072E-01 0.13720889E+04</pdfrwt>
<totfact> 0.40901702E+01</totfact>
</mgrwt>
</event>
<event>
 6    1  0.8968082E-007  0.2971993E+04  0.7818608E-02  0.8251774E-01
          1   -1    0    0  501    0  0.00000000000E+00  0.00000000000E+00  0.17118098795E+04  0.17118098795E+04  0.00000000000E+00 0. -1.
         -1   -1    0    0    0  501 -0.00000000000E+00 -0.00000000000E+00 -0.12899712555E+04  0.12899712555E+04  0.00000000000E+00 0.  1.
         23    2    1    2    0    0  0.59493614484E+03  0.12819396319E+04  0.67043286037E+03  0.15668186509E+04  0.90123406444E+02 0.  0.
         11    1    3    3    0    0  0.34562109646E+03  0.84702577675E+03  0.43474397378E+03  0.10128716264E+04  0.00000000000E+00 0. -1.
        -11    1    3    3    0    0  0.24931504837E+03  0.43491385516E+03  0.23568888659E+03  0.55394702456E+03  0.00000000000E+00 0.  1.
         22    1    1    2    0    0 -0.59493614484E+03 -0.12819396319E+04 -0.24859423633E+03  0.14349624841E+04  0.00000000000E+00 0.  1.
<mgrwt>
<rscale>  0 0.29719930E+04</rscale>
<asrwt>0</asrwt>
<pdfrwt beam="1">  1        1 0.26335537E+00 0.29719930E+04</pdfrwt>
<pdfrwt beam="2">  1       -1 0.19845711E+00 0.29719930E+04</pdfrwt>
<totfact> 0.61564601E-01</totfact>
</mgrwt>
</event>
<event>
 6    1  0.8968082E-007  0.3731906E+04  0.7818608E-02  0.8060928E-01
          2   -1    0    0  501    0  0.00000000000E+00  0.00000000000E+00  0.18989239792E+04  0.18989239792E+04  0.00000000000E+00 0. -1.
         -2   -1    0    0    0  501 -0.00000000000E+00 -0.00000000000E+00 -0.18335547728E+04  0.18335547728E+04  0.00000000000E+00 0.  1.
         23    2    1    2    0    0  0.96630985657E+03 -0.15497696113E+04  0.40986647960E+03  0.18739258315E+04  0.89815944292E+02 0.  0.
         13    1    3    3    0    0  0.38254114154E+03 -0.60570123200E+03  0.20561789156E+03  0.74531230015E+03  0.00000000000E+00 0. -1.
        -13    1    3    3    0    0  0.58376871503E+03 -0.94406837934E+03  0.20424858804E+03  0.11286135314E+04  0.00000000000E+00 0.  1.
         22    1    1    2    0    0 -0.96630985657E+03  0.15497696113E+04 -0.34449727319E+03  0.18585529205E+04  0.00000000000E+00 0.  1.
<mgrwt>
<rscale>  0 0.37319063E+04</rscale>
<asrwt>0</asrwt>
<pdfrwt beam="1">  1        2 0.29214215E+00 0.37319063E+04</pdfrwt>
<pdfrwt beam="2">  1       -2 0.28208535E+00 0.37319063E+04</pdfrwt>
<totfact> 0.25074527E-01</totfact>
</mgrwt>
</event>
<event>
 6    1  0.8968082E-007  0.2774715E+04  0.7818608E-02  0.8311162E-01
          1   -1    0    0  501    0  0.00000000000E+00  0.00000000000E+00  0.13849272467E+04  0.13849272467E+04  0.00000000000E+00 0. -1.
         -1   -1    0    0    0  501 -0.00000000000E+00 -0.00000000000E+00 -0.13897922170E+04  0.13897922170E+04  0.00000000000E+00 0.  1.
         23    2    1    2    0    0 -0.10159226226E+04 -0.59883196020E+03  0.72536715569E+03  0.13876587407E+04  0.93492130219E+02 0.  0.
         13    1    3    3    0    0 -0.86605797086E+03 -0.54481257464E+03  0.64127667042E+03  0.12075234649E+04  0.00000000000E+00 0.  1.
        -13    1    3    3    0    0 -0.14986465172E+03 -0.54019385567E+02  0.84090485279E+02  0.18013527574E+03  0.00000000000E+00 0. -1.
         22    1    1    2    0    0  0.10159226226E+04  0.59883196020E+03 -0.73023212592E+03  0.13870607230E+04  0.00000000000E+00 0.  1.
<mgrwt>
<rscale>  0 0.27747152E+04</rscale>
<asrwt>0</asrwt>
<pdfrwt beam="1">  1        1 0.21306573E+00 0.27747152E+04</pdfrwt>
<pdfrwt beam="2">  1       -1 0.21381419E+00 0.27747152E+04</pdfrwt>
<totfact> 0.82738923E-01</totfact>
</mgrwt>
</event>
<event>
 6    1  0.8968082E-007  0.1885511E+04  0.7818608E-02  0.8662102E-01
         -2   -1    0    0    0  501 -0.00000000000E+00  0.00000000000E+00  0.46035888418E+03  0.46035888418E+03  0.00000000000E+00 0.  1.
          2   -1    0    0  501    0  0.00000000000E+00 -0.00000000000E+00 -0.19306421571E+04  0.19306421571E+04  0.00000000000E+00 0. -1.
         23    2    1    2    0    0 -0.28361508906E+03  0.79096458040E+03 -0.12726533743E+04  0.15277976684E+04  0.91959872339E+02 0.  0.
         11    1    3    3    0    0 -0.16599760701E+03  0.52309433153E+03 -0.89849680784E+03  0.10528434826E+04  0.00000000000E+00 0. -1.
        -11    1    3    3    0    0 -0.11761748206E+03  0.26787024888E+03 -0.37415656646E+03  0.47495418573E+03  0.00000000000E+00 0.  1.
         22    1    1    2    0    0  0.28361508906E+03 -0.79096458040E+03 -0.19762989861E+03  0.86320337292E+03  0.00000000000E+00 0.  1.
<mgrwt>
<rscale>  0 0.18855114E+04</rscale>
<asrwt>0</asrwt>
<pdfrwt beam="1">  1        2 0.29702187E+00 0.18855114E+04</pdfrwt>
<pdfrwt beam="2">  1       -2 0.70824445E-01 0.18855114E+04</pdfrwt>
<totfact> 0.12403688E+01</totfact>
</mgrwt>
</event>
<event>
 6    1  0.8968082E-007  0.2796994E+04  0.7818608E-02  0.8304202E-01
          2   -1    0    0  501    0  0.00000000000E+00  0.00000000000E+00  0.16838323171E+04  0.16838323171E+04  0.00000000000E+00 0. -1.
         -2   -1    0    0    0  501 -0.00000000000E+00 -0.00000000000E+00 -0.11615133455E+04  0.11615133455E+04  0.00000000000E+00 0.  1.
         23    2    1    2    0    0 -0.75699611525E+03 -0.74270883699E+03 -0.66345090217E+03  0.12545252049E+04  0.94904452852E+02 0.  0.
         11    1    3    3    0    0 -0.11258179045E+03 -0.67636426675E+02 -0.88384416083E+02  0.15830714059E+03  0.00000000000E+00 0.  1.
        -11    1    3    3    0    0 -0.64441432480E+03 -0.67507241031E+03 -0.57506648609E+03  0.10962180643E+04  0.00000000000E+00 0. -1.
         22    1    1    2    0    0  0.75699611525E+03  0.74270883699E+03  0.11857698738E+04  0.15908204577E+04  0.00000000000E+00 0. -1.
<mgrwt>
<rscale>  0 0.27969939E+04</rscale>
<asrwt>0</asrwt>
<pdfrwt beam="1">  1        2 0.25905112E+00 0.27969939E+04</pdfrwt>
<pdfrwt beam="2">  1       -2 0.17869436E+00 0.27969939E+04</pdfrwt>
<totfact> 0.16136797E+00</totfact>
</mgrwt>
</event>
<event>
 6    1  0.8968082E-007  0.3381731E+04  0.7818608E-02  0.8142405E-01
         -2   -1    0    0    0  501 -0.00000000000E+00  0.00000000000E+00  0.67490887720E+03  0.67490887720E+03  0.00000000000E+00 0.  1.
          2   -1    0    0  501    0  0.00000000000E+00 -0.00000000000E+00 -0.42361659692E+04  0.42361659692E+04  0.00000000000E+00 0. -1.
         23    2    1    2    0    0  0.47165627622E+03  0.72143977520E+03 -0.38923719377E+04  0.39877265734E+04  0.92026793060E+02 0.  0.
         11    1    3    3    0    0  0.33296553894E+03  0.57964276819E+03 -0.29906040490E+04  0.30644027749E+04  0.00000000000E+00 0.  1.
        -11    1    3    3    0    0  0.13869073729E+03  0.14179700701E+03 -0.90176788868E+03  0.92332379849E+03  0.00000000000E+00 0. -1.
         22    1    1    2    0    0 -0.47165627622E+03 -0.72143977520E+03  0.33111484573E+03  0.92334827297E+03  0.00000000000E+00 0.  1.
<mgrwt>
<rscale>  0 0.33817309E+04</rscale>
<asrwt>0</asrwt>
<pdfrwt beam="1">  1        2 0.65171785E+00 0.33817309E+04</pdfrwt>
<pdfrwt beam="2">  1       -2 0.10383213E+00 0.33817309E+04</pdfrwt>
<totfact> 0.13503840E-01</totfact>
</mgrwt>
</event>
<event>
 6    1  0.8968082E-007  0.2571122E+04  0.7818608E-02  0.8378077E-01
         -1   -1    0    0    0  501 -0.00000000000E+00  0.00000000000E+00  0.91126360558E+03  0.91126360558E+03  0.00000000000E+00 0.  1.
          1   -1    0    0  501    0  0.00000000000E+00 -0.00000000000E+00 -0.18135999970E+04  0.18135999970E+04  0.00000000000E+00 0. -1.
         23    2    1    2    0    0  0.13779227641E+03 -0.37689803993E+03 -0.17442778003E+04  0.17921770636E+04  0.91404258862E+02 0.  0.
         13    1    3    3    0    0  0.47590566325E+02 -0.21515534259E+03 -0.10977513548E+04  0.11196493739E+04  0.00000000000E+00 0.  1.
        -13    1    3    3    0    0  0.90201710089E+02 -0.16174269734E+03 -0.64652644548E+03  0.67252768966E+03  0.00000000000E+00 0. -1.
         22    1    1    2    0    0 -0.13779227641E+03  0.37689803993E+03  0.84194140893E+03  0.93268653899E+03  0.00000000000E+00 0.  1.
<mgrwt>
<rscale>  0 0.25711225E+04</rscale>
<asrwt>0</asrwt>
<pdfrwt beam="1">  1        1 0.27901538E+00 0.25711225E+04</pdfrwt>
<pdfrwt beam="2">  1       -1 0.14019440E+00 0.25711225E+04</pdfrwt>
<totfact> 0.14705730E+00</totfact>
</mgrwt>
</event>
<event>
 6    1  0.8968082E-007  0.4323249E+04  0.7818608E-02  0.7942333E-01
          2   -1    0    0  501    0  0.00000000000E+00  0.00000000000E+00  0.26437334690E+04  0.26437334690E+04  0.00000000000E+00 0. -1.
         -2   -1    0    0    0  501 -0.00000000000E+00 -0.00000000000E+00 -0.17674327488E+04  0.17674327488E+04  0.00000000000E+00 0.  1.
         23    2    1    2    0    0 -0.15882615255E+03  0.99868828359E+03  0.23866066148E+04  0.25935777248E+04  0.90278713695E+02 0.  0.
         13    1    3    3    0    0 -0.11189865529E+03  0.56853235261E+03  0.14656441536E+04  0.15760276425E+04  0.00000000000E+00 0. -1.
        -13    1    3    3    0    0 -0.46927497254E+02  0.43015593098E+03  0.92096246123E+03  0.10175500823E+04  0.00000000000E+00 0.  1.
         22    1    1    2    0    0  0.15882615255E+03 -0.99868828359E+03 -0.15103058947E+04  0.18175884930E+04  0.00000000000E+00 0.  1.
<mgrwt>
<rscale>  0 0.43232493E+04</rscale>
<asrwt>0</asrwt>
<pdfrwt beam="1">  1        2 0.40672823E+00 0.43232493E+04</pdfrwt>
<pdfrwt beam="2">  1       -2 0.27191273E+00 0.43232493E+04</pdfrwt>
<totfact> 0.10398745E-01</totfact>
</mgrwt>
</event>
<event>
 6    1  0.8968082E-007  0.4320345E+04  0.7818608E-02  0.7942867E-01
          3   -1    0    0  501    0  0.00000000000E+00  0.00000000000E+00  0.32249685149E+04  0.32249685149E+04  0.00000000000E+00 0. -1.
         -3   -1    0    0    0  501 -0.00000000000E+00 -0.00000000000E+00 -0.14469430154E+04  0.14469430154E+04  0.00000000000E+00 0.  1.
         23    2    1    2    0    0 -0.70331897957E+03 -0.15509223584E+04  0.23247349262E+04  0.28833621332E+04  0.96783083204E+02 0.  0.
         13    1    3    3    0    0 -0.57943639772E+03 -0.11914411370E+04  0.18375643796E+04  0.22653744439E+04  0.00000000000E+00 0. -1.
        -13    1    3    3    0    0 -0.12388258185E+03 -0.35948122141E+03  0.48717054662E+03  0.61798768930E+03  0.00000000000E+00 0.  1.
         22    1    1    2    0    0  0.70331897957E+03  0.15509223584E+04 -0.54670942665E+03  0.17885493971E+04  0.00000000000E+00 0.  1.
<mgrwt>
<rscale>  0 0.43203452E+04</rscale>
<asrwt>0</asrwt>
<pdfrwt beam="1">  1        3 0.49614900E+00 0.43203452E+04</pdfrwt>
<pdfrwt beam="2">  1       -3 0.22260662E+00 0.43203452E+04</pdfrwt>
<totfact> 0.75252437E-04</totfact>
</mgrwt>
</event>
<event>
 6    1  0.8968082E-007  0.3640553E+03  0.7818608E-02  0.1056990E+00
         -1   -1    0    0    0  501 -0.00000000000E+00  0.00000000000E+00  0.45769318658E+03  0.45769318658E+03  0.00000000000E+00 0.  1.
          1   -1    0    0  501    0  0.00000000000E+00 -0.00000000000E+00 -0.72393613497E+02  0.72393613497E+02  0.00000000000E+00 0. -1.
         23    2    1    2    0    0 -0.10428995393E+03  0.26838241746E+02  0.10940242316E+02  0.14054656564E+03  0.89649107638E+02 0.  0.
         11    1    3    3    0    0 -0.38373546482E+02  0.74366252051E+00  0.47267412679E+02  0.60887522572E+02  0.00000000000E+00 0.  1.
        -11    1    3    3    0    0 -0.65916407452E+02  0.26094579225E+02 -0.36327170363E+02  0.79659043071E+02  0.00000000000E+00 0. -1.
         22    1    1    2    0    0  0.10428995393E+03 -0.26838241746E+02  0.37435933077E+03  0.38954023443E+03  0.00000000000E+00 0.  1.
<mgrwt>
<rscale>  0 0.36405529E+03</rscale>
<asrwt>0</asrwt>
<pdfrwt beam="1">  1        1 0.11137479E-01 0.36405529E+03</pdfrwt>
<pdfrwt beam="2">  1       -1 0.70414335E-01 0.36405529E+03</pdfrwt>
<totfact> 0.11793901E+03</totfact>
</mgrwt>
</event>
<event>
 6    1  0.8968082E-007  0.8075262E+03  0.7818608E-02  0.9549187E-01
         -2   -1    0    0    0  501 -0.00000000000E+00  0.00000000000E+00  0.23457804725E+03  0.23457804725E+03  0.00000000000E+00 0.  1.
          2   -1    0    0  501    0  0.00000000000E+00 -0.00000000000E+00 -0.69496970414E+03  0.69496970414E+03  0.00000000000E+00 0. -1.
         23    2    1    2    0    0  0.18141326587E+03 -0.53905840317E+02 -0.63709144289E+03  0.67062802053E+03  0.89665058239E+02 0.  0.
         13    1    3    3    0    0 -0.85834552287E+01  0.56167095266E+01 -0.34824923125E+02  0.36304247688E+02  0.00000000000E+00 0. -1.
        -13    1    3    3    0    0  0.18999672110E+03 -0.59522549844E+02 -0.60226651976E+03  0.63432377284E+03  0.00000000000E+00 0.  1.
         22    1    1    2    0    0 -0.18141326587E+03  0.53905840317E+02  0.17669978600E+03  0.25891973086E+03  0.00000000000E+00 0.  1.
<mgrwt>
<rscale>  0 0.80752619E+03</rscale>
<asrwt>0</asrwt>
<pdfrwt beam="1">  1        2 0.10691841E+00 0.80752619E+03</pdfrwt>
<pdfrwt beam="2">  1       -2 0.36088931E-01 0.80752619E+03</pdfrwt>
<totfact> 0.30018645E+02</totfact>
</mgrwt>
</event>
<event>
 6    1  0.8968082E-007  0.1479327E+04  0.7818608E-02  0.8898318E-01
          2   -1    0    0  501    0  0.00000000000E+00  0.00000000000E+00  0.17415225006E+04  0.17415225006E+04  0.00000000000E+00 0. -1.
         -2   -1    0    0    0  501 -0.00000000000E+00 -0.00000000000E+00 -0.31415174884E+03  0.31415174884E+03  0.00000000000E+00 0.  1.
         23    2    1    2    0    0  0.24906328264E+03 -0.68013939868E+03  0.90473962394E+03  0.11624971023E+04  0.90684096233E+02 0.  0.
         11    1    3    3    0    0  0.21081361392E+03 -0.45332658852E+03  0.61946399440E+03  0.79604209438E+03  0.00000000000E+00 0.  1.
        -11    1    3    3    0    0  0.38249668720E+02 -0.22681281016E+03  0.28527562955E+03  0.36645500791E+03  0.00000000000E+00 0. -1.
         22    1    1    2    0    0 -0.24906328264E+03  0.68013939868E+03  0.52263112779E+03  0.89317714712E+03  0.00000000000E+00 0. -1.
<mgrwt>
<rscale>  0 0.14793273E+04</rscale>
<asrwt>0</asrwt>
<pdfrwt beam="1">  1        2 0.26792653E+00 0.14793273E+04</pdfrwt>
<pdfrwt beam="2">  1       -2 0.48331039E-01 0.14793273E+04</pdfrwt>
<totfact> 0.36486832E+01</totfact>
</mgrwt>
</event>
<event>
 6    1  0.8968082E-007  0.3418027E+04  0.7818608E-02  0.8133496E-01
          2   -1    0    0  501    0  0.00000000000E+00  0.00000000000E+00  0.30361087359E+04  0.30361087359E+04  0.00000000000E+00 0. -1.
         -2   -1    0    0    0  501 -0.00000000000E+00 -0.00000000000E+00 -0.96199698261E+03  0.96199698261E+03  0.00000000000E+00 0.  1.
         23    2    1    2    0    0  0.65003412204E+03  0.11427754856E+04  0.23129843866E+04  0.26618646081E+04  0.84535490837E+02 0.  0.
         11    1    3    3    0    0  0.13340022550E+03  0.23881084252E+03  0.41473868118E+03  0.49682432744E+03  0.00000000000E+00 0. -1.
        -11    1    3    3    0    0  0.51663389654E+03  0.90396464303E+03  0.18982457054E+04  0.21650402807E+04  0.00000000000E+00 0.  1.
         22    1    1    2    0    0 -0.65003412204E+03 -0.11427754856E+04 -0.23887263327E+03  0.13362411104E+04  0.00000000000E+00 0.  1.
<mgrwt>
<rscale>  0 0.34180272E+04</rscale>
<asrwt>0</asrwt>
<pdfrwt beam="1">  1        2 0.46709365E+00 0.34180272E+04</pdfrwt>
<pdfrwt beam="2">  1       -2 0.14799954E+00 0.34180272E+04</pdfrwt>
<totfact> 0.42403475E-01</totfact>
</mgrwt>
</event>
<event>
 6    1  0.8968082E-007  0.3080591E+04  0.7818608E-02  0.8221085E-01
          1   -1    0    0  501    0  0.00000000000E+00  0.00000000000E+00  0.33376087652E+04  0.33376087652E+04  0.00000000000E+00 0. -1.
         -1   -1    0    0    0  501 -0.00000000000E+00 -0.00000000000E+00 -0.71084142327E+03  0.71084142327E+03  0.00000000000E+00 0.  1.
         23    2    1    2    0    0 -0.14818548525E+04  0.18230729207E+03  0.18049592325E+04  0.23441913110E+04  0.90693543408E+02 0.  0.
         13    1    3    3    0    0 -0.23827305318E+03 -0.27440464746E+01  0.27319677156E+03  0.36251628054E+03  0.00000000000E+00 0.  1.
        -13    1    3    3    0    0 -0.12435817993E+04  0.18505133854E+03  0.15317624610E+04  0.19816750305E+04  0.00000000000E+00 0. -1.
         22    1    1    2    0    0  0.14818548525E+04 -0.18230729207E+03  0.82180810938E+03  0.17042588774E+04  0.00000000000E+00 0.  1.
<mgrwt>
<rscale>  0 0.30805912E+04</rscale>
<asrwt>0</asrwt>
<pdfrwt beam="1">  1        1 0.51347826E+00 0.30805912E+04</pdfrwt>
<pdfrwt beam="2">  1       -1 0.10936022E+00 0.30805912E+04</pdfrwt>
<totfact> 0.21838273E-01</totfact>
</mgrwt>
</event>
<event>
 6    1  0.8968082E-007  0.2750840E+04  0.7818608E-02  0.8318695E-01
          1   -1    0    0  501    0  0.00000000000E+00  0.00000000000E+00  0.10043208733E+04  0.10043208733E+04  0.00000000000E+00 0. -1.
         -1   -1    0    0    0  501 -0.00000000000E+00 -0.00000000000E+00 -0.18836406865E+04  0.18836406865E+04  0.00000000000E+00 0.  1.
         23    2    1    2    0    0  0.72461628541E+03 -0.30307027746E+03 -0.16234003260E+04  0.18060298782E+04  0.96927541478E+02 0.  0.
         11    1    3    3    0    0  0.49477890599E+03 -0.21265466115E+03 -0.10064080850E+04  0.11414400572E+04  0.00000000000E+00 0.  1.
        -11    1    3    3    0    0  0.22983737942E+03 -0.90415616311E+02 -0.61699224106E+03  0.66458982100E+03  0.00000000000E+00 0. -1.
         22    1    1    2    0    0 -0.72461628541E+03  0.30307027746E+03  0.74408051279E+03  0.10819316816E+04  0.00000000000E+00 0. -1.
<mgrwt>
<rscale>  0 0.27508396E+04</rscale>
<asrwt>0</asrwt>
<pdfrwt beam="1">  1        1 0.15451091E+00 0.27508396E+04</pdfrwt>
<pdfrwt beam="2">  1       -1 0.28979087E+00 0.27508396E+04</pdfrwt>
<totfact> 0.50197267E-01</totfact>
</mgrwt>
</event>
<event>
 6    1  0.8968082E-007  0.1422855E+04  0.7818608E-02  0.8937439E-01
          1   -1    0    0  501    0  0.00000000000E+00  0.00000000000E+00  0.13915411792E+04  0.13915411792E+04  0.00000000000E+00 0. -1.
         -1   -1    0    0    0  501 -0.00000000000E+00 -0.00000000000E+00 -0.36371831941E+03  0.36371831941E+03  0.00000000000E+00 0.  1.
         23    2    1    2    0    0  0.42412937505E+03  0.41098258071E+02  0.12143117277E+04  0.12901220013E+04  0.91033030434E+02 0.  0.
         11    1    3    3    0    0  0.27195468264E+03  0.32813098503E+02  0.64483412812E+03  0.70060481131E+03  0.00000000000E+00 0. -1.
        -11    1    3    3    0    0  0.15217469241E+03  0.82851595680E+01  0.56947759955E+03  0.58951718997E+03  0.00000000000E+00 0.  1.
         22    1    1    2    0    0 -0.42412937505E+03 -0.41098258071E+02 -0.18648886786E+03  0.46513749734E+03  0.00000000000E+00 0.  1.
<mgrwt>
<rscale>  0 0.14228549E+04</rscale>
<asrwt>0</asrwt>
<pdfrwt beam="1">  1        1 0.21408326E+00 0.14228549E+04</pdfrwt>
<pdfrwt beam="2">  1       -1 0.55956665E-01 0.14228549E+04</pdfrwt>
<totfact> 0.24490453E+01</totfact>
</mgrwt>
</event>
<event>
 6    1  0.8968082E-007  0.1427425E+04  0.7818608E-02  0.8934203E-01
         -1   -1    0    0    0  501 -0.00000000000E+00  0.00000000000E+00  0.24685708103E+03  0.24685708103E+03  0.00000000000E+00 0.  1.
          1   -1    0    0  501    0  0.00000000000E+00 -0.00000000000E+00 -0.20634828250E+04  0.20634828250E+04  0.00000000000E+00 0. -1.
         23    2    1    2    0    0  0.83465114992E+02 -0.66941075377E+03 -0.54958392363E+03  0.87490542226E+03  0.91322648360E+02 0.  0.
         11    1    3    3    0    0  0.98471631441E+02 -0.56425081306E+03 -0.43985679800E+03  0.72218394124E+03  0.00000000000E+00 0.  1.
        -11    1    3    3    0    0 -0.15006516449E+02 -0.10515994072E+03 -0.10972712563E+03  0.15272148102E+03  0.00000000000E+00 0. -1.
         22    1    1    2    0    0 -0.83465114992E+02  0.66941075377E+03 -0.12670418203E+04  0.14354344837E+04  0.00000000000E+00 0. -1.
<mgrwt>
<rscale>  0 0.14274247E+04</rscale>
<asrwt>0</asrwt>
<pdfrwt beam="1">  1        1 0.31745889E+00 0.14274247E+04</pdfrwt>
<pdfrwt beam="2">  1       -1 0.37978013E-01 0.14274247E+04</pdfrwt>
<totfact> 0.17597641E+01</totfact>
</mgrwt>
</event>
<event>
 6    1  0.8968082E-007  0.8931308E+03  0.7818608E-02  0.9434209E-01
          1   -1    0    0  501    0  0.00000000000E+00  0.00000000000E+00  0.15206957993E+04  0.15206957993E+04  0.00000000000E+00 0. -1.
         -1   -1    0    0    0  501 -0.00000000000E+00 -0.00000000000E+00 -0.13113776579E+03  0.13113776579E+03  0.00000000000E+00 0.  1.
         23    2    1    2    0    0 -0.36025441740E+03  0.72438368789E+01  0.11753010010E+04  0.12326178755E+04  0.90435974980E+02 0.  0.
         11    1    3    3    0    0 -0.34175128243E+03 -0.11188045121E+02  0.10384374309E+04  0.10932846881E+04  0.00000000000E+00 0.  1.
        -11    1    3    3    0    0 -0.18503134973E+02  0.18431882000E+02  0.13686357009E+03  0.13933318735E+03  0.00000000000E+00 0. -1.
         22    1    1    2    0    0  0.36025441740E+03 -0.72438368789E+01  0.21425703252E+03  0.41921568961E+03  0.00000000000E+00 0.  1.
<mgrwt>
<rscale>  0 0.89313078E+03</rscale>
<asrwt>0</asrwt>
<pdfrwt beam="1">  1        1 0.23395319E+00 0.89313078E+03</pdfrwt>
<pdfrwt beam="2">  1       -1 0.20175042E-01 0.89313078E+03</pdfrwt>
<totfact> 0.12878002E+02</totfact>
</mgrwt>
</event>
<event>
 6    1  0.8968082E-007  0.3368689E+04  0.7818608E-02  0.8145634E-01
         -2   -1    0    0    0  501 -0.00000000000E+00  0.00000000000E+00  0.82560614187E+03  0.82560614187E+03  0.00000000000E+00 0.  1.
          2   -1    0    0  501    0  0.00000000000E+00 -0.00000000000E+00 -0.34362836115E+04  0.34362836115E+04  0.00000000000E+00 0. -1.
         23    2    1    2    0    0 -0.12816481125E+04 -0.15104460430E+03 -0.26732484809E+04  0.29698558962E+04  0.91379683677E+02 0.  0.
         11    1    3    3    0    0 -0.77478418757E+03 -0.50312246550E+02 -0.16474131665E+04  0.18212061939E+04  0.00000000000E+00 0. -1.
        -11    1    3    3    0    0 -0.50686392492E+03 -0.10073235775E+03 -0.10258353144E+04  0.11486497022E+04  0.00000000000E+00 0.  1.
         22    1    1    2    0    0  0.12816481125E+04  0.15104460430E+03  0.62571011266E+02  0.12920338572E+04  0.00000000000E+00 0.  1.
<mgrwt>
<rscale>  0 0.33686893E+04</rscale>
<asrwt>0</asrwt>
<pdfrwt beam="1">  1        2 0.52865903E+00 0.33686893E+04</pdfrwt>
<pdfrwt beam="2">  1       -2 0.12701633E+00 0.33686893E+04</pdfrwt>
<totfact> 0.34388169E-01</totfact>
</mgrwt>
</event>
<event>
 6    1  0.8968082E-007  0.3310051E+04  0.7818608E-02  0.8160343E-01
         -2   -1    0    0    0  501 -0.00000000000E+00  0.00000000000E+00  0.81583933386E+03  0.81583933386E+03  0.00000000000E+00 0.  1.
          2   -1    0    0  501    0  0.00000000000E+00 -0.00000000000E+00 -0.33574120814E+04  0.33574120814E+04  0.00000000000E+00 0. -1.
         23    2    1    2    0    0 -0.90174140826E+03  0.79544419458E+03 -0.27032176764E+04  0.29599921202E+04  0.91096164597E+02 0.  0.
         11    1    3    3    0    0 -0.71752413870E+03  0.67896426305E+03 -0.22285945829E+04  0.24377176159E+04  0.00000000000E+00 0.  1.
        -11    1    3    3    0    0 -0.18421726956E+03  0.11647993153E+03 -0.47462309353E+03  0.52227450423E+03  0.00000000000E+00 0. -1.
         22    1    1    2    0    0  0.90174140826E+03 -0.79544419458E+03  0.16164492890E+03  0.12132592951E+04  0.00000000000E+00 0.  1.
<mgrwt>
<rscale>  0 0.33100507E+04</rscale>
<asrwt>0</asrwt>
<pdfrwt beam="1">  1        2 0.51652494E+00 0.33100507E+04</pdfrwt>
<pdfrwt beam="2">  1       -2 0.12551374E+00 0.33100507E+04</pdfrwt>
<totfact> 0.40312419E-01</totfact>
</mgrwt>
</event>
<event>
 6    1  0.8968082E-007  0.1327678E+04  0.7818608E-02  0.9007900E-01
         -2   -1    0    0    0  501 -0.00000000000E+00  0.00000000000E+00  0.60654075163E+03  0.60654075163E+03  0.00000000000E+00 0.  1.
          2   -1    0    0  501    0  0.00000000000E+00 -0.00000000000E+00 -0.72655020864E+03  0.72655020864E+03  0.00000000000E+00 0. -1.
         23    2    1    2    0    0  0.26517954360E+01  0.43463022581E+03  0.43930926217E+03  0.62474930906E+03  0.91698452136E+02 0.  0.
         13    1    3    3    0    0 -0.43703053977E+02  0.18681051527E+03  0.19991250628E+03  0.27707965589E+03  0.00000000000E+00 0. -1.
        -13    1    3    3    0    0  0.46354849413E+02  0.24781971055E+03  0.23939675589E+03  0.34766965316E+03  0.00000000000E+00 0.  1.
         22    1    1    2    0    0 -0.26517954360E+01 -0.43463022581E+03 -0.55931871918E+03  0.70834165121E+03  0.00000000000E+00 0. -1.
<mgrwt>
<rscale>  0 0.13276781E+04</rscale>
<asrwt>0</asrwt>
<pdfrwt beam="1">  1        2 0.11177695E+00 0.13276781E+04</pdfrwt>
<pdfrwt beam="2">  1       -2 0.93313963E-01 0.13276781E+04</pdfrwt>
<totfact> 0.37157672E+01</totfact>
</mgrwt>
</event>
<event>
 6    1  0.8968082E-007  0.1721736E+04  0.7818608E-02  0.8749063E-01
          2   -1    0    0  501    0  0.00000000000E+00  0.00000000000E+00  0.25643571182E+04  0.25643571182E+04  0.00000000000E+00 0. -1.
         -2   -1    0    0    0  501 -0.00000000000E+00 -0.00000000000E+00 -0.28899801468E+03  0.28899801468E+03  0.00000000000E+00 0.  1.
         23    2    1    2    0    0  0.54152927916E+03  0.12288590357E+02  0.22445990627E+04  0.23108137522E+04  0.90720865553E+02 0.  0.
         13    1    3    3    0    0  0.32322141702E+03 -0.23121961797E+02  0.14678219032E+04  0.15031659419E+04  0.00000000000E+00 0. -1.
        -13    1    3    3    0    0  0.21830786215E+03  0.35410552154E+02  0.77677715956E+03  0.80764781031E+03  0.00000000000E+00 0.  1.
         22    1    1    2    0    0 -0.54152927916E+03 -0.12288590357E+02  0.30760040828E+02  0.54254138069E+03  0.00000000000E+00 0.  1.
<mgrwt>
<rscale>  0 0.17217365E+04</rscale>
<asrwt>0</asrwt>
<pdfrwt beam="1">  1        2 0.39451646E+00 0.17217365E+04</pdfrwt>
<pdfrwt beam="2">  1       -2 0.44461235E-01 0.17217365E+04</pdfrwt>
<totfact> 0.14578974E+01</totfact>
</mgrwt>
</event>
<event>
 6    1  0.8968082E-007  0.3927100E+04  0.7818608E-02  0.8019416E-01
         -1   -1    0    0    0  501 -0.00000000000E+00  0.00000000000E+00  0.15302620003E+04  0.15302620003E+04  0.00000000000E+00 0.  1.
          1   -1    0    0  501    0  0.00000000000E+00 -0.00000000000E+00 -0.25195214641E+04  0.25195214641E+04  0.00000000000E+00 0. -1.
         23    2    1    2    0    0  0.88503646030E+03 -0.14025396448E+04  0.58725521714E+03  0.17615952006E+04  0.89117729027E+02 0.  0.
         13    1    3    3    0    0  0.11656894600E+03 -0.14386590595E+03  0.47068732077E+02  0.19105282936E+03  0.00000000000E+00 0.  1.
        -13    1    3    3    0    0  0.76846751430E+03 -0.12586737388E+04  0.54018648506E+03  0.15705423713E+04  0.00000000000E+00 0. -1.
         22    1    1    2    0    0 -0.88503646030E+03  0.14025396448E+04 -0.15765146809E+04  0.22881882637E+04  0.00000000000E+00 0. -1.
<mgrwt>
<rscale>  0 0.39270997E+04</rscale>
<asrwt>0</asrwt>
<pdfrwt beam="1">  1        1 0.38761868E+00 0.39270997E+04</pdfrwt>
<pdfrwt beam="2">  1       -1 0.23542493E+00 0.39270997E+04</pdfrwt>
<totfact> 0.89838202E-02</totfact>
</mgrwt>
</event>
<event>
 6    1  0.8968082E-007  0.3262153E+04  0.7818608E-02  0.8172593E-01
         -1   -1    0    0    0  501 -0.00000000000E+00  0.00000000000E+00  0.11356459361E+04  0.11356459361E+04  0.00000000000E+00 0.  1.
          1   -1    0    0  501    0  0.00000000000E+00 -0.00000000000E+00 -0.23426413458E+04  0.23426413458E+04  0.00000000000E+00 0. -1.
         23    2    1    2    0    0 -0.18571482298E+03  0.15941803658E+04 -0.30202369081E+03  0.16357686670E+04  0.92842814212E+02 0.  0.
         13    1    3    3    0    0 -0.69400483926E+02  0.47384669956E+03 -0.49503799365E+02  0.48145378595E+03  0.00000000000E+00 0. -1.
        -13    1    3    3    0    0 -0.11631433905E+03  0.11203336662E+04 -0.25251989144E+03  0.11543148811E+04  0.00000000000E+00 0.  1.
         22    1    1    2    0    0  0.18571482298E+03 -0.15941803658E+04 -0.90497171885E+03  0.18425186148E+04  0.00000000000E+00 0. -1.
<mgrwt>
<rscale>  0 0.32621534E+04</rscale>
<asrwt>0</asrwt>
<pdfrwt beam="1">  1        1 0.36040636E+00 0.32621534E+04</pdfrwt>
<pdfrwt beam="2">  1       -1 0.17471476E+00 0.32621534E+04</pdfrwt>
<totfact> 0.32904844E-01</totfact>
</mgrwt>
</event>
<event>
 6    1  0.8968082E-007  0.1445028E+04  0.7818608E-02  0.8921855E-01
         -2   -1    0    0    0  501 -0.00000000000E+00  0.00000000000E+00  0.20461305872E+03  0.20461305872E+03  0.00000000000E+00 0.  1.
          2   -1    0    0  501    0  0.00000000000E+00 -0.00000000000E+00 -0.25512848106E+04  0.25512848106E+04  0.00000000000E+00 0. -1.
         23    2    1    2    0    0 -0.60097661118E+03 -0.24351671582E+03 -0.58360654649E+03  0.87736860509E+03  0.93304823170E+02 0.  0.
         13    1    3    3    0    0 -0.37503520774E+03 -0.10917927754E+03 -0.37909801178E+03  0.54432235323E+03  0.00000000000E+00 0.  1.
        -13    1    3    3    0    0 -0.22594140344E+03 -0.13433743827E+03 -0.20450853471E+03  0.33304625186E+03  0.00000000000E+00 0. -1.
         22    1    1    2    0    0  0.60097661118E+03  0.24351671582E+03 -0.17630652054E+04  0.18785292642E+04  0.00000000000E+00 0.  1.
<mgrwt>
<rscale>  0 0.14450276E+04</rscale>
<asrwt>0</asrwt>
<pdfrwt beam="1">  1        2 0.39250533E+00 0.14450276E+04</pdfrwt>
<pdfrwt beam="2">  1       -2 0.31478934E-01 0.14450276E+04</pdfrwt>
<totfact> 0.29649333E+01</totfact>
</mgrwt>
</event>
<event>
 6    1  0.8968082E-007  0.3852049E+04  0.7818608E-02  0.8035077E-01
          2   -1    0    0  501    0  0.00000000000E+00  0.00000000000E+00  0.29504098692E+04  0.29504098692E+04  0.00000000000E+00 0. -1.
         -2   -1    0    0    0  501 -0.00000000000E+00 -0.00000000000E+00 -0.12573069545E+04  0.12573069545E+04  0.00000000000E+00 0.  1.
         23    2    1    2    0    0  0.47704482898E+03 -0.68370902918E+02  0.28828609222E+04  0.29240617043E+04  0.83686346982E+02 0.  0.
         11    1    3    3    0    0  0.34623227409E+03 -0.52800804844E+02  0.18529050459E+04  0.18857152017E+04  0.00000000000E+00 0. -1.
        -11    1    3    3    0    0  0.13081255489E+03 -0.15570098074E+02  0.10299558763E+04  0.10383465026E+04  0.00000000000E+00 0.  1.
         22    1    1    2    0    0 -0.47704482898E+03  0.68370902918E+02 -0.11897580075E+04  0.12836551194E+04  0.00000000000E+00 0.  1.
<mgrwt>
<rscale>  0 0.38520492E+04</rscale>
<asrwt>0</asrwt>
<pdfrwt beam="1">  1        2 0.45390921E+00 0.38520492E+04</pdfrwt>
<pdfrwt beam="2">  1       -2 0.19343184E+00 0.38520492E+04</pdfrwt>
<totfact> 0.21935353E-01</totfact>
</mgrwt>
</event>
<event>
 6    1  0.8968082E-007  0.1570782E+04  0.7818608E-02  0.8838701E-01
          1   -1    0    0  501    0  0.00000000000E+00  0.00000000000E+00  0.29049372131E+03  0.29049372131E+03  0.00000000000E+00 0. -1.
         -1   -1    0    0    0  501 -0.00000000000E+00 -0.00000000000E+00 -0.21234172802E+04  0.21234172802E+04  0.00000000000E+00 0.  1.
         23    2    1    2    0    0  0.69819387383E+03 -0.28375780975E+03 -0.59479908380E+03  0.96444717102E+03  0.91538055198E+02 0.  0.
         13    1    3    3    0    0  0.39843524252E+03 -0.13638239256E+03 -0.38065330734E+03  0.56766868847E+03  0.00000000000E+00 0.  1.
        -13    1    3    3    0    0  0.29975863131E+03 -0.14737541719E+03 -0.21414577646E+03  0.39677848255E+03  0.00000000000E+00 0. -1.
         22    1    1    2    0    0 -0.69819387383E+03  0.28375780975E+03 -0.12381244750E+04  0.14494638304E+04  0.00000000000E+00 0.  1.
<mgrwt>
<rscale>  0 0.15707825E+04</rscale>
<asrwt>0</asrwt>
<pdfrwt beam="1">  1        1 0.44691340E-01 0.15707825E+04</pdfrwt>
<pdfrwt beam="2">  1       -1 0.32667959E+00 0.15707825E+04</pdfrwt>
<totfact> 0.19530331E+00</totfact>
</mgrwt>
</event>
<event>
 6    1  0.8968082E-007  0.3397077E+04  0.7818608E-02  0.8138624E-01
         -1   -1    0    0    0  501 -0.00000000000E+00  0.00000000000E+00  0.13376733059E+04  0.13376733059E+04  0.00000000000E+00 0.  1.
          1   -1    0    0  501    0  0.00000000000E+00 -0.00000000000E+00 -0.21567551339E+04  0.21567551339E+04  0.00000000000E+00 0. -1.
         23    2    1    2    0    0  0.43957061274E+02  0.14506720574E+04  0.49536418219E+03  0.15363298837E+04  0.92424007254E+02 0.  0.
         11    1    3    3    0    0  0.13505669300E+02  0.10456880881E+04  0.31703150941E+03  0.10927739742E+04  0.00000000000E+00 0. -1.
        -11    1    3    3    0    0  0.30451391974E+02  0.40498396935E+03  0.17833267278E+03  0.44355590953E+03  0.00000000000E+00 0.  1.
         22    1    1    2    0    0 -0.43957061274E+02 -0.14506720574E+04 -0.13144460102E+04  0.19580985560E+04  0.00000000000E+00 0. -1.
<mgrwt>
<rscale>  0 0.33970774E+04</rscale>
<asrwt>0</asrwt>
<pdfrwt beam="1">  1        1 0.33180848E+00 0.33970774E+04</pdfrwt>
<pdfrwt beam="2">  1       -1 0.20579589E+00 0.33970774E+04</pdfrwt>
<totfact> 0.26347779E-01</totfact>
</mgrwt>
</event>
<event>
 6    1  0.8968082E-007  0.1631471E+04  0.7818608E-02  0.8801444E-01
          2   -1    0    0  501    0  0.00000000000E+00  0.00000000000E+00  0.21273674363E+04  0.21273674363E+04  0.00000000000E+00 0. -1.
         -2   -1    0    0    0  501 -0.00000000000E+00 -0.00000000000E+00 -0.31279259396E+03  0.31279259396E+03  0.00000000000E+00 0.  1.
         23    2    1    2    0    0  0.43925170709E+03 -0.56378059192E+03  0.32978207746E+03  0.79231289758E+03  0.90625002330E+02 0.  0.
         11    1    3    3    0    0  0.10991701875E+03 -0.15805363328E+03  0.13268662109E+03  0.23381283417E+03  0.00000000000E+00 0. -1.
        -11    1    3    3    0    0  0.32933468834E+03 -0.40572695864E+03  0.19709545637E+03  0.55850006341E+03  0.00000000000E+00 0.  1.
         22    1    1    2    0    0 -0.43925170709E+03  0.56378059192E+03  0.14847927649E+04  0.16478471326E+04  0.00000000000E+00 0. -1.
<mgrwt>
<rscale>  0 0.16314715E+04</rscale>
<asrwt>0</asrwt>
<pdfrwt beam="1">  1        2 0.32728729E+00 0.16314715E+04</pdfrwt>
<pdfrwt beam="2">  1       -2 0.48121939E-01 0.16314715E+04</pdfrwt>
<totfact> 0.22208982E+01</totfact>
</mgrwt>
</event>
<event>
 6    1  0.8968082E-007  0.3348739E+04  0.7818608E-02  0.8150603E-01
         -2   -1    0    0    0  501 -0.00000000000E+00  0.00000000000E+00  0.21713952486E+04  0.21713952486E+04  0.00000000000E+00 0.  1.
          2   -1    0    0  501    0  0.00000000000E+00 -0.00000000000E+00 -0.12911114418E+04  0.12911114418E+04  0.00000000000E+00 0. -1.
         23    2    1    2    0    0  0.13324883357E+04  0.47334299804E+03 -0.48427640848E+03  0.14974104231E+04  0.90197432183E+02 0.  0.
         13    1    3    3    0    0  0.73747053959E+03  0.23660201507E+03 -0.22486375458E+03  0.80647815743E+03  0.00000000000E+00 0. -1.
        -13    1    3    3    0    0  0.59501779609E+03  0.23674098297E+03 -0.25941265390E+03  0.69093226563E+03  0.00000000000E+00 0.  1.
         22    1    1    2    0    0 -0.13324883357E+04 -0.47334299804E+03  0.13645602153E+04  0.19650962673E+04  0.00000000000E+00 0.  1.
<mgrwt>
<rscale>  0 0.33487390E+04</rscale>
<asrwt>0</asrwt>
<pdfrwt beam="1">  1        2 0.19863253E+00 0.33487390E+04</pdfrwt>
<pdfrwt beam="2">  1       -2 0.33406081E+00 0.33487390E+04</pdfrwt>
<totfact> 0.27249475E-01</totfact>
</mgrwt>
</event>
<event>
 6    1  0.8968082E-007  0.2031774E+04  0.7818608E-02  0.8591908E-01
          2   -1    0    0  501    0  0.00000000000E+00  0.00000000000E+00  0.12490400023E+04  0.12490400023E+04  0.00000000000E+00 0. -1.
         -2   -1    0    0    0  501 -0.00000000000E+00 -0.00000000000E+00 -0.82625579494E+03  0.82625579494E+03  0.00000000000E+00 0.  1.
         23    2    1    2    0    0  0.82299379112E+03  0.34814125558E+03 -0.27735696681E+03  0.94007829478E+03  0.91099940848E+02 0.  0.
         13    1    3    3    0    0  0.32577414746E+03  0.11962530125E+03 -0.64870478981E+02  0.35305408495E+03  0.00000000000E+00 0.  1.
        -13    1    3    3    0    0  0.49721964366E+03  0.22851595433E+03 -0.21248648783E+03  0.58702420984E+03  0.00000000000E+00 0. -1.
         22    1    1    2    0    0 -0.82299379112E+03 -0.34814125558E+03  0.70014117413E+03  0.11352175024E+04  0.00000000000E+00 0. -1.
<mgrwt>
<rscale>  0 0.20317741E+04</rscale>
<asrwt>0</asrwt>
<pdfrwt beam="1">  1        2 0.19216000E+00 0.20317741E+04</pdfrwt>
<pdfrwt beam="2">  1       -2 0.12711628E+00 0.20317741E+04</pdfrwt>
<totfact> 0.75449508E+00</totfact>
</mgrwt>
</event>
<event>
 6    1  0.8968082E-007  0.2039554E+04  0.7818608E-02  0.8588348E-01
         -1   -1    0    0    0  501 -0.00000000000E+00  0.00000000000E+00  0.75706603764E+03  0.75706603764E+03  0.00000000000E+00 0.  1.
          1   -1    0    0  501    0  0.00000000000E+00 -0.00000000000E+00 -0.13736517413E+04  0.13736517413E+04  0.00000000000E+00 0. -1.
         23    2    1    2    0    0  0.53900101245E+02  0.23300391641E+03 -0.13430255728E+04  0.13659230814E+04  0.69513518742E+02 0.  0.
         13    1    3    3    0    0  0.59004071458E+02  0.21391724189E+03 -0.11039070533E+04  0.11259897198E+04  0.00000000000E+00 0. -1.
        -13    1    3    3    0    0 -0.51039702127E+01  0.19086674511E+02 -0.23911851948E+03  0.23993336162E+03  0.00000000000E+00 0.  1.
         22    1    1    2    0    0 -0.53900101245E+02 -0.23300391641E+03  0.72643986908E+03  0.76479469753E+03  0.00000000000E+00 0.  1.
<mgrwt>
<rscale>  0 0.20395540E+04</rscale>
<asrwt>0</asrwt>
<pdfrwt beam="1">  1        1 0.21133103E+00 0.20395540E+04</pdfrwt>
<pdfrwt beam="2">  1       -1 0.11647170E+00 0.20395540E+04</pdfrwt>
<totfact> 0.49350265E+00</totfact>
</mgrwt>
</event>
<event>
 6    1  0.9778225E-007  0.3174259E+04  0.7818608E-02  0.8195649E-01
          3   -1    0    0  501    0  0.00000000000E+00  0.00000000000E+00  0.26539689263E+04  0.26539689263E+04  0.00000000000E+00 0. -1.
         -3   -1    0    0    0  501 -0.00000000000E+00 -0.00000000000E+00 -0.94913705111E+03  0.94913705111E+03  0.00000000000E+00 0.  1.
         23    2    1    2    0    0  0.47983586660E+03 -0.60568092562E+03  0.24254237370E+04  0.25465339383E+04  0.71154427719E+02 0.  0.
         11    1    3    3    0    0  0.25189231867E+03 -0.35697694891E+03  0.12837692343E+04  0.13560773316E+04  0.00000000000E+00 0. -1.
        -11    1    3    3    0    0  0.22794354793E+03 -0.24870397671E+03  0.11416545027E+04  0.11904566068E+04  0.00000000000E+00 0.  1.
         22    1    1    2    0    0 -0.47983586660E+03  0.60568092562E+03 -0.72059186178E+03  0.10565720391E+04  0.00000000000E+00 0.  1.
<mgrwt>
<rscale>  0 0.31742591E+04</rscale>
<asrwt>0</asrwt>
<pdfrwt beam="1">  1        3 0.40830291E+00 0.31742591E+04</pdfrwt>
<pdfrwt beam="2">  1       -3 0.14602109E+00 0.31742591E+04</pdfrwt>
<totfact> 0.76064687E-03</totfact>
</mgrwt>
</event>
<event>
 6    1  0.8968082E-007  0.1206302E+04  0.7818608E-02  0.9107358E-01
          2   -1    0    0  501    0  0.00000000000E+00  0.00000000000E+00  0.24436361265E+04  0.24436361265E+04  0.00000000000E+00 0. -1.
         -2   -1    0    0    0  501 -0.00000000000E+00 -0.00000000000E+00 -0.14887289540E+03  0.14887289540E+03  0.00000000000E+00 0.  1.
         23    2    1    2    0    0 -0.56840803574E+03 -0.18859482060E+03  0.10965953256E+04  0.12530083570E+04  0.94090026895E+02 0.  0.
         13    1    3    3    0    0 -0.34884973604E+03 -0.14938944427E+03  0.75573951132E+03  0.84566870190E+03  0.00000000000E+00 0. -1.
        -13    1    3    3    0    0 -0.21955829971E+03 -0.39205376324E+02  0.34085581427E+03  0.40733965511E+03  0.00000000000E+00 0.  1.
         22    1    1    2    0    0  0.56840803574E+03  0.18859482060E+03  0.11981679055E+04  0.13395006649E+04  0.00000000000E+00 0.  1.
<mgrwt>
<rscale>  0 0.12063021E+04</rscale>
<asrwt>0</asrwt>
<pdfrwt beam="1">  1        2 0.37594399E+00 0.12063021E+04</pdfrwt>
<pdfrwt beam="2">  1       -2 0.22903524E-01 0.12063021E+04</pdfrwt>
<totfact> 0.62533547E+01</totfact>
</mgrwt>
</event>
<event>
 6    1  0.8968082E-007  0.6454554E+04  0.7818608E-02  0.7636463E-01
          1   -1    0    0  501    0  0.00000000000E+00  0.00000000000E+00  0.29870162378E+04  0.29870162378E+04  0.00000000000E+00 0. -1.
         -1   -1    0    0    0  501 -0.00000000000E+00 -0.00000000000E+00 -0.34868630172E+04  0.34868630172E+04  0.00000000000E+00 0.  1.
         23    2    1    2    0    0  0.13272792232E+04 -0.21108396674E+04 -0.23039800575E+04  0.33961835062E+04  0.91782702813E+02 0.  0.
         13    1    3    3    0    0  0.10537110777E+04 -0.16199632304E+04 -0.18175857887E+04  0.26529617416E+04  0.00000000000E+00 0.  1.
        -13    1    3    3    0    0  0.27356814548E+03 -0.49087643698E+03 -0.48639426882E+03  0.74322176458E+03  0.00000000000E+00 0. -1.
         22    1    1    2    0    0 -0.13272792232E+04  0.21108396674E+04  0.18041332781E+04  0.30776957489E+04  0.00000000000E+00 0. -1.
<mgrwt>
<rscale>  0 0.64545539E+04</rscale>
<asrwt>0</asrwt>
<pdfrwt beam="1">  1        1 0.45954096E+00 0.64545539E+04</pdfrwt>
<pdfrwt beam="2">  1       -1 0.53644046E+00 0.64545539E+04</pdfrwt>
<totfact> 0.35816565E-04</totfact>
</mgrwt>
</event>
<event>
 6    1  0.8968082E-007  0.1394391E+04  0.7818608E-02  0.8957888E-01
          2   -1    0    0  501    0  0.00000000000E+00  0.00000000000E+00  0.30033458601E+04  0.30033458601E+04  0.00000000000E+00 0. -1.
         -2   -1    0    0    0  501 -0.00000000000E+00 -0.00000000000E+00 -0.16184673916E+03  0.16184673916E+03  0.00000000000E+00 0.  1.
         23    2    1    2    0    0  0.32849540817E+03 -0.54734849656E+03  0.20461870145E+04  0.21453784218E+04  0.90926698701E+02 0.  0.
         13    1    3    3    0    0  0.11069554569E+03 -0.11068821236E+03  0.46968323294E+03  0.49508355203E+03  0.00000000000E+00 0. -1.
        -13    1    3    3    0    0  0.21779986248E+03 -0.43666028421E+03  0.15765037816E+04  0.16502948698E+04  0.00000000000E+00 0.  1.
         22    1    1    2    0    0 -0.32849540817E+03  0.54734849656E+03  0.79531210645E+03  0.10198141775E+04  0.00000000000E+00 0.  1.
<mgrwt>
<rscale>  0 0.13943912E+04</rscale>
<asrwt>0</asrwt>
<pdfrwt beam="1">  1        2 0.46205317E+00 0.13943912E+04</pdfrwt>
<pdfrwt beam="2">  1       -2 0.24899501E-01 0.13943912E+04</pdfrwt>
<totfact> 0.24610324E+01</totfact>
</mgrwt>
</event>
<event>
 6    1  0.8968082E-007  0.3357465E+04  0.7818608E-02  0.8148426E-01
         -2   -1    0    0    0  501 -0.00000000000E+00  0.00000000000E+00  0.11250142349E+04  0.11250142349E+04  0.00000000000E+00 0.  1.
          2   -1    0    0  501    0  0.00000000000E+00 -0.00000000000E+00 -0.25049835032E+04  0.25049835032E+04  0.00000000000E+00 0. -1.
         23    2    1    2    0    0 -0.20067719327E+03  0.13547016157E+04  0.35713358098E+03  0.14179818900E+04  0.87409622421E+02 0.  0.
         13    1    3    3    0    0 -0.15880829418E+03  0.81794691360E+03  0.19535934228E+03  0.85581686148E+03  0.00000000000E+00 0. -1.
        -13    1    3    3    0    0 -0.41868899090E+02  0.53675470212E+03  0.16177423870E+03  0.56216502850E+03  0.00000000000E+00 0.  1.
         22    1    1    2    0    0  0.20067719327E+03 -0.13547016157E+04 -0.17371028493E+04  0.22120158481E+04  0.00000000000E+00 0. -1.
<mgrwt>
<rscale>  0 0.33574646E+04</rscale>
<asrwt>0</asrwt>
<pdfrwt beam="1">  1        2 0.38538207E+00 0.33574646E+04</pdfrwt>
<pdfrwt beam="2">  1       -2 0.17307912E+00 0.33574646E+04</pdfrwt>
<totfact> 0.58259527E-01</totfact>
</mgrwt>
</event>
<event>
 6    1  0.8968082E-007  0.1604326E+04  0.7818608E-02  0.8817895E-01
          1   -1    0    0  501    0  0.00000000000E+00  0.00000000000E+00  0.14315757594E+04  0.14315757594E+04  0.00000000000E+00 0. -1.
         -1   -1    0    0    0  501 -0.00000000000E+00 -0.00000000000E+00 -0.44948038441E+03  0.44948038441E+03  0.00000000000E+00 0.  1.
         23    2    1    2    0    0 -0.14565914733E+03  0.16355448704E+03  0.13942656039E+04  0.14143110796E+04  0.91283065186E+02 0.  0.
         11    1    3    3    0    0 -0.11439144277E+03  0.16661190328E+03  0.12777416157E+04  0.12936261303E+04  0.00000000000E+00 0. -1.
        -11    1    3    3    0    0 -0.31267704556E+02 -0.30574162394E+01  0.11652398827E+03  0.12068494928E+03  0.00000000000E+00 0.  1.
         22    1    1    2    0    0  0.14565914733E+03 -0.16355448704E+03 -0.41217022892E+03  0.46674506429E+03  0.00000000000E+00 0.  1.
<mgrwt>
<rscale>  0 0.16043257E+04</rscale>
<asrwt>0</asrwt>
<pdfrwt beam="1">  1        1 0.22024242E+00 0.16043257E+04</pdfrwt>
<pdfrwt beam="2">  1       -1 0.69150829E-01 0.16043257E+04</pdfrwt>
<totfact> 0.14814863E+01</totfact>
</mgrwt>
</event>
<event>
 6    1  0.8968082E-007  0.3249109E+04  0.7818608E-02  0.8175967E-01
          1   -1    0    0  501    0  0.00000000000E+00  0.00000000000E+00  0.20235897284E+04  0.20235897284E+04  0.00000000000E+00 0. -1.
         -1   -1    0    0    0  501 -0.00000000000E+00 -0.00000000000E+00 -0.13042054727E+04  0.13042054727E+04  0.00000000000E+00 0.  1.
         23    2    1    2    0    0  0.12557382139E+04  0.54034430866E+03  0.12566824094E+04  0.18589385914E+04  0.86899797877E+02 0.  0.
         13    1    3    3    0    0  0.16624498110E+03  0.70255044589E+02  0.20774910190E+03  0.27519602899E+03  0.00000000000E+00 0. -1.
        -13    1    3    3    0    0  0.10894932328E+04  0.47008926408E+03  0.10489333075E+04  0.15837425624E+04  0.00000000000E+00 0.  1.
         22    1    1    2    0    0 -0.12557382139E+04 -0.54034430866E+03 -0.53729815375E+03  0.14688566097E+04  0.00000000000E+00 0.  1.
<mgrwt>
<rscale>  0 0.32491087E+04</rscale>
<asrwt>0</asrwt>
<pdfrwt beam="1">  1        1 0.31132150E+00 0.32491087E+04</pdfrwt>
<pdfrwt beam="2">  1       -1 0.20064700E+00 0.32491087E+04</pdfrwt>
<totfact> 0.35647846E-01</totfact>
</mgrwt>
</event>
<event>
 6    1  0.8968082E-007  0.3611171E+04  0.7818608E-02  0.8087938E-01
          2   -1    0    0  501    0  0.00000000000E+00  0.00000000000E+00  0.21144231917E+04  0.21144231917E+04  0.00000000000E+00 0. -1.
         -2   -1    0    0    0  501 -0.00000000000E+00 -0.00000000000E+00 -0.15418577026E+04  0.15418577026E+04  0.00000000000E+00 0.  1.
         23    2    1    2    0    0 -0.15225908339E+04 -0.39826755792E+03  0.11802763245E+04  0.19692087694E+04  0.88493389670E+02 0.  0.
         11    1    3    3    0    0 -0.80798643481E+03 -0.20106053926E+03  0.57050780553E+03  0.10093297655E+04  0.00000000000E+00 0.  1.
        -11    1    3    3    0    0 -0.71460439910E+03 -0.19720701867E+03  0.60976851897E+03  0.95987900391E+03  0.00000000000E+00 0. -1.
         22    1    1    2    0    0  0.15225908339E+04  0.39826755792E+03 -0.60771083536E+03  0.16870721249E+04  0.00000000000E+00 0.  1.
<mgrwt>
<rscale>  0 0.36111714E+04</rscale>
<asrwt>0</asrwt>
<pdfrwt beam="1">  1        2 0.32529587E+00 0.36111714E+04</pdfrwt>
<pdfrwt beam="2">  1       -2 0.23720888E+00 0.36111714E+04</pdfrwt>
<totfact> 0.36207630E-01</totfact>
</mgrwt>
</event>
<event>
 6    1  0.8968082E-007  0.1101178E+04  0.7818608E-02  0.9204045E-01
         -2   -1    0    0    0  501 -0.00000000000E+00  0.00000000000E+00  0.17914560981E+03  0.17914560981E+03  0.00000000000E+00 0.  1.
          2   -1    0    0  501    0  0.00000000000E+00 -0.00000000000E+00 -0.16921889810E+04  0.16921889810E+04  0.00000000000E+00 0. -1.
         23    2    1    2    0    0 -0.42483723566E+03  0.31357846457E+02 -0.17908437845E+03  0.47100727705E+03  0.91140820123E+02 0.  0.
         11    1    3    3    0    0 -0.14384317048E+03 -0.16446639260E+01 -0.10630888581E+03  0.17887185864E+03  0.00000000000E+00 0. -1.
        -11    1    3    3    0    0 -0.28099406518E+03  0.33002510383E+02 -0.72775492638E+02  0.29213541841E+03  0.00000000000E+00 0.  1.
         22    1    1    2    0    0  0.42483723566E+03 -0.31357846457E+02 -0.13339589928E+04  0.14003273138E+04  0.00000000000E+00 0. -1.
<mgrwt>
<rscale>  0 0.11011780E+04</rscale>
<asrwt>0</asrwt>
<pdfrwt beam="1">  1        2 0.26033676E+00 0.11011780E+04</pdfrwt>
<pdfrwt beam="2">  1       -2 0.27560864E-01 0.11011780E+04</pdfrwt>
<totfact> 0.11802433E+02</totfact>
</mgrwt>
</event>
<event>
 6    1  0.8968082E-007  0.1229292E+04  0.7818608E-02  0.9087596E-01
          1   -1    0    0  501    0  0.00000000000E+00  0.00000000000E+00  0.27364355777E+04  0.27364355777E+04  0.00000000000E+00 0. -1.
         -1   -1    0    0    0  501 -0.00000000000E+00 -0.00000000000E+00 -0.13805916514E+03  0.13805916514E+03  0.00000000000E+00 0.  1.
         23    2    1    2    0    0  0.33617465398E+03  0.48733560272E+03  0.16620396019E+04  0.17666878957E+04  0.91110343672E+02 0.  0.
         13    1    3    3    0    0  0.54867562969E+01  0.17377517888E+02  0.11371956237E+03  0.11517040196E+03  0.00000000000E+00 0. -1.
        -13    1    3    3    0    0  0.33068789768E+03  0.46995808483E+03  0.15483200396E+04  0.16515174937E+04  0.00000000000E+00 0.  1.
         22    1    1    2    0    0 -0.33617465398E+03 -0.48733560272E+03  0.93633681062E+03  0.11078068471E+04  0.00000000000E+00 0. -1.
<mgrwt>
<rscale>  0 0.12292925E+04</rscale>
<asrwt>0</asrwt>
<pdfrwt beam="1">  1        1 0.42099005E+00 0.12292925E+04</pdfrwt>
<pdfrwt beam="2">  1       -1 0.21239874E-01 0.12292925E+04</pdfrwt>
<totfact> 0.17029744E+01</totfact>
</mgrwt>
</event>
<event>
 6    1  0.8968082E-007  0.1607576E+04  0.7818608E-02  0.8815907E-01
         -2   -1    0    0    0  501 -0.00000000000E+00  0.00000000000E+00  0.46780040634E+03  0.46780040634E+03  0.00000000000E+00 0.  1.
          2   -1    0    0  501    0  0.00000000000E+00 -0.00000000000E+00 -0.13810910401E+04  0.13810910401E+04  0.00000000000E+00 0. -1.
         23    2    1    2    0    0 -0.28636370328E+03 -0.18563233964E+03  0.37552980461E+03  0.51565416133E+03  0.91722646457E+02 0.  0.
         13    1    3    3    0    0 -0.21416570402E+03 -0.93642599562E+02  0.27935987635E+03  0.36424967502E+03  0.00000000000E+00 0. -1.
        -13    1    3    3    0    0 -0.72197999253E+02 -0.91989740076E+02  0.96169928255E+02  0.15140448631E+03  0.00000000000E+00 0.  1.
         22    1    1    2    0    0  0.28636370328E+03  0.18563233964E+03 -0.12888204383E+04  0.13332372851E+04  0.00000000000E+00 0. -1.
<mgrwt>
<rscale>  0 0.16075758E+04</rscale>
<asrwt>0</asrwt>
<pdfrwt beam="1">  1        2 0.21247554E+00 0.16075758E+04</pdfrwt>
<pdfrwt beam="2">  1       -2 0.71969296E-01 0.16075758E+04</pdfrwt>
<totfact> 0.24871894E+01</totfact>
</mgrwt>
</event>
<event>
 6    1  0.8968082E-007  0.4374770E+04  0.7818608E-02  0.7932935E-01
         -2   -1    0    0    0  501 -0.00000000000E+00  0.00000000000E+00  0.26507946763E+04  0.26507946763E+04  0.00000000000E+00 0.  1.
          2   -1    0    0  501    0  0.00000000000E+00 -0.00000000000E+00 -0.18049884089E+04  0.18049884089E+04  0.00000000000E+00 0. -1.
         23    2    1    2    0    0  0.11991294603E+04  0.78784533567E+03  0.21034553393E+04  0.25478279172E+04  0.91054903799E+02 0.  0.
         13    1    3    3    0    0  0.28855083037E+03  0.15611427884E+03  0.43534942218E+03  0.54512601218E+03  0.00000000000E+00 0. -1.
        -13    1    3    3    0    0  0.91057862992E+03  0.63173105683E+03  0.16681059171E+04  0.20027019050E+04  0.00000000000E+00 0.  1.
         22    1    1    2    0    0 -0.11991294603E+04 -0.78784533567E+03 -0.12576490719E+04  0.19079551681E+04  0.00000000000E+00 0. -1.
<mgrwt>
<rscale>  0 0.43747702E+04</rscale>
<asrwt>0</asrwt>
<pdfrwt beam="1">  1        2 0.27769053E+00 0.43747702E+04</pdfrwt>
<pdfrwt beam="2">  1       -2 0.40781456E+00 0.43747702E+04</pdfrwt>
<totfact> 0.43290646E-02</totfact>
</mgrwt>
</event>
<event>
 6    1  0.8968082E-007  0.1600572E+04  0.7818608E-02  0.8820197E-01
         -1   -1    0    0    0  501 -0.00000000000E+00  0.00000000000E+00  0.61324264978E+03  0.61324264978E+03  0.00000000000E+00 0.  1.
          1   -1    0    0  501    0  0.00000000000E+00 -0.00000000000E+00 -0.10443783222E+04  0.10443783222E+04  0.00000000000E+00 0. -1.
         23    2    1    2    0    0 -0.57948391217E+03 -0.19637793498E+03 -0.74625443192E+03  0.96938719607E+03  0.91923669084E+02 0.  0.
         11    1    3    3    0    0 -0.27004348361E+03 -0.51527333263E+02 -0.29296523682E+03  0.40175512330E+03  0.00000000000E+00 0. -1.
        -11    1    3    3    0    0 -0.30944042856E+03 -0.14485060172E+03 -0.45328919509E+03  0.56763207277E+03  0.00000000000E+00 0.  1.
         22    1    1    2    0    0  0.57948391217E+03  0.19637793498E+03  0.31511875945E+03  0.68823377595E+03  0.00000000000E+00 0.  1.
<mgrwt>
<rscale>  0 0.16005716E+04</rscale>
<asrwt>0</asrwt>
<pdfrwt beam="1">  1        1 0.16067359E+00 0.16005716E+04</pdfrwt>
<pdfrwt beam="2">  1       -1 0.94345023E-01 0.16005716E+04</pdfrwt>
<totfact> 0.14588263E+01</totfact>
</mgrwt>
</event>
<event>
 6    1  0.8968082E-007  0.2062863E+04  0.7818608E-02  0.8577781E-01
          2   -1    0    0  501    0  0.00000000000E+00  0.00000000000E+00  0.21456603564E+04  0.21456603564E+04  0.00000000000E+00 0. -1.
         -2   -1    0    0    0  501 -0.00000000000E+00 -0.00000000000E+00 -0.49581496073E+03  0.49581496073E+03  0.00000000000E+00 0.  1.
         23    2    1    2    0    0  0.77969908027E+03 -0.49582033461E+03  0.14074659656E+04  0.16862181538E+04  0.92751052657E+02 0.  0.
         11    1    3    3    0    0  0.37440812882E+03 -0.29302102357E+03  0.71883177252E+03  0.86183634431E+03  0.00000000000E+00 0. -1.
        -11    1    3    3    0    0  0.40529095145E+03 -0.20279931104E+03  0.68863419308E+03  0.82438180946E+03  0.00000000000E+00 0.  1.
         22    1    1    2    0    0 -0.77969908027E+03  0.49582033461E+03  0.24237943001E+03  0.95525716332E+03  0.00000000000E+00 0.  1.
<mgrwt>
<rscale>  0 0.20628626E+04</rscale>
<asrwt>0</asrwt>
<pdfrwt beam="1">  1        2 0.33010159E+00 0.20628626E+04</pdfrwt>
<pdfrwt beam="2">  1       -2 0.76279226E-01 0.20628626E+04</pdfrwt>
<totfact> 0.78745906E+00</totfact>
</mgrwt>
</event>
<event>
 6    1  0.8968082E-007  0.3344459E+04  0.7818608E-02  0.8151674E-01
          2   -1    0    0  501    0  0.00000000000E+00  0.00000000000E+00  0.14859402446E+04  0.14859402446E+04  0.00000000000E+00 0. -1.
         -2   -1    0    0    0  501 -0.00000000000E+00 -0.00000000000E+00 -0.18818733288E+04  0.18818733288E+04  0.00000000000E+00 0.  1.
         23    2    1    2    0    0  0.12600490320E+04 -0.73447574309E+03  0.62293285820E+03  0.15886941314E+04  0.93410476478E+02 0.  0.
         11    1    3    3    0    0  0.78198927139E+03 -0.50621349053E+03  0.38516418057E+03  0.10080231964E+04  0.00000000000E+00 0. -1.
        -11    1    3    3    0    0  0.47805976058E+03 -0.22826225256E+03  0.23776867764E+03  0.58067093495E+03  0.00000000000E+00 0.  1.
         22    1    1    2    0    0 -0.12600490320E+04  0.73447574309E+03 -0.10188659424E+04  0.17791194419E+04  0.00000000000E+00 0. -1.
<mgrwt>
<rscale>  0 0.33444589E+04</rscale>
<asrwt>0</asrwt>
<pdfrwt beam="1">  1        2 0.22860619E+00 0.33444589E+04</pdfrwt>
<pdfrwt beam="2">  1       -2 0.28951897E+00 0.33444589E+04</pdfrwt>
<totfact> 0.39631298E-01</totfact>
</mgrwt>
</event>
<event>
 6    1  0.8968082E-007  0.2312477E+04  0.7818608E-02  0.8473018E-01
         -2   -1    0    0    0  501 -0.00000000000E+00  0.00000000000E+00  0.26067546130E+04  0.26067546130E+04  0.00000000000E+00 0.  1.
          2   -1    0    0  501    0  0.00000000000E+00 -0.00000000000E+00 -0.51285534238E+03  0.51285534238E+03  0.00000000000E+00 0. -1.
         23    2    1    2    0    0 -0.50381307571E+03  0.52233465281E+03  0.22598059252E+04  0.23751731731E+04  0.89797981507E+02 0.  0.
         13    1    3    3    0    0 -0.69716029331E+01  0.27001885402E+02  0.12376045394E+03  0.12686352913E+03  0.00000000000E+00 0. -1.
        -13    1    3    3    0    0 -0.49684147278E+03  0.49533276741E+03  0.21360454713E+04  0.22483096439E+04  0.00000000000E+00 0.  1.
         22    1    1    2    0    0  0.50381307571E+03 -0.52233465281E+03 -0.16590665465E+03  0.74443678230E+03  0.00000000000E+00 0. -1.
<mgrwt>
<rscale>  0 0.23124775E+04</rscale>
<asrwt>0</asrwt>
<pdfrwt beam="1">  1        2 0.78900823E-01 0.23124775E+04</pdfrwt>
<pdfrwt beam="2">  1       -2 0.40103916E+00 0.23124775E+04</pdfrwt>
<totfact> 0.39603826E-01</totfact>
</mgrwt>
</event>
<event>
 6    1  0.8968082E-007  0.4194181E+04  0.7818608E-02  0.7966480E-01
         -2   -1    0    0    0  501 -0.00000000000E+00  0.00000000000E+00  0.10578375177E+04  0.10578375177E+04  0.00000000000E+00 0.  1.
          2   -1    0    0  501    0  0.00000000000E+00 -0.00000000000E+00 -0.41573387297E+04  0.41573387297E+04  0.00000000000E+00 0. -1.
         23    2    1    2    0    0  0.27926955906E+03  0.11577145117E+04 -0.36953219365E+04  0.38835243737E+04  0.89794039230E+02 0.  0.
         11    1    3    3    0    0  0.19939678591E+03  0.93083305508E+03 -0.30326996201E+04  0.31785965835E+04  0.00000000000E+00 0. -1.
        -11    1    3    3    0    0  0.79872773148E+02  0.22688145658E+03 -0.66262231645E+03  0.70492779027E+03  0.00000000000E+00 0.  1.
         22    1    1    2    0    0 -0.27926955906E+03 -0.11577145117E+04  0.59582072455E+03  0.13316518738E+04  0.00000000000E+00 0.  1.
<mgrwt>
<rscale>  0 0.41941812E+04</rscale>
<asrwt>0</asrwt>
<pdfrwt beam="1">  1        2 0.63959058E+00 0.41941812E+04</pdfrwt>
<pdfrwt beam="2">  1       -2 0.16274423E+00 0.41941812E+04</pdfrwt>
<totfact> 0.47028510E-02</totfact>
</mgrwt>
</event>
<event>
 6    1  0.8968082E-007  0.4294196E+03  0.7818608E-02  0.1034043E+00
         -2   -1    0    0    0  501 -0.00000000000E+00  0.00000000000E+00  0.66996736638E+02  0.66996736638E+02  0.00000000000E+00 0.  1.
          2   -1    0    0  501    0  0.00000000000E+00 -0.00000000000E+00 -0.68809775470E+03  0.68809775470E+03  0.00000000000E+00 0. -1.
         23    2    1    2    0    0 -0.44985050212E+02  0.10074511909E+03 -0.20957317477E+02  0.14489313513E+03  0.91550956795E+02 0.  0.
         11    1    3    3    0    0  0.45408167509E+00 -0.15812269092E+02 -0.11258983056E+02  0.19416455481E+02  0.00000000000E+00 0.  1.
        -11    1    3    3    0    0 -0.45439131887E+02  0.11655738818E+03 -0.96983344205E+01  0.12547667965E+03  0.00000000000E+00 0. -1.
         22    1    1    2    0    0  0.44985050212E+02 -0.10074511909E+03 -0.60014370059E+03  0.61020135621E+03  0.00000000000E+00 0. -1.
<mgrwt>
<rscale>  0 0.42941963E+03</rscale>
<asrwt>0</asrwt>
<pdfrwt beam="1">  1        2 0.10586119E+00 0.42941963E+03</pdfrwt>
<pdfrwt beam="2">  1       -2 0.10307190E-01 0.42941963E+03</pdfrwt>
<totfact> 0.27220743E+03</totfact>
</mgrwt>
</event>
<event>
 6    1  0.8968082E-007  0.1985317E+04  0.7818608E-02  0.8613516E-01
         -1   -1    0    0    0  501 -0.00000000000E+00  0.00000000000E+00  0.91645890824E+03  0.91645890824E+03  0.00000000000E+00 0.  1.
          1   -1    0    0  501    0  0.00000000000E+00 -0.00000000000E+00 -0.10751940253E+04  0.10751940253E+04  0.00000000000E+00 0. -1.
         23    2    1    2    0    0  0.40955506180E+03 -0.36766749676E+03  0.74669071964E+03  0.93207250592E+03  0.91090003096E+02 0.  0.
         13    1    3    3    0    0  0.28470989616E+03 -0.22679859816E+03  0.55248464837E+03  0.66161666831E+03  0.00000000000E+00 0. -1.
        -13    1    3    3    0    0  0.12484516565E+03 -0.14086889860E+03  0.19420607127E+03  0.27045583761E+03  0.00000000000E+00 0.  1.
         22    1    1    2    0    0 -0.40955506180E+03  0.36766749676E+03 -0.90542583665E+03  0.10595804276E+04  0.00000000000E+00 0. -1.
<mgrwt>
<rscale>  0 0.19853172E+04</rscale>
<asrwt>0</asrwt>
<pdfrwt beam="1">  1        1 0.16541446E+00 0.19853172E+04</pdfrwt>
<pdfrwt beam="2">  1       -1 0.14099368E+00 0.19853172E+04</pdfrwt>
<totfact> 0.50600996E+00</totfact>
</mgrwt>
</event>
<event>
 6    1  0.8968082E-007  0.1376089E+04  0.7818608E-02  0.8971310E-01
          1   -1    0    0  501    0  0.00000000000E+00  0.00000000000E+00  0.66256770563E+03  0.66256770563E+03  0.00000000000E+00 0. -1.
         -1   -1    0    0    0  501 -0.00000000000E+00 -0.00000000000E+00 -0.71450132355E+03  0.71450132355E+03  0.00000000000E+00 0.  1.
         23    2    1    2    0    0  0.60545448024E+03 -0.31632000288E+03  0.26162429442E+02  0.68951360271E+03  0.90061444309E+02 0.  0.
         13    1    3    3    0    0  0.13047027982E+03 -0.11200775701E+03  0.69109051008E+01  0.17209297532E+03  0.00000000000E+00 0.  1.
        -13    1    3    3    0    0  0.47498420042E+03 -0.20431224587E+03  0.19251524341E+02  0.51742062739E+03  0.00000000000E+00 0. -1.
         22    1    1    2    0    0 -0.60545448024E+03  0.31632000288E+03 -0.78096047360E+02  0.68755542647E+03  0.00000000000E+00 0. -1.
<mgrwt>
<rscale>  0 0.13760894E+04</rscale>
<asrwt>0</asrwt>
<pdfrwt beam="1">  1        1 0.10193349E+00 0.13760894E+04</pdfrwt>
<pdfrwt beam="2">  1       -1 0.10992328E+00 0.13760894E+04</pdfrwt>
<totfact> 0.22113581E+01</totfact>
</mgrwt>
</event>
<event>
 6    1  0.8968082E-007  0.1586349E+04  0.7818608E-02  0.8828979E-01
         -2   -1    0    0    0  501 -0.00000000000E+00  0.00000000000E+00  0.45090699575E+03  0.45090699575E+03  0.00000000000E+00 0.  1.
          2   -1    0    0  501    0  0.00000000000E+00 -0.00000000000E+00 -0.13952447017E+04  0.13952447017E+04  0.00000000000E+00 0. -1.
         23    2    1    2    0    0 -0.30717571563E+03 -0.25159369361E+03  0.32182932699E+03  0.51918701736E+03  0.91239993113E+02 0.  0.
         13    1    3    3    0    0 -0.18899273754E+03 -0.20448891562E+03  0.19817419209E+03  0.34177036423E+03  0.00000000000E+00 0.  1.
        -13    1    3    3    0    0 -0.11818297810E+03 -0.47104777989E+02  0.12365513489E+03  0.17741665313E+03  0.00000000000E+00 0. -1.
         22    1    1    2    0    0  0.30717571563E+03  0.25159369361E+03 -0.12661670330E+04  0.13269646801E+04  0.00000000000E+00 0. -1.
<mgrwt>
<rscale>  0 0.15863488E+04</rscale>
<asrwt>0</asrwt>
<pdfrwt beam="1">  1        2 0.21465303E+00 0.15863488E+04</pdfrwt>
<pdfrwt beam="2">  1       -2 0.69370308E-01 0.15863488E+04</pdfrwt>
<totfact> 0.26501693E+01</totfact>
</mgrwt>
</event>
<event>
 6    1  0.8968082E-007  0.1078507E+04  0.7818608E-02  0.9226397E-01
         -1   -1    0    0    0  501 -0.00000000000E+00  0.00000000000E+00  0.26845599679E+03  0.26845599679E+03  0.00000000000E+00 0.  1.
          1   -1    0    0  501    0  0.00000000000E+00 -0.00000000000E+00 -0.10832108926E+04  0.10832108926E+04  0.00000000000E+00 0. -1.
         23    2    1    2    0    0  0.96298249398E+02 -0.16142796266E+03 -0.10385866476E+04  0.10593776609E+04  0.91030016495E+02 0.  0.
         11    1    3    3    0    0  0.91362695513E+02 -0.10572253633E+03 -0.54476796632E+03  0.56240246616E+03  0.00000000000E+00 0. -1.
        -11    1    3    3    0    0  0.49355538851E+01 -0.55705426332E+02 -0.49381868125E+03  0.49697519472E+03  0.00000000000E+00 0.  1.
         22    1    1    2    0    0 -0.96298249398E+02  0.16142796266E+03  0.22383175179E+03  0.29228922847E+03  0.00000000000E+00 0.  1.
<mgrwt>
<rscale>  0 0.10785072E+04</rscale>
<asrwt>0</asrwt>
<pdfrwt beam="1">  1        1 0.16664783E+00 0.10785072E+04</pdfrwt>
<pdfrwt beam="2">  1       -1 0.41300922E-01 0.10785072E+04</pdfrwt>
<totfact> 0.74757154E+01</totfact>
</mgrwt>
</event>
<event>
 6    1  0.8968082E-007  0.1251503E+04  0.7818608E-02  0.9068933E-01
         -2   -1    0    0    0  501 -0.00000000000E+00  0.00000000000E+00  0.85482078639E+03  0.85482078639E+03  0.00000000000E+00 0.  1.
          2   -1    0    0  501    0  0.00000000000E+00 -0.00000000000E+00 -0.45806658412E+03  0.45806658412E+03  0.00000000000E+00 0. -1.
         23    2    1    2    0    0 -0.32004226131E+03 -0.22980774059E+03  0.70491844780E+03  0.81268356317E+03  0.91136760572E+02 0.  0.
         13    1    3    3    0    0 -0.22427427363E+03 -0.19353069713E+03  0.57898588363E+03  0.65036738386E+03  0.00000000000E+00 0.  1.
        -13    1    3    3    0    0 -0.95767987672E+02 -0.36277043464E+02  0.12593256417E+03  0.16231617930E+03  0.00000000000E+00 0. -1.
         22    1    1    2    0    0  0.32004226131E+03  0.22980774059E+03 -0.30816424553E+03  0.50020380734E+03  0.00000000000E+00 0. -1.
<mgrwt>
<rscale>  0 0.12515028E+04</rscale>
<asrwt>0</asrwt>
<pdfrwt beam="1">  1        2 0.70471782E-01 0.12515028E+04</pdfrwt>
<pdfrwt beam="2">  1       -2 0.13151089E+00 0.12515028E+04</pdfrwt>
<totfact> 0.28245640E+01</totfact>
</mgrwt>
</event>
<event>
 6    1  0.8968082E-007  0.3996706E+04  0.7818608E-02  0.8005211E-01
          1   -1    0    0  501    0  0.00000000000E+00  0.00000000000E+00  0.26579298712E+04  0.26579298712E+04  0.00000000000E+00 0. -1.
         -1   -1    0    0    0  501 -0.00000000000E+00 -0.00000000000E+00 -0.15024531061E+04  0.15024531061E+04  0.00000000000E+00 0.  1.
         23    2    1    2    0    0  0.10656309895E+04  0.11665716580E+04 -0.69380860448E+03  0.17280353012E+04  0.90976830040E+02 0.  0.
         13    1    3    3    0    0  0.45770316279E+03  0.44302465130E+03 -0.30279196398E+03  0.70529851860E+03  0.00000000000E+00 0. -1.
        -13    1    3    3    0    0  0.60792782672E+03  0.72354700669E+03 -0.39101664050E+03  0.10227367826E+04  0.00000000000E+00 0.  1.
         22    1    1    2    0    0 -0.10656309895E+04 -0.11665716580E+04  0.18492853696E+04  0.24323476761E+04  0.00000000000E+00 0. -1.
<mgrwt>
<rscale>  0 0.39967061E+04</rscale>
<asrwt>0</asrwt>
<pdfrwt beam="1">  1        1 0.40891229E+00 0.39967061E+04</pdfrwt>
<pdfrwt beam="2">  1       -1 0.23114663E+00 0.39967061E+04</pdfrwt>
<totfact> 0.76289953E-02</totfact>
</mgrwt>
</event>
<event>
 6    1  0.8968082E-007  0.3278296E+04  0.7818608E-02  0.8168440E-01
          1   -1    0    0  501    0  0.00000000000E+00  0.00000000000E+00  0.15194275200E+04  0.15194275200E+04  0.00000000000E+00 0. -1.
         -1   -1    0    0    0  501 -0.00000000000E+00 -0.00000000000E+00 -0.17683012259E+04  0.17683012259E+04  0.00000000000E+00 0.  1.
         23    2    1    2    0    0 -0.40289127962E+03 -0.11663988520E+03  0.14627082291E+04  0.15255031739E+04  0.10825120858E+03 0.  0.
         11    1    3    3    0    0 -0.14259572323E+03  0.10533891388E+02  0.44966871969E+03  0.47185427901E+03  0.00000000000E+00 0. -1.
        -11    1    3    3    0    0 -0.26029555640E+03 -0.12717377659E+03  0.10130395094E+04  0.10536488949E+04  0.00000000000E+00 0.  1.
         22    1    1    2    0    0  0.40289127962E+03  0.11663988520E+03 -0.17115819351E+04  0.17622255720E+04  0.00000000000E+00 0.  1.
<mgrwt>
<rscale>  0 0.32782956E+04</rscale>
<asrwt>0</asrwt>
<pdfrwt beam="1">  1        1 0.23375808E+00 0.32782956E+04</pdfrwt>
<pdfrwt beam="2">  1       -1 0.27204634E+00 0.32782956E+04</pdfrwt>
<totfact> 0.26413574E-01</totfact>
</mgrwt>
</event>
<event>
 6    1  0.8968082E-007  0.1909820E+04  0.7818608E-02  0.8649984E-01
          2   -1    0    0  501    0  0.00000000000E+00  0.00000000000E+00  0.13759669145E+04  0.13759669145E+04  0.00000000000E+00 0. -1.
         -2   -1    0    0    0  501 -0.00000000000E+00 -0.00000000000E+00 -0.66269964842E+03  0.66269964842E+03  0.00000000000E+00 0.  1.
         23    2    1    2    0    0 -0.81207756643E+03 -0.38651609525E+03  0.69301229975E+03  0.11390694701E+04  0.91370368546E+02 0.  0.
         13    1    3    3    0    0 -0.10054076866E+03 -0.49460334603E+02  0.50763247319E+02  0.12301088627E+03  0.00000000000E+00 0. -1.
        -13    1    3    3    0    0 -0.71153679777E+03 -0.33705576065E+03  0.64224905243E+03  0.10160585838E+04  0.00000000000E+00 0.  1.
         22    1    1    2    0    0  0.81207756643E+03  0.38651609525E+03  0.20254966337E+02  0.89959709285E+03  0.00000000000E+00 0.  1.
<mgrwt>
<rscale>  0 0.19098197E+04</rscale>
<asrwt>0</asrwt>
<pdfrwt beam="1">  1        2 0.21168722E+00 0.19098197E+04</pdfrwt>
<pdfrwt beam="2">  1       -2 0.10195379E+00 0.19098197E+04</pdfrwt>
<totfact> 0.11028404E+01</totfact>
</mgrwt>
</event>
<event>
 6    1  0.8968082E-007  0.1898908E+04  0.7818608E-02  0.8655400E-01
         -2   -1    0    0    0  501 -0.00000000000E+00  0.00000000000E+00  0.40240014255E+03  0.40240014255E+03  0.00000000000E+00 0.  1.
          2   -1    0    0  501    0  0.00000000000E+00 -0.00000000000E+00 -0.22402140593E+04  0.22402140593E+04  0.00000000000E+00 0. -1.
         23    2    1    2    0    0 -0.24919915451E+03  0.64727189677E+03 -0.22722081050E+02  0.69951886219E+03  0.88029646364E+02 0.  0.
         13    1    3    3    0    0 -0.39252031390E+02  0.21400697382E+03 -0.10591267520E+01  0.21757947643E+03  0.00000000000E+00 0. -1.
        -13    1    3    3    0    0 -0.20994712312E+03  0.43326492295E+03 -0.21662954298E+02  0.48193938577E+03  0.00000000000E+00 0.  1.
         22    1    1    2    0    0  0.24919915451E+03 -0.64727189677E+03 -0.18150918357E+04  0.19430953397E+04  0.00000000000E+00 0. -1.
<mgrwt>
<rscale>  0 0.18989075E+04</rscale>
<asrwt>0</asrwt>
<pdfrwt beam="1">  1        2 0.34464831E+00 0.18989075E+04</pdfrwt>
<pdfrwt beam="2">  1       -2 0.61907715E-01 0.18989075E+04</pdfrwt>
<totfact> 0.11126984E+01</totfact>
</mgrwt>
</event>
<event>
 6    1  0.8968082E-007  0.6830908E+03  0.7818608E-02  0.9746594E-01
         -1   -1    0    0    0  501 -0.00000000000E+00  0.00000000000E+00  0.10889644859E+03  0.10889644859E+03  0.00000000000E+00 0.  1.
          1   -1    0    0  501    0  0.00000000000E+00 -0.00000000000E+00 -0.10712312138E+04  0.10712312138E+04  0.00000000000E+00 0. -1.
         23    2    1    2    0    0  0.24978439437E+03  0.81336316070E+01 -0.87614235318E+03  0.91576516219E+03  0.92422992858E+02 0.  0.
         11    1    3    3    0    0  0.14930501089E+03  0.47239744772E+02 -0.57321814035E+03  0.59422438202E+03  0.00000000000E+00 0. -1.
        -11    1    3    3    0    0  0.10047938348E+03 -0.39106113165E+02 -0.30292421282E+03  0.32154078016E+03  0.00000000000E+00 0.  1.
         22    1    1    2    0    0 -0.24978439437E+03 -0.81336316070E+01 -0.86192412074E+02  0.26436250024E+03  0.00000000000E+00 0.  1.
<mgrwt>
<rscale>  0 0.68309084E+03</rscale>
<asrwt>0</asrwt>
<pdfrwt beam="1">  1        1 0.16480480E+00 0.68309084E+03</pdfrwt>
<pdfrwt beam="2">  1       -1 0.16753300E-01 0.68309084E+03</pdfrwt>
<totfact> 0.37102490E+02</totfact>
</mgrwt>
</event>
<event>
 6    1  0.8968082E-007  0.2468648E+04  0.7818608E-02  0.8414241E-01
         -2   -1    0    0    0  501 -0.00000000000E+00  0.00000000000E+00  0.77631292220E+03  0.77631292220E+03  0.00000000000E+00 0.  1.
          2   -1    0    0  501    0  0.00000000000E+00 -0.00000000000E+00 -0.19625536560E+04  0.19625536560E+04  0.00000000000E+00 0. -1.
         23    2    1    2    0    0  0.11142926328E+04 -0.87508814180E+01 -0.93119312381E+01  0.11180994587E+04  0.91296428671E+02 0.  0.
         13    1    3    3    0    0  0.63035994161E+03  0.39390307675E+02  0.38157177107E+01  0.63160099115E+03  0.00000000000E+00 0. -1.
        -13    1    3    3    0    0  0.48393269123E+03 -0.48141189093E+02 -0.13127648949E+02  0.48649846751E+03  0.00000000000E+00 0.  1.
         22    1    1    2    0    0 -0.11142926328E+04  0.87508814180E+01 -0.11769288026E+04  0.16207671196E+04  0.00000000000E+00 0. -1.
<mgrwt>
<rscale>  0 0.24686480E+04</rscale>
<asrwt>0</asrwt>
<pdfrwt beam="1">  1        2 0.30193133E+00 0.24686480E+04</pdfrwt>
<pdfrwt beam="2">  1       -2 0.11943276E+00 0.24686480E+04</pdfrwt>
<totfact> 0.33676858E+00</totfact>
</mgrwt>
</event>
<event>
 6    1  0.8968082E-007  0.3126570E+04  0.7818608E-02  0.8208484E-01
          2   -1    0    0  501    0  0.00000000000E+00  0.00000000000E+00  0.92004519181E+03  0.92004519181E+03  0.00000000000E+00 0. -1.
         -2   -1    0    0    0  501 -0.00000000000E+00 -0.00000000000E+00 -0.26562383605E+04  0.26562383605E+04  0.00000000000E+00 0.  1.
         23    2    1    2    0    0 -0.43883571533E+01  0.15413659988E+04 -0.57946462703E+03  0.16491485495E+04  0.89907088823E+02 0.  0.
         11    1    3    3    0    0  0.25589745784E+02  0.82071495486E+03 -0.34594564416E+03  0.89101417550E+03  0.00000000000E+00 0.  1.
        -11    1    3    3    0    0 -0.29978102938E+02  0.72065104390E+03 -0.23351898287E+03  0.75813437403E+03  0.00000000000E+00 0. -1.
         22    1    1    2    0    0  0.43883571533E+01 -0.15413659988E+04 -0.11567285416E+04  0.19271350027E+04  0.00000000000E+00 0. -1.
<mgrwt>
<rscale>  0 0.31265696E+04</rscale>
<asrwt>0</asrwt>
<pdfrwt beam="1">  1        2 0.14154542E+00 0.31265696E+04</pdfrwt>
<pdfrwt beam="2">  1       -2 0.40865204E+00 0.31265696E+04</pdfrwt>
<totfact> 0.15669181E-01</totfact>
</mgrwt>
</event>
<event>
 6    1  0.8968082E-007  0.3141998E+04  0.7818608E-02  0.8204305E-01
         -1   -1    0    0    0  501 -0.00000000000E+00  0.00000000000E+00  0.27461111152E+04  0.27461111152E+04  0.00000000000E+00 0.  1.
          1   -1    0    0  501    0  0.00000000000E+00 -0.00000000000E+00 -0.89873945206E+03  0.89873945206E+03  0.00000000000E+00 0. -1.
         23    2    1    2    0    0  0.74337929392E+03 -0.99267710731E+03 -0.19168471383E+03  0.12582690115E+04  0.92072046095E+02 0.  0.
         13    1    3    3    0    0  0.37150523874E+03 -0.56320324541E+03 -0.81759746496E+02  0.67963129283E+03  0.00000000000E+00 0.  1.
        -13    1    3    3    0    0  0.37187405518E+03 -0.42947386190E+03 -0.10992496733E+03  0.57863771863E+03  0.00000000000E+00 0. -1.
         22    1    1    2    0    0 -0.74337929392E+03  0.99267710731E+03  0.20390563770E+04  0.23865815558E+04  0.00000000000E+00 0. -1.
<mgrwt>
<rscale>  0 0.31419983E+04</rscale>
<asrwt>0</asrwt>
<pdfrwt beam="1">  1        1 0.13826761E+00 0.31419983E+04</pdfrwt>
<pdfrwt beam="2">  1       -1 0.42247863E+00 0.31419983E+04</pdfrwt>
<totfact> 0.76800239E-02</totfact>
</mgrwt>
</event>
<event>
 6    1  0.8968082E-007  0.4021753E+04  0.7818608E-02  0.8000173E-01
         -2   -1    0    0    0  501 -0.00000000000E+00  0.00000000000E+00  0.15553975207E+04  0.15553975207E+04  0.00000000000E+00 0.  1.
          2   -1    0    0  501    0  0.00000000000E+00 -0.00000000000E+00 -0.25997369979E+04  0.25997369979E+04  0.00000000000E+00 0. -1.
         23    2    1    2    0    0 -0.49726054109E+03 -0.10949917928E+04 -0.21862203320E+04  0.24967717843E+04  0.89637773955E+02 0.  0.
         13    1    3    3    0    0 -0.20007583146E+03 -0.54561757384E+03 -0.10763754635E+04  0.12232387395E+04  0.00000000000E+00 0.  1.
        -13    1    3    3    0    0 -0.29718470963E+03 -0.54937421901E+03 -0.11098448685E+04  0.12735330448E+04  0.00000000000E+00 0. -1.
         22    1    1    2    0    0  0.49726054109E+03  0.10949917928E+04  0.11418808548E+04  0.16583627343E+04  0.00000000000E+00 0.  1.
<mgrwt>
<rscale>  0 0.40217531E+04</rscale>
<asrwt>0</asrwt>
<pdfrwt beam="1">  1        2 0.39995953E+00 0.40217531E+04</pdfrwt>
<pdfrwt beam="2">  1       -2 0.23929193E+00 0.40217531E+04</pdfrwt>
<totfact> 0.17938051E-01</totfact>
</mgrwt>
</event>
<event>
 6    1  0.8968082E-007  0.2580567E+04  0.7818608E-02  0.8374832E-01
         -2   -1    0    0    0  501 -0.00000000000E+00  0.00000000000E+00  0.97113914922E+03  0.97113914922E+03  0.00000000000E+00 0.  1.
          2   -1    0    0  501    0  0.00000000000E+00 -0.00000000000E+00 -0.17143078553E+04  0.17143078553E+04  0.00000000000E+00 0. -1.
         23    2    1    2    0    0 -0.67188831690E+03  0.78296689752E+03  0.43149752780E+03  0.11220174941E+04  0.90895916346E+02 0.  0.
         13    1    3    3    0    0 -0.43982094958E+03  0.56286729255E+03  0.32625538749E+03  0.78530544031E+03  0.00000000000E+00 0.  1.
        -13    1    3    3    0    0 -0.23206736732E+03  0.22009960497E+03  0.10524214031E+03  0.33671205381E+03  0.00000000000E+00 0. -1.
         22    1    1    2    0    0  0.67188831690E+03 -0.78296689752E+03 -0.11746662339E+04  0.15634295104E+04  0.00000000000E+00 0. -1.
<mgrwt>
<rscale>  0 0.25805670E+04</rscale>
<asrwt>0</asrwt>
<pdfrwt beam="1">  1        2 0.26373967E+00 0.25805670E+04</pdfrwt>
<pdfrwt beam="2">  1       -2 0.14940602E+00 0.25805670E+04</pdfrwt>
<totfact> 0.25834438E+00</totfact>
</mgrwt>
</event>
<event>
 6    1  0.8968082E-007  0.3126541E+04  0.7818608E-02  0.8208491E-01
         -1   -1    0    0    0  501 -0.00000000000E+00  0.00000000000E+00  0.15081989530E+04  0.15081989530E+04  0.00000000000E+00 0.  1.
          1   -1    0    0  501    0  0.00000000000E+00 -0.00000000000E+00 -0.16203534734E+04  0.16203534734E+04  0.00000000000E+00 0. -1.
         23    2    1    2    0    0 -0.59137401028E+03 -0.83540512430E+03 -0.12367089005E+04  0.16079448191E+04  0.91720743978E+02 0.  0.
         11    1    3    3    0    0 -0.24110964141E+03 -0.39552915393E+03 -0.61020127705E+03  0.76610884952E+03  0.00000000000E+00 0. -1.
        -11    1    3    3    0    0 -0.35026436887E+03 -0.43987597036E+03 -0.62650762347E+03  0.84183596958E+03  0.00000000000E+00 0.  1.
         22    1    1    2    0    0  0.59137401028E+03  0.83540512430E+03  0.11245543801E+04  0.15206076073E+04  0.00000000000E+00 0.  1.
<mgrwt>
<rscale>  0 0.31265415E+04</rscale>
<asrwt>0</asrwt>
<pdfrwt beam="1">  1        1 0.24928515E+00 0.31265415E+04</pdfrwt>
<pdfrwt beam="2">  1       -1 0.23203061E+00 0.31265415E+04</pdfrwt>
<totfact> 0.41631590E-01</totfact>
</mgrwt>
</event>
<event>
 6    1  0.8968082E-007  0.1590183E+04  0.7818608E-02  0.8826602E-01
          2   -1    0    0  501    0  0.00000000000E+00  0.00000000000E+00  0.10041446479E+04  0.10041446479E+04  0.00000000000E+00 0. -1.
         -2   -1    0    0    0  501 -0.00000000000E+00 -0.00000000000E+00 -0.62956087957E+03  0.62956087957E+03  0.00000000000E+00 0.  1.
         23    2    1    2    0    0  0.44565553700E+03 -0.64850093147E+03  0.90885869434E+02  0.79725659682E+03  0.90529134131E+02 0.  0.
         11    1    3    3    0    0  0.13060256598E+03 -0.17998004645E+03 -0.14750624360E+02  0.22286190406E+03  0.00000000000E+00 0.  1.
        -11    1    3    3    0    0  0.31505297102E+03 -0.46852088502E+03  0.10563649379E+03  0.57439469276E+03  0.00000000000E+00 0. -1.
         22    1    1    2    0    0 -0.44565553700E+03  0.64850093147E+03  0.28369789892E+03  0.83644893068E+03  0.00000000000E+00 0.  1.
<mgrwt>
<rscale>  0 0.15901826E+04</rscale>
<asrwt>0</asrwt>
<pdfrwt beam="1">  1        2 0.15448379E+00 0.15901826E+04</pdfrwt>
<pdfrwt beam="2">  1       -2 0.96855520E-01 0.15901826E+04</pdfrwt>
<totfact> 0.21402380E+01</totfact>
</mgrwt>
</event>
<event>
 6    1  0.8968082E-007  0.1172394E+04  0.7818608E-02  0.9137369E-01
          2   -1    0    0  501    0  0.00000000000E+00  0.00000000000E+00  0.14676542284E+04  0.14676542284E+04  0.00000000000E+00 0. -1.
         -2   -1    0    0    0  501 -0.00000000000E+00 -0.00000000000E+00 -0.23413335111E+03  0.23413335111E+03  0.00000000000E+00 0.  1.
         23    2    1    2    0    0 -0.47384294902E+03  0.26719760231E+03  0.31760366477E+03  0.63650543885E+03  0.91353088603E+02 0.  0.
         13    1    3    3    0    0 -0.21734604968E+03  0.14333368410E+03  0.10349680004E+03  0.28017037304E+03  0.00000000000E+00 0.  1.
        -13    1    3    3    0    0 -0.25649689934E+03  0.12386391821E+03  0.21410686473E+03  0.35633506582E+03  0.00000000000E+00 0. -1.
         22    1    1    2    0    0  0.47384294902E+03 -0.26719760231E+03  0.91591721254E+03  0.10652821407E+04  0.00000000000E+00 0.  1.
<mgrwt>
<rscale>  0 0.11723938E+04</rscale>
<asrwt>0</asrwt>
<pdfrwt beam="1">  1        2 0.22579295E+00 0.11723938E+04</pdfrwt>
<pdfrwt beam="2">  1       -2 0.36020516E-01 0.11723938E+04</pdfrwt>
<totfact> 0.94820279E+01</totfact>
</mgrwt>
</event>
<event>
 6    1  0.8968082E-007  0.5187100E+04  0.7818608E-02  0.7800276E-01
         -2   -1    0    0    0  501 -0.00000000000E+00  0.00000000000E+00  0.22603133000E+04  0.22603133000E+04  0.00000000000E+00 0.  1.
          2   -1    0    0  501    0  0.00000000000E+00 -0.00000000000E+00 -0.29759153493E+04  0.29759153493E+04  0.00000000000E+00 0. -1.
         23    2    1    2    0    0 -0.15659116426E+04  0.85773957095E+03 -0.22557851024E+04  0.28782718472E+04  0.89921935468E+02 0.  0.
         11    1    3    3    0    0 -0.32124219336E+03  0.16714393651E+03 -0.51601516019E+03  0.63040089456E+03  0.00000000000E+00 0.  1.
        -11    1    3    3    0    0 -0.12446694492E+04  0.69059563444E+03 -0.17397699422E+04  0.22478709527E+04  0.00000000000E+00 0. -1.
         22    1    1    2    0    0  0.15659116426E+04 -0.85773957095E+03  0.15401830530E+04  0.23579568021E+04  0.00000000000E+00 0.  1.
<mgrwt>
<rscale>  0 0.51870998E+04</rscale>
<asrwt>0</asrwt>
<pdfrwt beam="1">  1        2 0.45783313E+00 0.51870998E+04</pdfrwt>
<pdfrwt beam="2">  1       -2 0.34774051E+00 0.51870998E+04</pdfrwt>
<totfact> 0.20781370E-02</totfact>
</mgrwt>
</event>
<event>
 6    1  0.8968082E-007  0.1721714E+04  0.7818608E-02  0.8749076E-01
          1   -1    0    0  501    0  0.00000000000E+00  0.00000000000E+00  0.38179589720E+04  0.38179589720E+04  0.00000000000E+00 0. -1.
         -1   -1    0    0    0  501 -0.00000000000E+00 -0.00000000000E+00 -0.19410236924E+03  0.19410236924E+03  0.00000000000E+00 0.  1.
         23    2    1    2    0    0 -0.65368824866E+03 -0.13220231848E+02  0.52043243927E+03  0.84051209213E+03  0.90152937869E+02 0.  0.
         11    1    3    3    0    0 -0.13674450018E+03  0.33088450887E+02  0.10068514749E+03  0.17300694448E+03  0.00000000000E+00 0. -1.
        -11    1    3    3    0    0 -0.51694374847E+03 -0.46308682735E+02  0.41974729178E+03  0.66750514765E+03  0.00000000000E+00 0.  1.
         22    1    1    2    0    0  0.65368824866E+03  0.13220231848E+02  0.31034241635E+04  0.31715492491E+04  0.00000000000E+00 0.  1.
<mgrwt>
<rscale>  0 0.17217141E+04</rscale>
<asrwt>0</asrwt>
<pdfrwt beam="1">  1        1 0.58737825E+00 0.17217141E+04</pdfrwt>
<pdfrwt beam="2">  1       -1 0.29861906E-01 0.17217141E+04</pdfrwt>
<totfact> 0.13600241E+00</totfact>
</mgrwt>
</event>
<event>
 6    1  0.8968082E-007  0.1576607E+04  0.7818608E-02  0.8835049E-01
         -2   -1    0    0    0  501 -0.00000000000E+00  0.00000000000E+00  0.56941454827E+03  0.56941454827E+03  0.00000000000E+00 0.  1.
          2   -1    0    0  501    0  0.00000000000E+00 -0.00000000000E+00 -0.10913360544E+04  0.10913360544E+04  0.00000000000E+00 0. -1.
         23    2    1    2    0    0  0.57098844290E+02  0.65410836359E+03 -0.71601246266E+03  0.97606868474E+03  0.94436228771E+02 0.  0.
         11    1    3    3    0    0  0.49195628195E+02  0.58122143940E+03 -0.58607482084E+03  0.82687500088E+03  0.00000000000E+00 0. -1.
        -11    1    3    3    0    0  0.79032160945E+01  0.72886924187E+02 -0.12993764182E+03  0.14919368386E+03  0.00000000000E+00 0.  1.
         22    1    1    2    0    0 -0.57098844290E+02 -0.65410836359E+03  0.19409095654E+03  0.68468191793E+03  0.00000000000E+00 0.  1.
<mgrwt>
<rscale>  0 0.15766073E+04</rscale>
<asrwt>0</asrwt>
<pdfrwt beam="1">  1        2 0.16789785E+00 0.15766073E+04</pdfrwt>
<pdfrwt beam="2">  1       -2 0.87602240E-01 0.15766073E+04</pdfrwt>
<totfact> 0.23833576E+01</totfact>
</mgrwt>
</event>
<event>
 6    1  0.8968082E-007  0.2327378E+04  0.7818608E-02  0.8467204E-01
          2   -1    0    0  501    0  0.00000000000E+00  0.00000000000E+00  0.26360215091E+04  0.26360215091E+04  0.00000000000E+00 0. -1.
         -2   -1    0    0    0  501 -0.00000000000E+00 -0.00000000000E+00 -0.51371831854E+03  0.51371831854E+03  0.00000000000E+00 0.  1.
         23    2    1    2    0    0 -0.45821368864E+03 -0.66768280775E+03  0.21905365728E+04  0.23370800522E+04  0.87935074343E+02 0.  0.
         13    1    3    3    0    0 -0.32854184083E+03 -0.45389395996E+03  0.16197661316E+04  0.17139433447E+04  0.00000000000E+00 0. -1.
        -13    1    3    3    0    0 -0.12967184781E+03 -0.21378884779E+03  0.57077044127E+03  0.62313670746E+03  0.00000000000E+00 0.  1.
         22    1    1    2    0    0  0.45821368864E+03  0.66768280775E+03 -0.68233382227E+02  0.81265977547E+03  0.00000000000E+00 0.  1.
<mgrwt>
<rscale>  0 0.23273784E+04</rscale>
<asrwt>0</asrwt>
<pdfrwt beam="1">  1        2 0.40554176E+00 0.23273784E+04</pdfrwt>
<pdfrwt beam="2">  1       -2 0.79033589E-01 0.23273784E+04</pdfrwt>
<totfact> 0.37244541E+00</totfact>
</mgrwt>
</event>
<event>
 6    1  0.1268374E-006  0.2641834E+04  0.7818608E-02  0.8354128E-01
         -2   -1    0    0    0  501 -0.00000000000E+00  0.00000000000E+00  0.87864706936E+03  0.87864706936E+03  0.00000000000E+00 0.  1.
          2   -1    0    0  501    0  0.00000000000E+00 -0.00000000000E+00 -0.19858046209E+04  0.19858046209E+04  0.00000000000E+00 0. -1.
         23    2    1    2    0    0 -0.11861016599E+03 -0.43498526644E+03  0.79012176933E+03  0.91433646933E+03  0.91859758766E+02 0.  0.
         13    1    3    3    0    0 -0.28676660799E+02 -0.25465152053E+03  0.48767159484E+03  0.55090228915E+03  0.00000000000E+00 0. -1.
        -13    1    3    3    0    0 -0.89933505193E+02 -0.18033374590E+03  0.30245017450E+03  0.36343418018E+03  0.00000000000E+00 0.  1.
         22    1    1    2    0    0  0.11861016599E+03  0.43498526644E+03 -0.18972793209E+04  0.19501152209E+04  0.00000000000E+00 0. -1.
<mgrwt>
<rscale>  0 0.26418338E+04</rscale>
<asrwt>0</asrwt>
<pdfrwt beam="1">  1        2 0.30550840E+00 0.26418338E+04</pdfrwt>
<pdfrwt beam="2">  1       -2 0.13517647E+00 0.26418338E+04</pdfrwt>
<totfact> 0.23583926E+00</totfact>
</mgrwt>
</event>
<event>
 6    1  0.8968082E-007  0.1044207E+04  0.7818608E-02  0.9261346E-01
         -2   -1    0    0    0  501 -0.00000000000E+00  0.00000000000E+00  0.45073279214E+03  0.45073279214E+03  0.00000000000E+00 0.  1.
          2   -1    0    0  501    0  0.00000000000E+00 -0.00000000000E+00 -0.60477496350E+03  0.60477496350E+03  0.00000000000E+00 0. -1.
         23    2    1    2    0    0 -0.12662327523E+03  0.41339505990E+03 -0.36675829943E+03  0.57366018583E+03  0.87438145155E+02 0.  0.
         13    1    3    3    0    0 -0.54379469788E+02  0.14909751685E+03 -0.19016196608E+03  0.24768683778E+03  0.00000000000E+00 0. -1.
        -13    1    3    3    0    0 -0.72243805441E+02  0.26429754306E+03 -0.17659633334E+03  0.32597334805E+03  0.00000000000E+00 0.  1.
         22    1    1    2    0    0  0.12662327523E+03 -0.41339505990E+03  0.21271612807E+03  0.48184756980E+03  0.00000000000E+00 0. -1.
<mgrwt>
<rscale>  0 0.10442067E+04</rscale>
<asrwt>0</asrwt>
<pdfrwt beam="1">  1        2 0.93042301E-01 0.10442067E+04</pdfrwt>
<pdfrwt beam="2">  1       -2 0.69343507E-01 0.10442067E+04</pdfrwt>
<totfact> 0.92907757E+01</totfact>
</mgrwt>
</event>
<event>
 6    1  0.8968082E-007  0.4064559E+04  0.7818608E-02  0.7991648E-01
         -2   -1    0    0    0  501 -0.00000000000E+00  0.00000000000E+00  0.15703516574E+04  0.15703516574E+04  0.00000000000E+00 0.  1.
          2   -1    0    0  501    0  0.00000000000E+00 -0.00000000000E+00 -0.26300865075E+04  0.26300865075E+04  0.00000000000E+00 0. -1.
         23    2    1    2    0    0  0.30321527928E+03  0.14747193671E+04  0.87902157494E+03  0.17457460880E+04  0.90629780895E+02 0.  0.
         11    1    3    3    0    0  0.27722713554E+03  0.12263051747E+04  0.75952522893E+03  0.14688627709E+04  0.00000000000E+00 0.  1.
        -11    1    3    3    0    0  0.25988143740E+02  0.24841419235E+03  0.11949634601E+03  0.27688331710E+03  0.00000000000E+00 0. -1.
         22    1    1    2    0    0 -0.30321527928E+03 -0.14747193671E+04 -0.19387564250E+04  0.24546920770E+04  0.00000000000E+00 0. -1.
<mgrwt>
<rscale>  0 0.40645594E+04</rscale>
<asrwt>0</asrwt>
<pdfrwt beam="1">  1        2 0.40462869E+00 0.40645594E+04</pdfrwt>
<pdfrwt beam="2">  1       -2 0.24159256E+00 0.40645594E+04</pdfrwt>
<totfact> 0.16601466E-01</totfact>
</mgrwt>
</event>
<event>
 6    1  0.9248354E-007  0.3164322E+04  0.7818608E-02  0.8198304E-01
         -1   -1    0    0    0  501 -0.00000000000E+00  0.00000000000E+00  0.10148212058E+04  0.10148212058E+04  0.00000000000E+00 0.  1.
          1   -1    0    0  501    0  0.00000000000E+00 -0.00000000000E+00 -0.24666748906E+04  0.24666748906E+04  0.00000000000E+00 0. -1.
         23    2    1    2    0    0 -0.76276970633E+03  0.10883061498E+03 -0.22455904489E+04  0.23752954916E+04  0.75435272251E+02 0.  0.
         13    1    3    3    0    0 -0.20532925110E+03  0.44322580981E+01 -0.53035733118E+03  0.56873424813E+03  0.00000000000E+00 0. -1.
        -13    1    3    3    0    0 -0.55744045524E+03  0.10439835689E+03 -0.17152331177E+04  0.18065612434E+04  0.00000000000E+00 0.  1.
         22    1    1    2    0    0  0.76276970633E+03 -0.10883061498E+03  0.79373676407E+03  0.11062006049E+04  0.00000000000E+00 0.  1.
<mgrwt>
<rscale>  0 0.31643224E+04</rscale>
<asrwt>0</asrwt>
<pdfrwt beam="1">  1        1 0.37948844E+00 0.31643224E+04</pdfrwt>
<pdfrwt beam="2">  1       -1 0.15612634E+00 0.31643224E+04</pdfrwt>
<totfact> 0.37497431E-01</totfact>
</mgrwt>
</event>
<event>
 6    1  0.8968082E-007  0.1744675E+04  0.7818608E-02  0.8736287E-01
          2   -1    0    0  501    0  0.00000000000E+00  0.00000000000E+00  0.20934830190E+04  0.20934830190E+04  0.00000000000E+00 0. -1.
         -2   -1    0    0    0  501 -0.00000000000E+00 -0.00000000000E+00 -0.36349595021E+03  0.36349595021E+03  0.00000000000E+00 0.  1.
         23    2    1    2    0    0  0.20501215770E+03  0.40376718977E+03  0.19133997719E+04  0.19684115245E+04  0.92126621167E+02 0.  0.
         13    1    3    3    0    0  0.10056983512E+03  0.29223083280E+03  0.13107807247E+04  0.13467216712E+04  0.00000000000E+00 0. -1.
        -13    1    3    3    0    0  0.10444232258E+03  0.11153635697E+03  0.60261904716E+03  0.62168985328E+03  0.00000000000E+00 0.  1.
         22    1    1    2    0    0 -0.20501215770E+03 -0.40376718977E+03 -0.18341270314E+03  0.48856744469E+03  0.00000000000E+00 0.  1.
<mgrwt>
<rscale>  0 0.17446749E+04</rscale>
<asrwt>0</asrwt>
<pdfrwt beam="1">  1        2 0.32207430E+00 0.17446749E+04</pdfrwt>
<pdfrwt beam="2">  1       -2 0.55922455E-01 0.17446749E+04</pdfrwt>
<totfact> 0.16875761E+01</totfact>
</mgrwt>
</event>
<event>
 6    1  0.8968082E-007  0.1383629E+04  0.7818608E-02  0.8965755E-01
         -1   -1    0    0    0  501 -0.00000000000E+00  0.00000000000E+00  0.25860088638E+03  0.25860088638E+03  0.00000000000E+00 0.  1.
          1   -1    0    0  501    0  0.00000000000E+00 -0.00000000000E+00 -0.18507569344E+04  0.18507569344E+04  0.00000000000E+00 0. -1.
         23    2    1    2    0    0 -0.29249759459E+03  0.15477715981E+03 -0.17202259429E+04  0.17545160109E+04  0.98174975996E+02 0.  0.
         11    1    3    3    0    0 -0.15186073504E+03  0.13386308146E+03 -0.10591401251E+04  0.10783129471E+04  0.00000000000E+00 0.  1.
        -11    1    3    3    0    0 -0.14063685956E+03  0.20914078347E+02 -0.66108581784E+03  0.67620306380E+03  0.00000000000E+00 0. -1.
         22    1    1    2    0    0  0.29249759459E+03 -0.15477715981E+03  0.12806989488E+03  0.35484180985E+03  0.00000000000E+00 0.  1.
<mgrwt>
<rscale>  0 0.13836291E+04</rscale>
<asrwt>0</asrwt>
<pdfrwt beam="1">  1        1 0.28473185E+00 0.13836291E+04</pdfrwt>
<pdfrwt beam="2">  1       -1 0.39784750E-01 0.13836291E+04</pdfrwt>
<totfact> 0.22610046E+01</totfact>
</mgrwt>
</event>
<event>
 6    1  0.8968082E-007  0.2127486E+04  0.7818608E-02  0.8549232E-01
         -1   -1    0    0    0  501 -0.00000000000E+00  0.00000000000E+00  0.70031452308E+03  0.70031452308E+03  0.00000000000E+00 0.  1.
          1   -1    0    0  501    0  0.00000000000E+00 -0.00000000000E+00 -0.16157721066E+04  0.16157721066E+04  0.00000000000E+00 0. -1.
         23    2    1    2    0    0  0.84545258860E+03  0.38854198714E+03  0.97960408207E+02  0.94030649415E+03  0.93942035472E+02 0.  0.
         13    1    3    3    0    0  0.56723159805E+03  0.29296404382E+03  0.99470609631E+02  0.64612229413E+03  0.00000000000E+00 0.  1.
        -13    1    3    3    0    0  0.27822099055E+03  0.95577943320E+02 -0.15102014237E+01  0.29418420002E+03  0.00000000000E+00 0. -1.
         22    1    1    2    0    0 -0.84545258860E+03 -0.38854198714E+03 -0.10134179917E+04  0.13757801355E+04  0.00000000000E+00 0. -1.
<mgrwt>
<rscale>  0 0.21274855E+04</rscale>
<asrwt>0</asrwt>
<pdfrwt beam="1">  1        1 0.24858032E+00 0.21274855E+04</pdfrwt>
<pdfrwt beam="2">  1       -1 0.10774070E+00 0.21274855E+04</pdfrwt>
<totfact> 0.40020280E+00</totfact>
</mgrwt>
</event>
<event>
 6    1  0.8968082E-007  0.2268399E+04  0.7818608E-02  0.8490486E-01
          1   -1    0    0  501    0  0.00000000000E+00  0.00000000000E+00  0.39005293889E+03  0.39005293889E+03  0.00000000000E+00 0. -1.
         -1   -1    0    0    0  501 -0.00000000000E+00 -0.00000000000E+00 -0.32980343331E+04  0.32980343331E+04  0.00000000000E+00 0.  1.
         23    2    1    2    0    0  0.88374425058E+03  0.67736834941E+03 -0.17911375472E+04  0.21110102416E+04  0.91426176919E+02 0.  0.
         11    1    3    3    0    0  0.70782476209E+03  0.50866872053E+03 -0.13478943663E+04  0.16051725713E+04  0.00000000000E+00 0. -1.
        -11    1    3    3    0    0  0.17591948849E+03  0.16869962888E+03 -0.44324318090E+03  0.50583767024E+03  0.00000000000E+00 0.  1.
         22    1    1    2    0    0 -0.88374425058E+03 -0.67736834941E+03 -0.11168438470E+04  0.15770770304E+04  0.00000000000E+00 0.  1.
<mgrwt>
<rscale>  0 0.22683985E+04</rscale>
<asrwt>0</asrwt>
<pdfrwt beam="1">  1        1 0.60008144E-01 0.22683985E+04</pdfrwt>
<pdfrwt beam="2">  1       -1 0.50738990E+00 0.22683985E+04</pdfrwt>
<totfact> 0.74750557E-02</totfact>
</mgrwt>
</event>
<event>
 6    1  0.8968082E-007  0.2924904E+04  0.7818608E-02  0.8265506E-01
         -2   -1    0    0    0  501 -0.00000000000E+00  0.00000000000E+00  0.81876353827E+03  0.81876353827E+03  0.00000000000E+00 0.  1.
          2   -1    0    0  501    0  0.00000000000E+00 -0.00000000000E+00 -0.26121898671E+04  0.26121898671E+04  0.00000000000E+00 0. -1.
         23    2    1    2    0    0  0.72069970515E+03 -0.11088037986E+04 -0.16258721782E+04  0.20979386559E+04  0.95038599075E+02 0.  0.
         13    1    3    3    0    0  0.45156921359E+03 -0.63631742420E+03 -0.10119231637E+04  0.12778118438E+04  0.00000000000E+00 0.  1.
        -13    1    3    3    0    0  0.26913049155E+03 -0.47248637442E+03 -0.61394901450E+03  0.82012681209E+03  0.00000000000E+00 0. -1.
         22    1    1    2    0    0 -0.72069970515E+03  0.11088037986E+04 -0.16755415062E+03  0.13330147494E+04  0.00000000000E+00 0.  1.
<mgrwt>
<rscale>  0 0.29249040E+04</rscale>
<asrwt>0</asrwt>
<pdfrwt beam="1">  1        2 0.40187537E+00 0.29249040E+04</pdfrwt>
<pdfrwt beam="2">  1       -2 0.12596362E+00 0.29249040E+04</pdfrwt>
<totfact> 0.12122097E+00</totfact>
</mgrwt>
</event>
<event>
 6    1  0.3484015E-006  0.4694293E+04  0.7818608E-02  0.7877478E-01
          1   -1    0    0  501    0  0.00000000000E+00  0.00000000000E+00  0.20052629903E+04  0.20052629903E+04  0.00000000000E+00 0. -1.
         -1   -1    0    0    0  501 -0.00000000000E+00 -0.00000000000E+00 -0.27473182700E+04  0.27473182700E+04  0.00000000000E+00 0.  1.
         23    2    1    2    0    0  0.37744807781E+03 -0.61096695874E+03 -0.26325391835E+04  0.27302862604E+04  0.91939300301E+02 0.  0.
         13    1    3    3    0    0  0.22528793053E+03 -0.27744653233E+03 -0.13122615230E+04  0.13600593864E+04  0.00000000000E+00 0. -1.
        -13    1    3    3    0    0  0.15216014728E+03 -0.33352042641E+03 -0.13202776605E+04  0.13702268740E+04  0.00000000000E+00 0.  1.
         22    1    1    2    0    0 -0.37744807781E+03  0.61096695874E+03  0.18904839038E+04  0.20222949999E+04  0.00000000000E+00 0. -1.
<mgrwt>
<rscale>  0 0.46942926E+04</rscale>
<asrwt>0</asrwt>
<pdfrwt beam="1">  1        1 0.30850200E+00 0.46942926E+04</pdfrwt>
<pdfrwt beam="2">  1       -1 0.42266435E+00 0.46942926E+04</pdfrwt>
<totfact> 0.10931386E-02</totfact>
</mgrwt>
</event>
<event>
 6    1  0.8968082E-007  0.2345632E+04  0.7818608E-02  0.8460143E-01
          2   -1    0    0  501    0  0.00000000000E+00  0.00000000000E+00  0.11894130711E+04  0.11894130711E+04  0.00000000000E+00 0. -1.
         -2   -1    0    0    0  501 -0.00000000000E+00 -0.00000000000E+00 -0.11564504830E+04  0.11564504830E+04  0.00000000000E+00 0.  1.
         23    2    1    2    0    0 -0.69239110633E+03 -0.49508500974E+03  0.82093806351E+03  0.11859411598E+04  0.89456801287E+02 0.  0.
         13    1    3    3    0    0 -0.30238891427E+03 -0.26942230158E+03  0.37331584810E+03  0.55081045243E+03  0.00000000000E+00 0. -1.
        -13    1    3    3    0    0 -0.39000219206E+03 -0.22566270817E+03  0.44762221540E+03  0.63513070733E+03  0.00000000000E+00 0.  1.
         22    1    1    2    0    0  0.69239110633E+03  0.49508500974E+03 -0.78797547545E+03  0.11599223943E+04  0.00000000000E+00 0.  1.
<mgrwt>
<rscale>  0 0.23456320E+04</rscale>
<asrwt>0</asrwt>
<pdfrwt beam="1">  1        2 0.18298663E+00 0.23456320E+04</pdfrwt>
<pdfrwt beam="2">  1       -2 0.17791546E+00 0.23456320E+04</pdfrwt>
<totfact> 0.32544304E+00</totfact>
</mgrwt>
</event>
<event>
 6    1  0.8968082E-007  0.2199819E+03  0.7818608E-02  0.1133897E+00
          4   -1    0    0  501    0  0.00000000000E+00  0.00000000000E+00  0.30060988469E+02  0.30060988469E+02  0.00000000000E+00 0. -1.
         -4   -1    0    0    0  501 -0.00000000000E+00 -0.00000000000E+00 -0.40244863776E+03  0.40244863776E+03  0.00000000000E+00 0.  1.
         23    2    1    2    0    0  0.90192093904E+02  0.18524642462E+02 -0.21505213080E+03  0.25021250184E+03  0.88775564964E+02 0.  0.
         11    1    3    3    0    0  0.36130630368E+02  0.52527850031E+02 -0.11573067518E+03  0.13212943146E+03  0.00000000000E+00 0. -1.
        -11    1    3    3    0    0  0.54061463536E+02 -0.34003207569E+02 -0.99321455614E+02  0.11808307038E+03  0.00000000000E+00 0.  1.
         22    1    1    2    0    0 -0.90192093904E+02 -0.18524642462E+02 -0.15733551849E+03  0.18229712439E+03  0.00000000000E+00 0. -1.
<mgrwt>
<rscale>  0 0.21998185E+03</rscale>
<asrwt>0</asrwt>
<pdfrwt beam="1">  1        4 0.46247676E-02 0.21998185E+03</pdfrwt>
<pdfrwt beam="2">  1       -4 0.61915173E-01 0.21998185E+03</pdfrwt>
<totfact> 0.12194849E+03</totfact>
</mgrwt>
</event>
<event>
 6    1  0.1086291E-006  0.3287835E+04  0.7818608E-02  0.8165998E-01
          2   -1    0    0  501    0  0.00000000000E+00  0.00000000000E+00  0.24926906183E+04  0.24926906183E+04  0.00000000000E+00 0. -1.
         -2   -1    0    0    0  501 -0.00000000000E+00 -0.00000000000E+00 -0.10841554113E+04  0.10841554113E+04  0.00000000000E+00 0.  1.
         23    2    1    2    0    0  0.76906704275E+03  0.60710160379E+03 -0.72953923941E+03  0.12249534276E+04  0.90812577796E+02 0.  0.
         13    1    3    3    0    0  0.61057884033E+03  0.46310067152E+03 -0.61170449193E+03  0.98053614807E+03  0.00000000000E+00 0.  1.
        -13    1    3    3    0    0  0.15848820241E+03  0.14400093227E+03 -0.11783474748E+03  0.24441727949E+03  0.00000000000E+00 0. -1.
         22    1    1    2    0    0 -0.76906704275E+03 -0.60710160379E+03  0.21380744464E+04  0.23518926021E+04  0.00000000000E+00 0. -1.
<mgrwt>
<rscale>  0 0.32878346E+04</rscale>
<asrwt>0</asrwt>
<pdfrwt beam="1">  1        2 0.38349086E+00 0.32878346E+04</pdfrwt>
<pdfrwt beam="2">  1       -2 0.16679314E+00 0.32878346E+04</pdfrwt>
<totfact> 0.66028267E-01</totfact>
</mgrwt>
</event>
<event>
 6    1  0.8968082E-007  0.1397403E+04  0.7818608E-02  0.8955700E-01
         -2   -1    0    0    0  501 -0.00000000000E+00  0.00000000000E+00  0.27376871772E+03  0.27376871772E+03  0.00000000000E+00 0.  1.
          2   -1    0    0  501    0  0.00000000000E+00 -0.00000000000E+00 -0.17831986923E+04  0.17831986923E+04  0.00000000000E+00 0. -1.
         23    2    1    2    0    0 -0.66281679305E+03 -0.13324311881E+03 -0.99998554976E+03  0.12104371673E+04  0.90040026414E+02 0.  0.
         13    1    3    3    0    0 -0.37671980474E+03 -0.11837506196E+03 -0.55264598249E+03  0.67922606585E+03  0.00000000000E+00 0.  1.
        -13    1    3    3    0    0 -0.28609698832E+03 -0.14868056847E+02 -0.44733956728E+03  0.53121110144E+03  0.00000000000E+00 0. -1.
         22    1    1    2    0    0  0.66281679305E+03  0.13324311881E+03 -0.50944442479E+03  0.84653024270E+03  0.00000000000E+00 0.  1.
<mgrwt>
<rscale>  0 0.13974033E+04</rscale>
<asrwt>0</asrwt>
<pdfrwt beam="1">  1        2 0.27433826E+00 0.13974033E+04</pdfrwt>
<pdfrwt beam="2">  1       -2 0.42118264E-01 0.13974033E+04</pdfrwt>
<totfact> 0.45853477E+01</totfact>
</mgrwt>
</event>
<event>
 6    1  0.8968082E-007  0.4593192E+04  0.7818608E-02  0.7894522E-01
         -1   -1    0    0    0  501 -0.00000000000E+00  0.00000000000E+00  0.18689833756E+04  0.18689833756E+04  0.00000000000E+00 0.  1.
          1   -1    0    0  501    0  0.00000000000E+00 -0.00000000000E+00 -0.28220442095E+04  0.28220442095E+04  0.00000000000E+00 0. -1.
         23    2    1    2    0    0 -0.20488991664E+04  0.10261260597E+04 -0.61921691272E+03  0.23753475018E+04  0.89015081882E+02 0.  0.
         13    1    3    3    0    0 -0.13468307748E+04  0.65492955279E+03 -0.44447713851E+03  0.15621926199E+04  0.00000000000E+00 0. -1.
        -13    1    3    3    0    0 -0.70206839163E+03  0.37119650690E+03 -0.17473977421E+03  0.81315488190E+03  0.00000000000E+00 0.  1.
         22    1    1    2    0    0  0.20488991664E+04 -0.10261260597E+04 -0.33384392123E+03  0.23156800833E+04  0.00000000000E+00 0. -1.
<mgrwt>
<rscale>  0 0.45931922E+04</rscale>
<asrwt>0</asrwt>
<pdfrwt beam="1">  1        1 0.43416065E+00 0.45931922E+04</pdfrwt>
<pdfrwt beam="2">  1       -1 0.28753590E+00 0.45931922E+04</pdfrwt>
<totfact> 0.23840599E-02</totfact>
</mgrwt>
</event>
<event>
 6    1  0.8968082E-007  0.3510039E+04  0.7818608E-02  0.8111415E-01
          2   -1    0    0  501    0  0.00000000000E+00  0.00000000000E+00  0.16398412197E+04  0.16398412197E+04  0.00000000000E+00 0. -1.
         -2   -1    0    0    0  501 -0.00000000000E+00 -0.00000000000E+00 -0.18782873766E+04  0.18782873766E+04  0.00000000000E+00 0.  1.
         23    2    1    2    0    0  0.12620330636E+04  0.11614092504E+04  0.24826334926E+03  0.17352979695E+04  0.89584885998E+02 0.  0.
         13    1    3    3    0    0  0.43451574330E+02  0.62264630643E+02  0.19356445071E+02  0.78355571000E+02  0.00000000000E+00 0. -1.
        -13    1    3    3    0    0  0.12185814893E+04  0.10991446197E+04  0.22890690419E+03  0.16569423985E+04  0.00000000000E+00 0.  1.
         22    1    1    2    0    0 -0.12620330636E+04 -0.11614092504E+04 -0.48670950617E+03  0.17828306268E+04  0.00000000000E+00 0.  1.
<mgrwt>
<rscale>  0 0.35100388E+04</rscale>
<asrwt>0</asrwt>
<pdfrwt beam="1">  1        2 0.25228327E+00 0.35100388E+04</pdfrwt>
<pdfrwt beam="2">  1       -2 0.28896729E+00 0.35100388E+04</pdfrwt>
<totfact> 0.32291295E-01</totfact>
</mgrwt>
</event>
<event>
 6    1  0.8968082E-007  0.2678651E+04  0.7818608E-02  0.8341965E-01
         -1   -1    0    0    0  501 -0.00000000000E+00  0.00000000000E+00  0.94804524813E+03  0.94804524813E+03  0.00000000000E+00 0.  1.
          1   -1    0    0  501    0  0.00000000000E+00 -0.00000000000E+00 -0.18920959741E+04  0.18920959741E+04  0.00000000000E+00 0. -1.
         23    2    1    2    0    0  0.85917707549E+03 -0.12307132255E+03  0.60708090857E+03  0.10626876658E+04  0.86174521122E+02 0.  0.
         11    1    3    3    0    0  0.63829599461E+03 -0.81447677064E+02  0.40414440653E+03  0.75986064654E+03  0.00000000000E+00 0.  1.
        -11    1    3    3    0    0  0.22088108087E+03 -0.41623645481E+02  0.20293650204E+03  0.30282701929E+03  0.00000000000E+00 0. -1.
         22    1    1    2    0    0 -0.85917707549E+03  0.12307132255E+03 -0.15511316345E+04  0.17774535564E+04  0.00000000000E+00 0. -1.
<mgrwt>
<rscale>  0 0.26786509E+04</rscale>
<asrwt>0</asrwt>
<pdfrwt beam="1">  1        1 0.29109169E+00 0.26786509E+04</pdfrwt>
<pdfrwt beam="2">  1       -1 0.14585312E+00 0.26786509E+04</pdfrwt>
<totfact> 0.11605921E+00</totfact>
</mgrwt>
</event>
<event>
 6    1  0.8968082E-007  0.2256971E+04  0.7818608E-02  0.8495083E-01
          2   -1    0    0  501    0  0.00000000000E+00  0.00000000000E+00  0.19745984956E+04  0.19745984956E+04  0.00000000000E+00 0. -1.
         -2   -1    0    0    0  501 -0.00000000000E+00 -0.00000000000E+00 -0.64493088079E+03  0.64493088079E+03  0.00000000000E+00 0.  1.
         23    2    1    2    0    0  0.81551816808E+03 -0.75140310826E+02  0.15638863463E+04  0.17677228473E+04  0.91583906733E+02 0.  0.
         11    1    3    3    0    0  0.74842869912E+03 -0.79924301576E+02  0.13799763197E+04  0.15718995052E+04  0.00000000000E+00 0.  1.
        -11    1    3    3    0    0  0.67089468961E+02  0.47839907500E+01  0.18391002664E+03  0.19582334210E+03  0.00000000000E+00 0. -1.
         22    1    1    2    0    0 -0.81551816808E+03  0.75140310826E+02 -0.23421873151E+03  0.85180652907E+03  0.00000000000E+00 0.  1.
<mgrwt>
<rscale>  0 0.22569710E+04</rscale>
<asrwt>0</asrwt>
<pdfrwt beam="1">  1        2 0.30378438E+00 0.22569710E+04</pdfrwt>
<pdfrwt beam="2">  1       -2 0.99220136E-01 0.22569710E+04</pdfrwt>
<totfact> 0.52837465E+00</totfact>
</mgrwt>
</event>
<event>
 6    1  0.8968082E-007  0.5568153E+04  0.7818608E-02  0.7746380E-01
         -1   -1    0    0    0  501 -0.00000000000E+00  0.00000000000E+00  0.23993521627E+04  0.23993521627E+04  0.00000000000E+00 0.  1.
          1   -1    0    0  501    0  0.00000000000E+00 -0.00000000000E+00 -0.32304898266E+04  0.32304898266E+04  0.00000000000E+00 0. -1.
         23    2    1    2    0    0 -0.10851624504E+04 -0.16384797399E+04 -0.24084682552E+04  0.31098885777E+04  0.92164133682E+02 0.  0.
         13    1    3    3    0    0 -0.40086339874E+03 -0.64005410059E+03 -0.98988824735E+03  0.12450861249E+04  0.00000000000E+00 0. -1.
        -13    1    3    3    0    0 -0.68429905171E+03 -0.99842563934E+03 -0.14185800079E+04  0.18648024529E+04  0.00000000000E+00 0.  1.
         22    1    1    2    0    0  0.10851624504E+04  0.16384797399E+04  0.15773305913E+04  0.25199534115E+04  0.00000000000E+00 0.  1.
<mgrwt>
<rscale>  0 0.55681533E+04</rscale>
<asrwt>0</asrwt>
<pdfrwt beam="1">  1        1 0.49699844E+00 0.55681533E+04</pdfrwt>
<pdfrwt beam="2">  1       -1 0.36913110E+00 0.55681533E+04</pdfrwt>
<totfact> 0.32234939E-03</totfact>
</mgrwt>
</event>
<event>
 6    1  0.8968082E-007  0.2213801E+04  0.7818608E-02  0.8512706E-01
          1   -1    0    0  501    0  0.00000000000E+00  0.00000000000E+00  0.10600078725E+04  0.10600078725E+04  0.00000000000E+00 0. -1.
         -1   -1    0    0    0  501 -0.00000000000E+00 -0.00000000000E+00 -0.11558678935E+04  0.11558678935E+04  0.00000000000E+00 0.  1.
         23    2    1    2    0    0  0.70115351375E+03 -0.66282048478E+03 -0.58722376448E+03  0.11331082133E+04  0.90306304204E+02 0.  0.
         13    1    3    3    0    0  0.16925362444E+03 -0.11158717659E+03 -0.11092849917E+03  0.23109223114E+03  0.00000000000E+00 0. -1.
        -13    1    3    3    0    0  0.53189988931E+03 -0.55123330819E+03 -0.47629526531E+03  0.90201598216E+03  0.00000000000E+00 0.  1.
         22    1    1    2    0    0 -0.70115351375E+03  0.66282048478E+03  0.49136374350E+03  0.10827675528E+04  0.00000000000E+00 0. -1.
<mgrwt>
<rscale>  0 0.22138013E+04</rscale>
<asrwt>0</asrwt>
<pdfrwt beam="1">  1        1 0.16307814E+00 0.22138013E+04</pdfrwt>
<pdfrwt beam="2">  1       -1 0.17782583E+00 0.22138013E+04</pdfrwt>
<totfact> 0.26715709E+00</totfact>
</mgrwt>
</event>
<event>
 6    1  0.8968082E-007  0.1393093E+04  0.7818608E-02  0.8958833E-01
         -1   -1    0    0    0  501 -0.00000000000E+00  0.00000000000E+00  0.26382093236E+03  0.26382093236E+03  0.00000000000E+00 0.  1.
          1   -1    0    0  501    0  0.00000000000E+00 -0.00000000000E+00 -0.18390391525E+04  0.18390391525E+04  0.00000000000E+00 0. -1.
         23    2    1    2    0    0  0.50544218891E+03  0.23243613613E+03 -0.14159133241E+04  0.15241750119E+04  0.93811311075E+02 0.  0.
         11    1    3    3    0    0  0.24099175610E+03  0.62604294700E+02 -0.58337798720E+03  0.63429188878E+03  0.00000000000E+00 0.  1.
        -11    1    3    3    0    0  0.26445043281E+03  0.16983184143E+03 -0.83253533686E+03  0.88988312316E+03  0.00000000000E+00 0. -1.
         22    1    1    2    0    0 -0.50544218891E+03 -0.23243613613E+03 -0.15930489611E+03  0.57868507293E+03  0.00000000000E+00 0.  1.
<mgrwt>
<rscale>  0 0.13930930E+04</rscale>
<asrwt>0</asrwt>
<pdfrwt beam="1">  1        1 0.28292911E+00 0.13930930E+04</pdfrwt>
<pdfrwt beam="2">  1       -1 0.40587834E-01 0.13930930E+04</pdfrwt>
<totfact> 0.22181772E+01</totfact>
</mgrwt>
</event>
<event>
 6    1  0.8968082E-007  0.5172015E+04  0.7818608E-02  0.7802507E-01
          1   -1    0    0  501    0  0.00000000000E+00  0.00000000000E+00  0.17168190145E+04  0.17168190145E+04  0.00000000000E+00 0. -1.
         -1   -1    0    0    0  501 -0.00000000000E+00 -0.00000000000E+00 -0.38952472517E+04  0.38952472517E+04  0.00000000000E+00 0.  1.
         23    2    1    2    0    0  0.38721970740E+03 -0.20450819033E+04  0.57424017453E+03  0.21610544613E+04  0.90030625822E+02 0.  0.
         13    1    3    3    0    0  0.16049739722E+03 -0.10174837779E+04  0.31731340299E+03  0.10778313636E+04  0.00000000000E+00 0. -1.
        -13    1    3    3    0    0  0.22672231018E+03 -0.10275981254E+04  0.25692677154E+03  0.10832230977E+04  0.00000000000E+00 0.  1.
         22    1    1    2    0    0 -0.38721970740E+03  0.20450819033E+04 -0.27526684117E+04  0.34510118050E+04  0.00000000000E+00 0.  1.
<mgrwt>
<rscale>  0 0.51720149E+04</rscale>
<asrwt>0</asrwt>
<pdfrwt beam="1">  1        1 0.26412600E+00 0.51720149E+04</pdfrwt>
<pdfrwt beam="2">  1       -1 0.59926880E+00 0.51720149E+04</pdfrwt>
<totfact> 0.14861696E-03</totfact>
</mgrwt>
</event>
<event>
 6    1  0.8968082E-007  0.1034322E+04  0.7818608E-02  0.9271682E-01
          1   -1    0    0  501    0  0.00000000000E+00  0.00000000000E+00  0.34350136540E+03  0.34350136540E+03  0.00000000000E+00 0. -1.
         -1   -1    0    0    0  501 -0.00000000000E+00 -0.00000000000E+00 -0.77861557548E+03  0.77861557548E+03  0.00000000000E+00 0.  1.
         23    2    1    2    0    0  0.42218534529E+02 -0.32902770875E+03  0.20309430616E+03  0.40284526204E+03  0.10485881064E+03 0.  0.
         13    1    3    3    0    0 -0.28398857856E+01 -0.14757609567E+03  0.14538228404E+03  0.20717812982E+03  0.00000000000E+00 0. -1.
        -13    1    3    3    0    0  0.45058420315E+02 -0.18145161309E+03  0.57712022113E+02  0.19566713222E+03  0.00000000000E+00 0.  1.
         22    1    1    2    0    0 -0.42218534529E+02  0.32902770875E+03 -0.63820851624E+03  0.71927167884E+03  0.00000000000E+00 0.  1.
<mgrwt>
<rscale>  0 0.10343220E+04</rscale>
<asrwt>0</asrwt>
<pdfrwt beam="1">  1        1 0.52846364E-01 0.10343220E+04</pdfrwt>
<pdfrwt beam="2">  1       -1 0.11978701E+00 0.10343220E+04</pdfrwt>
<totfact> 0.45689672E+01</totfact>
</mgrwt>
</event>
<event>
 6    1  0.8968082E-007  0.5128784E+04  0.7818608E-02  0.7808942E-01
         -2   -1    0    0    0  501 -0.00000000000E+00  0.00000000000E+00  0.20201400193E+04  0.20201400193E+04  0.00000000000E+00 0.  1.
          2   -1    0    0  501    0  0.00000000000E+00 -0.00000000000E+00 -0.32552721402E+04  0.32552721402E+04  0.00000000000E+00 0. -1.
         23    2    1    2    0    0  0.86313633501E+03 -0.18362437461E+04 -0.22294255080E+04  0.30158956698E+04  0.92158384056E+02 0.  0.
         11    1    3    3    0    0  0.34774149250E+03 -0.80144766439E+03 -0.10152715320E+04  0.13394098656E+04  0.00000000000E+00 0. -1.
        -11    1    3    3    0    0  0.51539484251E+03 -0.10347960817E+04 -0.12141539760E+04  0.16764858042E+04  0.00000000000E+00 0.  1.
         22    1    1    2    0    0 -0.86313633501E+03  0.18362437461E+04  0.99429338705E+03  0.22595164897E+04  0.00000000000E+00 0.  1.
<mgrwt>
<rscale>  0 0.51287837E+04</rscale>
<asrwt>0</asrwt>
<pdfrwt beam="1">  1        2 0.50081110E+00 0.51287837E+04</pdfrwt>
<pdfrwt beam="2">  1       -2 0.31079077E+00 0.51287837E+04</pdfrwt>
<totfact> 0.23428469E-02</totfact>
</mgrwt>
</event>
<event>
 6    1  0.8968082E-007  0.3281444E+04  0.7818608E-02  0.8167633E-01
          1   -1    0    0  501    0  0.00000000000E+00  0.00000000000E+00  0.14025247243E+04  0.14025247243E+04  0.00000000000E+00 0. -1.
         -1   -1    0    0    0  501 -0.00000000000E+00 -0.00000000000E+00 -0.19193735547E+04  0.19193735547E+04  0.00000000000E+00 0.  1.
         23    2    1    2    0    0 -0.45095689249E+02  0.46770585044E+03  0.13315063283E+04  0.14147540327E+04  0.88529583120E+02 0.  0.
         11    1    3    3    0    0 -0.57941077453E+02  0.28034073864E+03  0.71153896424E+03  0.76696531592E+03  0.00000000000E+00 0. -1.
        -11    1    3    3    0    0  0.12845388204E+02  0.18736511181E+03  0.61996736406E+03  0.64778871681E+03  0.00000000000E+00 0.  1.
         22    1    1    2    0    0  0.45095689249E+02 -0.46770585044E+03 -0.18483551586E+04  0.19071442463E+04  0.00000000000E+00 0.  1.
<mgrwt>
<rscale>  0 0.32814441E+04</rscale>
<asrwt>0</asrwt>
<pdfrwt beam="1">  1        1 0.21577304E+00 0.32814441E+04</pdfrwt>
<pdfrwt beam="2">  1       -1 0.29528824E+00 0.32814441E+04</pdfrwt>
<totfact> 0.22523414E-01</totfact>
</mgrwt>
</event>
<event>
 6    1  0.8968082E-007  0.4248042E+04  0.7818608E-02  0.7956296E-01
         -2   -1    0    0    0  501 -0.00000000000E+00  0.00000000000E+00  0.24675943384E+04  0.24675943384E+04  0.00000000000E+00 0.  1.
          2   -1    0    0  501    0  0.00000000000E+00 -0.00000000000E+00 -0.18282844341E+04  0.18282844341E+04  0.00000000000E+00 0. -1.
         23    2    1    2    0    0  0.18497994566E+03  0.20659882694E+04 -0.13876693551E+03  0.20804942284E+04  0.81699831325E+02 0.  0.
         11    1    3    3    0    0  0.93723263596E+02  0.12197507603E+04 -0.44623839677E+02  0.12241598157E+04  0.00000000000E+00 0. -1.
        -11    1    3    3    0    0  0.91256682069E+02  0.84623750905E+03 -0.94143095833E+02  0.85633441262E+03  0.00000000000E+00 0.  1.
         22    1    1    2    0    0 -0.18497994566E+03 -0.20659882694E+04  0.77807683980E+03  0.22153845441E+04  0.00000000000E+00 0.  1.
<mgrwt>
<rscale>  0 0.42480416E+04</rscale>
<asrwt>0</asrwt>
<pdfrwt beam="1">  1        2 0.28127453E+00 0.42480416E+04</pdfrwt>
<pdfrwt beam="2">  1       -2 0.37962990E+00 0.42480416E+04</pdfrwt>
<totfact> 0.64773803E-02</totfact>
</mgrwt>
</event>
<event>
 6    1  0.8968082E-007  0.1080708E+04  0.7818608E-02  0.9224201E-01
         -2   -1    0    0    0  501 -0.00000000000E+00  0.00000000000E+00  0.16347417757E+04  0.16347417757E+04  0.00000000000E+00 0.  1.
          2   -1    0    0  501    0  0.00000000000E+00 -0.00000000000E+00 -0.17861090202E+03  0.17861090202E+03  0.00000000000E+00 0. -1.
         23    2    1    2    0    0  0.47374120945E+03  0.20844697822E+03  0.96952493612E+03  0.11029540469E+04  0.92995437775E+02 0.  0.
         11    1    3    3    0    0  0.22016061170E+03  0.14231628457E+03  0.52842887905E+03  0.58988278497E+03  0.00000000000E+00 0. -1.
        -11    1    3    3    0    0  0.25358059776E+03  0.66130693647E+02  0.44109605708E+03  0.51307126188E+03  0.00000000000E+00 0.  1.
         22    1    1    2    0    0 -0.47374120945E+03 -0.20844697822E+03  0.48660593755E+03  0.71039863086E+03  0.00000000000E+00 0.  1.
<mgrwt>
<rscale>  0 0.10807085E+04</rscale>
<asrwt>0</asrwt>
<pdfrwt beam="1">  1        2 0.27478601E-01 0.10807085E+04</pdfrwt>
<pdfrwt beam="2">  1       -2 0.25149873E+00 0.10807085E+04</pdfrwt>
<totfact> 0.12368705E+01</totfact>
</mgrwt>
</event>
<event>
 6    1  0.8968082E-007  0.3079622E+04  0.7818608E-02  0.8221353E-01
          2   -1    0    0  501    0  0.00000000000E+00  0.00000000000E+00  0.24590277747E+04  0.24590277747E+04  0.00000000000E+00 0. -1.
         -2   -1    0    0    0  501 -0.00000000000E+00 -0.00000000000E+00 -0.96420961972E+03  0.96420961972E+03  0.00000000000E+00 0.  1.
         23    2    1    2    0    0  0.29545614067E+02  0.10739620182E+04 -0.47600428464E+03  0.11785974571E+04  0.90799378064E+02 0.  0.
         13    1    3    3    0    0  0.17260198180E+02  0.69307475103E+03 -0.25921384928E+03  0.74016372825E+03  0.00000000000E+00 0.  1.
        -13    1    3    3    0    0  0.12285415886E+02  0.38088726713E+03 -0.21679043536E+03  0.43843372882E+03  0.00000000000E+00 0. -1.
         22    1    1    2    0    0 -0.29545614067E+02 -0.10739620182E+04  0.19708224396E+04  0.22446399373E+04  0.00000000000E+00 0. -1.
<mgrwt>
<rscale>  0 0.30796222E+04</rscale>
<asrwt>0</asrwt>
<pdfrwt beam="1">  1        2 0.37831196E+00 0.30796222E+04</pdfrwt>
<pdfrwt beam="2">  1       -2 0.14833994E+00 0.30796222E+04</pdfrwt>
<totfact> 0.96464848E-01</totfact>
</mgrwt>
</event>
<event>
 6    1  0.8968082E-007  0.1279981E+04  0.7818608E-02  0.9045593E-01
         -4   -1    0    0    0  501 -0.00000000000E+00  0.00000000000E+00  0.63076796499E+03  0.63076796499E+03  0.00000000000E+00 0.  1.
          4   -1    0    0  501    0  0.00000000000E+00 -0.00000000000E+00 -0.64934741396E+03  0.64934741396E+03  0.00000000000E+00 0. -1.
         23    2    1    2    0    0 -0.32548471292E+03  0.14778615556E+03 -0.53641665461E+03  0.65088059156E+03  0.90120314057E+02 0.  0.
         11    1    3    3    0    0 -0.10527892354E+03  0.56583387951E+01 -0.13153877250E+03  0.16857673983E+03  0.00000000000E+00 0.  1.
        -11    1    3    3    0    0 -0.22020578938E+03  0.14212781676E+03 -0.40487788211E+03  0.48230385173E+03  0.00000000000E+00 0. -1.
         22    1    1    2    0    0  0.32548471292E+03 -0.14778615556E+03  0.51783720565E+03  0.62923478740E+03  0.00000000000E+00 0.  1.
<mgrwt>
<rscale>  0 0.12799805E+04</rscale>
<asrwt>0</asrwt>
<pdfrwt beam="1">  1        4 0.99899601E-01 0.12799805E+04</pdfrwt>
<pdfrwt beam="2">  1       -4 0.97041226E-01 0.12799805E+04</pdfrwt>
<totfact> 0.14380537E+00</totfact>
</mgrwt>
</event>
<event>
 6    1  0.8968082E-007  0.2070030E+04  0.7818608E-02  0.8574561E-01
          1   -1    0    0  501    0  0.00000000000E+00  0.00000000000E+00  0.17625580753E+04  0.17625580753E+04  0.00000000000E+00 0. -1.
         -1   -1    0    0    0  501 -0.00000000000E+00 -0.00000000000E+00 -0.60778508046E+03  0.60778508046E+03  0.00000000000E+00 0.  1.
         23    2    1    2    0    0 -0.12437197245E+03  0.10244652595E+04  0.51651318439E+03  0.11569293594E+04  0.81867072570E+02 0.  0.
         11    1    3    3    0    0 -0.34170322027E+02  0.60152094740E+03  0.31399341124E+03  0.67940188650E+03  0.00000000000E+00 0. -1.
        -11    1    3    3    0    0 -0.90201650426E+02  0.42294431210E+03  0.20251977315E+03  0.47752747292E+03  0.00000000000E+00 0.  1.
         22    1    1    2    0    0  0.12437197245E+03 -0.10244652595E+04  0.63825981044E+03  0.12134137963E+04  0.00000000000E+00 0.  1.
<mgrwt>
<rscale>  0 0.20700304E+04</rscale>
<asrwt>0</asrwt>
<pdfrwt beam="1">  1        1 0.27116278E+00 0.20700304E+04</pdfrwt>
<pdfrwt beam="2">  1       -1 0.93505398E-01 0.20700304E+04</pdfrwt>
<totfact> 0.44193227E+00</totfact>
</mgrwt>
</event>
<event>
 6    1  0.8968082E-007  0.2677194E+04  0.7818608E-02  0.8342443E-01
          2   -1    0    0  501    0  0.00000000000E+00  0.00000000000E+00  0.15312096790E+04  0.15312096790E+04  0.00000000000E+00 0. -1.
         -2   -1    0    0    0  501 -0.00000000000E+00 -0.00000000000E+00 -0.11702134004E+04  0.11702134004E+04  0.00000000000E+00 0.  1.
         23    2    1    2    0    0 -0.27013654806E+03  0.10527000450E+04  0.96659308172E+03  0.14572773373E+04  0.90575453588E+02 0.  0.
         11    1    3    3    0    0 -0.16788005158E+03  0.51158886818E+03  0.44022007764E+03  0.69548587227E+03  0.00000000000E+00 0.  1.
        -11    1    3    3    0    0 -0.10225649648E+03  0.54111117686E+03  0.52637300408E+03  0.76179146505E+03  0.00000000000E+00 0. -1.
         22    1    1    2    0    0  0.27013654806E+03 -0.10527000450E+04 -0.60559680313E+03  0.12441457420E+04  0.00000000000E+00 0.  1.
<mgrwt>
<rscale>  0 0.26771941E+04</rscale>
<asrwt>0</asrwt>
<pdfrwt beam="1">  1        2 0.23557072E+00 0.26771941E+04</pdfrwt>
<pdfrwt beam="2">  1       -2 0.18003283E+00 0.26771941E+04</pdfrwt>
<totfact> 0.19419604E+00</totfact>
</mgrwt>
</event>
<event>
 6    1  0.8968082E-007  0.2245755E+04  0.7818608E-02  0.8499622E-01
          2   -1    0    0  501    0  0.00000000000E+00  0.00000000000E+00  0.32173832821E+04  0.32173832821E+04  0.00000000000E+00 0. -1.
         -2   -1    0    0    0  501 -0.00000000000E+00 -0.00000000000E+00 -0.39188785049E+03  0.39188785049E+03  0.00000000000E+00 0.  1.
         23    2    1    2    0    0 -0.41392815217E+03 -0.89761252388E+03  0.56678722901E+03  0.11437473540E+04  0.99325166316E+02 0.  0.
         13    1    3    3    0    0 -0.28387617577E+03 -0.71106496476E+03  0.42338541682E+03  0.87490243939E+03  0.00000000000E+00 0. -1.
        -13    1    3    3    0    0 -0.13005197641E+03 -0.18654755912E+03  0.14340181219E+03  0.26884491463E+03  0.00000000000E+00 0.  1.
         22    1    1    2    0    0  0.41392815217E+03  0.89761252388E+03  0.22587082026E+04  0.24655237785E+04  0.00000000000E+00 0. -1.
<mgrwt>
<rscale>  0 0.22457546E+04</rscale>
<asrwt>0</asrwt>
<pdfrwt beam="1">  1        2 0.49498203E+00 0.22457546E+04</pdfrwt>
<pdfrwt beam="2">  1       -2 0.60290441E-01 0.22457546E+04</pdfrwt>
<totfact> 0.29542737E+00</totfact>
</mgrwt>
</event>
<event>
 6    1  0.8968082E-007  0.2851971E+04  0.7818608E-02  0.8287313E-01
          2   -1    0    0  501    0  0.00000000000E+00  0.00000000000E+00  0.26784797684E+04  0.26784797684E+04  0.00000000000E+00 0. -1.
         -2   -1    0    0    0  501 -0.00000000000E+00 -0.00000000000E+00 -0.75917498926E+03  0.75917498926E+03  0.00000000000E+00 0.  1.
         23    2    1    2    0    0  0.26546422721E+03  0.45753824825E+03  0.25549351445E+04  0.26107094960E+04  0.91093224635E+02 0.  0.
         11    1    3    3    0    0  0.91290700686E+02  0.24500882778E+03  0.13028623468E+04  0.13288391974E+04  0.00000000000E+00 0. -1.
        -11    1    3    3    0    0  0.17417352653E+03  0.21252942048E+03  0.12520727976E+04  0.12818702986E+04  0.00000000000E+00 0.  1.
         22    1    1    2    0    0 -0.26546422721E+03 -0.45753824825E+03 -0.63563036529E+03  0.82694526169E+03  0.00000000000E+00 0.  1.
<mgrwt>
<rscale>  0 0.28519711E+04</rscale>
<asrwt>0</asrwt>
<pdfrwt beam="1">  1        2 0.41207380E+00 0.28519711E+04</pdfrwt>
<pdfrwt beam="2">  1       -2 0.11679615E+00 0.28519711E+04</pdfrwt>
<totfact> 0.13448784E+00</totfact>
</mgrwt>
</event>
<event>
 6    1  0.8968082E-007  0.1152989E+04  0.7818608E-02  0.9155031E-01
          1   -1    0    0  501    0  0.00000000000E+00  0.00000000000E+00  0.85759392258E+03  0.85759392258E+03  0.00000000000E+00 0. -1.
         -1   -1    0    0    0  501 -0.00000000000E+00 -0.00000000000E+00 -0.38753272694E+03  0.38753272694E+03  0.00000000000E+00 0.  1.
         23    2    1    2    0    0 -0.27405882604E+03  0.49714429758E+03  0.32135912527E+03  0.65829362516E+03  0.88420115209E+02 0.  0.
         13    1    3    3    0    0 -0.17483342829E+03  0.26911346189E+03  0.13805687634E+03  0.34935438186E+03  0.00000000000E+00 0. -1.
        -13    1    3    3    0    0 -0.99225397747E+02  0.22803083570E+03  0.18330224893E+03  0.30893924330E+03  0.00000000000E+00 0.  1.
         22    1    1    2    0    0  0.27405882604E+03 -0.49714429758E+03  0.14870207037E+03  0.58683302436E+03  0.00000000000E+00 0. -1.
<mgrwt>
<rscale>  0 0.11529887E+04</rscale>
<asrwt>0</asrwt>
<pdfrwt beam="1">  1        1 0.13193753E+00 0.11529887E+04</pdfrwt>
<pdfrwt beam="2">  1       -1 0.59620420E-01 0.11529887E+04</pdfrwt>
<totfact> 0.55893053E+01</totfact>
</mgrwt>
</event>
<event>
 6    1  0.8968082E-007  0.2476760E+04  0.7818608E-02  0.8411312E-01
          1   -1    0    0  501    0  0.00000000000E+00  0.00000000000E+00  0.23395100616E+04  0.23395100616E+04  0.00000000000E+00 0. -1.
         -1   -1    0    0    0  501 -0.00000000000E+00 -0.00000000000E+00 -0.65551532663E+03  0.65551532663E+03  0.00000000000E+00 0.  1.
         23    2    1    2    0    0 -0.31115576801E+03  0.93903473291E+03 -0.54181302526E+02  0.99506036881E+03  0.92765200604E+02 0.  0.
         13    1    3    3    0    0 -0.21829959632E+03  0.51250551836E+03 -0.31742030517E+02  0.55796431481E+03  0.00000000000E+00 0. -1.
        -13    1    3    3    0    0 -0.92856171686E+02  0.42652921455E+03 -0.22439272008E+02  0.43709605399E+03  0.00000000000E+00 0.  1.
         22    1    1    2    0    0  0.31115576801E+03 -0.93903473291E+03  0.17381760375E+04  0.19999650195E+04  0.00000000000E+00 0. -1.
<mgrwt>
<rscale>  0 0.24767597E+04</rscale>
<asrwt>0</asrwt>
<pdfrwt beam="1">  1        1 0.35992462E+00 0.24767597E+04</pdfrwt>
<pdfrwt beam="2">  1       -1 0.10084851E+00 0.24767597E+04</pdfrwt>
<totfact> 0.14545977E+00</totfact>
</mgrwt>
</event>
<event>
 6    1  0.8968082E-007  0.1555170E+04  0.7818608E-02  0.8848572E-01
         -2   -1    0    0    0  501 -0.00000000000E+00  0.00000000000E+00  0.12960998459E+03  0.12960998459E+03  0.00000000000E+00 0.  1.
          2   -1    0    0  501    0  0.00000000000E+00 -0.00000000000E+00 -0.46650580077E+04  0.46650580077E+04  0.00000000000E+00 0. -1.
         23    2    1    2    0    0  0.39876678983E+03 -0.64835073579E+03 -0.27253132149E+04  0.28310077230E+04  0.88876201350E+02 0.  0.
         13    1    3    3    0    0  0.99079425368E+02 -0.23657664698E+03 -0.96485290644E+03  0.99836184497E+03  0.00000000000E+00 0. -1.
        -13    1    3    3    0    0  0.29968736446E+03 -0.41177408881E+03 -0.17604603084E+04  0.18326458780E+04  0.00000000000E+00 0.  1.
         22    1    1    2    0    0 -0.39876678983E+03  0.64835073579E+03 -0.18101348082E+04  0.19636602693E+04  0.00000000000E+00 0.  1.
<mgrwt>
<rscale>  0 0.15551696E+04</rscale>
<asrwt>0</asrwt>
<pdfrwt beam="1">  1        2 0.71770113E+00 0.15551696E+04</pdfrwt>
<pdfrwt beam="2">  1       -2 0.19940000E-01 0.15551696E+04</pdfrwt>
<totfact> 0.17943792E+00</totfact>
</mgrwt>
</event>
<event>
 6    1  0.8968082E-007  0.4515789E+04  0.7818608E-02  0.7907878E-01
          1   -1    0    0  501    0  0.00000000000E+00  0.00000000000E+00  0.13754809218E+04  0.13754809218E+04  0.00000000000E+00 0. -1.
         -1   -1    0    0    0  501 -0.00000000000E+00 -0.00000000000E+00 -0.37064029771E+04  0.37064029771E+04  0.00000000000E+00 0.  1.
         23    2    1    2    0    0 -0.42996395697E+02 -0.21759947000E+04 -0.49343961972E+03  0.22335258937E+04  0.91398220549E+02 0.  0.
         13    1    3    3    0    0 -0.31475479028E+02 -0.12241651314E+04 -0.32346041371E+03  0.12665692298E+04  0.00000000000E+00 0.  1.
        -13    1    3    3    0    0 -0.11520916670E+02 -0.95182956867E+03 -0.16997920601E+03  0.96695666387E+03  0.00000000000E+00 0. -1.
         22    1    1    2    0    0  0.42996395697E+02  0.21759947000E+04 -0.18374824356E+04  0.28483580052E+04  0.00000000000E+00 0.  1.
<mgrwt>
<rscale>  0 0.45157886E+04</rscale>
<asrwt>0</asrwt>
<pdfrwt beam="1">  1        1 0.21161245E+00 0.45157886E+04</pdfrwt>
<pdfrwt beam="2">  1       -1 0.57021584E+00 0.45157886E+04</pdfrwt>
<totfact> 0.35841077E-03</totfact>
</mgrwt>
</event>
<event>
 6    1  0.8968082E-007  0.6405632E+04  0.7818608E-02  0.7642046E-01
          2   -1    0    0  501    0  0.00000000000E+00  0.00000000000E+00  0.43057541116E+04  0.43057541116E+04  0.00000000000E+00 0. -1.
         -2   -1    0    0    0  501 -0.00000000000E+00 -0.00000000000E+00 -0.23824002856E+04  0.23824002856E+04  0.00000000000E+00 0.  1.
         23    2    1    2    0    0 -0.19866876188E+04  0.25860017456E+03 -0.16463306839E+04  0.25946901864E+04  0.90612900991E+02 0.  0.
         11    1    3    3    0    0 -0.18411484545E+04  0.26319552713E+03 -0.15238976819E+04  0.24044466436E+04  0.00000000000E+00 0.  1.
        -11    1    3    3    0    0 -0.14553916426E+03 -0.45953525708E+01 -0.12243300196E+03  0.19024354278E+03  0.00000000000E+00 0. -1.
         22    1    1    2    0    0  0.19866876188E+04 -0.25860017456E+03  0.35696845099E+04  0.40934642108E+04  0.00000000000E+00 0. -1.
<mgrwt>
<rscale>  0 0.64056318E+04</rscale>
<asrwt>0</asrwt>
<pdfrwt beam="1">  1        2 0.66242371E+00 0.64056318E+04</pdfrwt>
<pdfrwt beam="2">  1       -2 0.36652312E+00 0.64056318E+04</pdfrwt>
<totfact> 0.14810189E-03</totfact>
</mgrwt>
</event>
<event>
 6    1  0.8968082E-007  0.3466426E+04  0.7818608E-02  0.8121793E-01
          1   -1    0    0  501    0  0.00000000000E+00  0.00000000000E+00  0.16297954631E+04  0.16297954631E+04  0.00000000000E+00 0. -1.
         -1   -1    0    0    0  501 -0.00000000000E+00 -0.00000000000E+00 -0.18431923402E+04  0.18431923402E+04  0.00000000000E+00 0.  1.
         23    2    1    2    0    0  0.15112958132E+04 -0.54042207856E+03  0.54548254679E+03  0.16976092415E+04  0.90856315528E+02 0.  0.
         11    1    3    3    0    0  0.11032338060E+03 -0.43167083273E+02  0.16073216202E+02  0.11955330888E+03  0.00000000000E+00 0.  1.
        -11    1    3    3    0    0  0.14009724326E+04 -0.49725499529E+03  0.52940933059E+03  0.15780559326E+04  0.00000000000E+00 0. -1.
         22    1    1    2    0    0 -0.15112958132E+04  0.54042207856E+03 -0.75887942383E+03  0.17753785618E+04  0.00000000000E+00 0.  1.
<mgrwt>
<rscale>  0 0.34664255E+04</rscale>
<asrwt>0</asrwt>
<pdfrwt beam="1">  1        1 0.25073776E+00 0.34664255E+04</pdfrwt>
<pdfrwt beam="2">  1       -1 0.28356805E+00 0.34664255E+04</pdfrwt>
<totfact> 0.18378895E-01</totfact>
</mgrwt>
</event>
<event>
 6    1  0.8968082E-007  0.2775072E+04  0.7818608E-02  0.8311050E-01
          1   -1    0    0  501    0  0.00000000000E+00  0.00000000000E+00  0.51591946631E+03  0.51591946631E+03  0.00000000000E+00 0. -1.
         -1   -1    0    0    0  501 -0.00000000000E+00 -0.00000000000E+00 -0.37316990190E+04  0.37316990190E+04  0.00000000000E+00 0.  1.
         23    2    1    2    0    0 -0.55581222645E+03 -0.25076582910E+03  0.29544370655E+03  0.68384246704E+03  0.92427289628E+02 0.  0.
         13    1    3    3    0    0 -0.28887170364E+03 -0.90887357688E+02  0.17792487874E+03  0.35123302155E+03  0.00000000000E+00 0. -1.
        -13    1    3    3    0    0 -0.26694052281E+03 -0.15987847141E+03  0.11751882782E+03  0.33260944549E+03  0.00000000000E+00 0.  1.
         22    1    1    2    0    0  0.55581222645E+03  0.25076582910E+03 -0.35112232593E+04  0.35637760183E+04  0.00000000000E+00 0.  1.
<mgrwt>
<rscale>  0 0.27750720E+04</rscale>
<asrwt>0</asrwt>
<pdfrwt beam="1">  1        1 0.79372227E-01 0.27750720E+04</pdfrwt>
<pdfrwt beam="2">  1       -1 0.57410753E+00 0.27750720E+04</pdfrwt>
<totfact> 0.20722384E-02</totfact>
</mgrwt>
</event>
<event>
 6    1  0.8968082E-007  0.3810329E+04  0.7818608E-02  0.8043942E-01
          2   -1    0    0  501    0  0.00000000000E+00  0.00000000000E+00  0.23644942561E+04  0.23644942561E+04  0.00000000000E+00 0. -1.
         -2   -1    0    0    0  501 -0.00000000000E+00 -0.00000000000E+00 -0.15350651376E+04  0.15350651376E+04  0.00000000000E+00 0.  1.
         23    2    1    2    0    0 -0.15117342520E+04 -0.33782512430E+03  0.15480845427E+04  0.21919494024E+04  0.92790992175E+02 0.  0.
         13    1    3    3    0    0 -0.79551474592E+03 -0.14812267097E+03  0.85920430935E+03  0.11802610228E+04  0.00000000000E+00 0.  1.
        -13    1    3    3    0    0 -0.71621950604E+03 -0.18970245333E+03  0.68888023338E+03  0.10116883797E+04  0.00000000000E+00 0. -1.
         22    1    1    2    0    0  0.15117342520E+04  0.33782512430E+03 -0.71865542424E+03  0.17076099912E+04  0.00000000000E+00 0.  1.
<mgrwt>
<rscale>  0 0.38103295E+04</rscale>
<asrwt>0</asrwt>
<pdfrwt beam="1">  1        2 0.36376835E+00 0.38103295E+04</pdfrwt>
<pdfrwt beam="2">  1       -2 0.23616387E+00 0.38103295E+04</pdfrwt>
<totfact> 0.26117004E-01</totfact>
</mgrwt>
</event>
<event>
 6    1  0.8968082E-007  0.9731588E+03  0.7818608E-02  0.9338484E-01
         -2   -1    0    0    0  501 -0.00000000000E+00  0.00000000000E+00  0.15918472352E+03  0.15918472352E+03  0.00000000000E+00 0.  1.
          2   -1    0    0  501    0  0.00000000000E+00 -0.00000000000E+00 -0.14873256097E+04  0.14873256097E+04  0.00000000000E+00 0. -1.
         23    2    1    2    0    0 -0.45653381148E+02  0.12628595981E+02 -0.14820144414E+04  0.14855110051E+04  0.90179981524E+02 0.  0.
         13    1    3    3    0    0 -0.26118703249E+02 -0.33342422675E+02 -0.37767035221E+03  0.38003789120E+03  0.00000000000E+00 0. -1.
        -13    1    3    3    0    0 -0.19534677899E+02  0.45971018656E+02 -0.11043440892E+04  0.11054731139E+04  0.00000000000E+00 0.  1.
         22    1    1    2    0    0  0.45653381148E+02 -0.12628595981E+02  0.15387355524E+03  0.16099932810E+03  0.00000000000E+00 0.  1.
<mgrwt>
<rscale>  0 0.97315881E+03</rscale>
<asrwt>0</asrwt>
<pdfrwt beam="1">  1        2 0.22881933E+00 0.97315881E+03</pdfrwt>
<pdfrwt beam="2">  1       -2 0.24489957E-01 0.97315881E+03</pdfrwt>
<totfact> 0.19197117E+02</totfact>
</mgrwt>
</event>
<event>
 6    1  0.8968082E-007  0.1434390E+04  0.7818608E-02  0.8929295E-01
         -1   -1    0    0    0  501 -0.00000000000E+00  0.00000000000E+00  0.36369442132E+03  0.36369442132E+03  0.00000000000E+00 0.  1.
          1   -1    0    0  501    0  0.00000000000E+00 -0.00000000000E+00 -0.14142871080E+04  0.14142871080E+04  0.00000000000E+00 0. -1.
         23    2    1    2    0    0  0.55578912507E+03 -0.10299220483E+03  0.13840981728E+02  0.57277284189E+03  0.91477919950E+02 0.  0.
         13    1    3    3    0    0  0.37624636420E+03 -0.52934522565E+02  0.48990403933E+02  0.38309718079E+03  0.00000000000E+00 0. -1.
        -13    1    3    3    0    0  0.17954276086E+03 -0.50057682266E+02 -0.35149422205E+02  0.18967566110E+03  0.00000000000E+00 0.  1.
         22    1    1    2    0    0 -0.55578912507E+03  0.10299220483E+03 -0.10644336684E+04  0.12052086874E+04  0.00000000000E+00 0. -1.
<mgrwt>
<rscale>  0 0.14343895E+04</rscale>
<asrwt>0</asrwt>
<pdfrwt beam="1">  1        1 0.21758262E+00 0.14343895E+04</pdfrwt>
<pdfrwt beam="2">  1       -1 0.55952990E-01 0.14343895E+04</pdfrwt>
<totfact> 0.23586944E+01</totfact>
</mgrwt>
</event>
<event>
 6    1  0.8968082E-007  0.2227514E+04  0.7818608E-02  0.8507063E-01
         -1   -1    0    0    0  501 -0.00000000000E+00  0.00000000000E+00  0.93848687542E+03  0.93848687542E+03  0.00000000000E+00 0.  1.
          1   -1    0    0  501    0  0.00000000000E+00 -0.00000000000E+00 -0.13217605041E+04  0.13217605041E+04  0.00000000000E+00 0. -1.
         23    2    1    2    0    0 -0.40738473061E+03  0.41705038834E+03  0.76917573941E+03  0.96872390271E+03  0.83074282612E+02 0.  0.
         11    1    3    3    0    0 -0.26732085519E+03  0.21549856782E+03  0.44034517264E+03  0.55839407538E+03  0.00000000000E+00 0. -1.
        -11    1    3    3    0    0 -0.14006387542E+03  0.20155182052E+03  0.32883056678E+03  0.41032982733E+03  0.00000000000E+00 0.  1.
         22    1    1    2    0    0  0.40738473061E+03 -0.41705038834E+03 -0.11524493681E+04  0.12915234768E+04  0.00000000000E+00 0. -1.
<mgrwt>
<rscale>  0 0.22275142E+04</rscale>
<asrwt>0</asrwt>
<pdfrwt beam="1">  1        1 0.20334777E+00 0.22275142E+04</pdfrwt>
<pdfrwt beam="2">  1       -1 0.14438260E+00 0.22275142E+04</pdfrwt>
<totfact> 0.30678288E+00</totfact>
</mgrwt>
</event>
<event>
 6    1  0.8968082E-007  0.5132825E+04  0.7818608E-02  0.7808338E-01
          2   -1    0    0  501    0  0.00000000000E+00  0.00000000000E+00  0.19344618191E+04  0.19344618191E+04  0.00000000000E+00 0. -1.
         -2   -1    0    0    0  501 -0.00000000000E+00 -0.00000000000E+00 -0.34048094578E+04  0.34048094578E+04  0.00000000000E+00 0.  1.
         23    2    1    2    0    0  0.57121443151E+03 -0.24346322966E+04 -0.13318313224E+04  0.28346940439E+04  0.89416469847E+02 0.  0.
         11    1    3    3    0    0  0.25337299953E+03 -0.11040030781E+04 -0.55328683872E+03  0.12606137391E+04  0.00000000000E+00 0.  1.
        -11    1    3    3    0    0  0.31784143198E+03 -0.13306292185E+04 -0.77854448370E+03  0.15740803049E+04  0.00000000000E+00 0. -1.
         22    1    1    2    0    0 -0.57121443151E+03  0.24346322966E+04 -0.13851631626E+03  0.25045772330E+04  0.00000000000E+00 0. -1.
<mgrwt>
<rscale>  0 0.51328253E+04</rscale>
<asrwt>0</asrwt>
<pdfrwt beam="1">  1        2 0.29760951E+00 0.51328253E+04</pdfrwt>
<pdfrwt beam="2">  1       -2 0.52381684E+00 0.51328253E+04</pdfrwt>
<totfact> 0.62739197E-03</totfact>
</mgrwt>
</event>
<event>
 6    1  0.8968082E-007  0.3347042E+04  0.7818608E-02  0.8151028E-01
          1   -1    0    0  501    0  0.00000000000E+00  0.00000000000E+00  0.22893988378E+04  0.22893988378E+04  0.00000000000E+00 0. -1.
         -1   -1    0    0    0  501 -0.00000000000E+00 -0.00000000000E+00 -0.12233222086E+04  0.12233222086E+04  0.00000000000E+00 0.  1.
         23    2    1    2    0    0 -0.41725316314E+03 -0.12813624007E+04 -0.50616138374E+03  0.14419911815E+04  0.84554225883E+02 0.  0.
         11    1    3    3    0    0 -0.29997854351E+03 -0.81470211454E+03 -0.30046976918E+03  0.91869948524E+03  0.00000000000E+00 0.  1.
        -11    1    3    3    0    0 -0.11727461963E+03 -0.46666028615E+03 -0.20569161456E+03  0.52329169626E+03  0.00000000000E+00 0. -1.
         22    1    1    2    0    0  0.41725316314E+03  0.12813624007E+04  0.15722380129E+04  0.20707298649E+04  0.00000000000E+00 0. -1.
<mgrwt>
<rscale>  0 0.33470419E+04</rscale>
<asrwt>0</asrwt>
<pdfrwt beam="1">  1        1 0.35221521E+00 0.33470419E+04</pdfrwt>
<pdfrwt beam="2">  1       -1 0.18820342E+00 0.33470419E+04</pdfrwt>
<totfact> 0.28449001E-01</totfact>
</mgrwt>
</event>
<event>
 6    1  0.8968082E-007  0.3470506E+04  0.7818608E-02  0.8120816E-01
         -2   -1    0    0    0  501 -0.00000000000E+00  0.00000000000E+00  0.15264994519E+04  0.15264994519E+04  0.00000000000E+00 0.  1.
          2   -1    0    0  501    0  0.00000000000E+00 -0.00000000000E+00 -0.19725537504E+04  0.19725537504E+04  0.00000000000E+00 0. -1.
         23    2    1    2    0    0  0.22138517150E+03 -0.12141499497E+04  0.10049076903E+04  0.15942009278E+04  0.92008899310E+02 0.  0.
         13    1    3    3    0    0  0.12659746587E+03 -0.47712264509E+03  0.43040091084E+03  0.65491822457E+03  0.00000000000E+00 0. -1.
        -13    1    3    3    0    0  0.94787705624E+02 -0.73702730460E+03  0.57450677948E+03  0.93928270320E+03  0.00000000000E+00 0.  1.
         22    1    1    2    0    0 -0.22138517150E+03  0.12141499497E+04 -0.14509619888E+04  0.19048522744E+04  0.00000000000E+00 0. -1.
<mgrwt>
<rscale>  0 0.34705056E+04</rscale>
<asrwt>0</asrwt>
<pdfrwt beam="1">  1        2 0.30346981E+00 0.34705056E+04</pdfrwt>
<pdfrwt beam="2">  1       -2 0.23484607E+00 0.34705056E+04</pdfrwt>
<totfact> 0.45457973E-01</totfact>
</mgrwt>
</event>
<event>
 6    1  0.8968082E-007  0.3490492E+04  0.7818608E-02  0.8116047E-01
         -2   -1    0    0    0  501 -0.00000000000E+00  0.00000000000E+00  0.10301319363E+04  0.10301319363E+04  0.00000000000E+00 0.  1.
          2   -1    0    0  501    0  0.00000000000E+00 -0.00000000000E+00 -0.29567894345E+04  0.29567894345E+04  0.00000000000E+00 0. -1.
         23    2    1    2    0    0 -0.10997757870E+04 -0.13468523581E+04 -0.80892253602E+03  0.19198341685E+04  0.88822909852E+02 0.  0.
         11    1    3    3    0    0 -0.81404192407E+03 -0.99258729439E+03 -0.55372726285E+03  0.13980370785E+04  0.00000000000E+00 0. -1.
        -11    1    3    3    0    0 -0.28573386288E+03 -0.35426506370E+03 -0.25519527317E+03  0.52179709007E+03  0.00000000000E+00 0.  1.
         22    1    1    2    0    0  0.10997757870E+04  0.13468523581E+04 -0.11177349622E+04  0.20670872023E+04  0.00000000000E+00 0.  1.
<mgrwt>
<rscale>  0 0.34904918E+04</rscale>
<asrwt>0</asrwt>
<pdfrwt beam="1">  1        2 0.45489067E+00 0.34904918E+04</pdfrwt>
<pdfrwt beam="2">  1       -2 0.15848184E+00 0.34904918E+04</pdfrwt>
<totfact> 0.39363261E-01</totfact>
</mgrwt>
</event>
<event>
 6    1  0.8968082E-007  0.1756765E+04  0.7818608E-02  0.8729635E-01
          2   -1    0    0  501    0  0.00000000000E+00  0.00000000000E+00  0.25175807735E+04  0.25175807735E+04  0.00000000000E+00 0. -1.
         -2   -1    0    0    0  501 -0.00000000000E+00 -0.00000000000E+00 -0.30646726424E+03  0.30646726424E+03  0.00000000000E+00 0.  1.
         23    2    1    2    0    0  0.22704029505E+03 -0.78849930397E+03  0.61550640174E+03  0.10298238351E+04  0.91709065744E+02 0.  0.
         13    1    3    3    0    0  0.16941968509E+03 -0.43854619429E+03  0.37382015138E+03  0.60063907615E+03  0.00000000000E+00 0. -1.
        -13    1    3    3    0    0  0.57620609957E+02 -0.34995310968E+03  0.24168625036E+03  0.42918475891E+03  0.00000000000E+00 0.  1.
         22    1    1    2    0    0 -0.22704029505E+03  0.78849930397E+03  0.15956071075E+04  0.17942242027E+04  0.00000000000E+00 0. -1.
<mgrwt>
<rscale>  0 0.17567653E+04</rscale>
<asrwt>0</asrwt>
<pdfrwt beam="1">  1        2 0.38732011E+00 0.17567653E+04</pdfrwt>
<pdfrwt beam="2">  1       -2 0.47148812E-01 0.17567653E+04</pdfrwt>
<totfact> 0.13753660E+01</totfact>
</mgrwt>
</event>
<event>
 6    1  0.8968082E-007  0.1857418E+04  0.7818608E-02  0.8676347E-01
         -2   -1    0    0    0  501 -0.00000000000E+00  0.00000000000E+00  0.88265583148E+03  0.88265583148E+03  0.00000000000E+00 0.  1.
          2   -1    0    0  501    0  0.00000000000E+00 -0.00000000000E+00 -0.97716549851E+03  0.97716549851E+03  0.00000000000E+00 0. -1.
         23    2    1    2    0    0  0.50117978980E+03 -0.77629070740E+03 -0.11452617340E+03  0.93558699573E+03  0.91642446987E+02 0.  0.
         11    1    3    3    0    0  0.15601533492E+03 -0.27961015406E+03 -0.10386443437E+01  0.32019322567E+03  0.00000000000E+00 0. -1.
        -11    1    3    3    0    0  0.34516445488E+03 -0.49668055335E+03 -0.11348752906E+03  0.61539377007E+03  0.00000000000E+00 0.  1.
         22    1    1    2    0    0 -0.50117978980E+03  0.77629070740E+03  0.20016506366E+02  0.92423433426E+03  0.00000000000E+00 0. -1.
<mgrwt>
<rscale>  0 0.18574185E+04</rscale>
<asrwt>0</asrwt>
<pdfrwt beam="1">  1        2 0.15033315E+00 0.18574185E+04</pdfrwt>
<pdfrwt beam="2">  1       -2 0.13579320E+00 0.18574185E+04</pdfrwt>
<totfact> 0.95173727E+00</totfact>
</mgrwt>
</event>
<event>
 6    1  0.8968082E-007  0.1856385E+04  0.7818608E-02  0.8676876E-01
         -1   -1    0    0    0  501 -0.00000000000E+00  0.00000000000E+00  0.65792383438E+03  0.65792383438E+03  0.00000000000E+00 0.  1.
          1   -1    0    0  501    0  0.00000000000E+00 -0.00000000000E+00 -0.13094846543E+04  0.13094846543E+04  0.00000000000E+00 0. -1.
         23    2    1    2    0    0 -0.25516151408E+03 -0.83761712005E+03 -0.64564259454E+03  0.10917688005E+04  0.91623772887E+02 0.  0.
         11    1    3    3    0    0 -0.17512900484E+03 -0.59379989432E+03 -0.50633972176E+03  0.79978021772E+03  0.00000000000E+00 0. -1.
        -11    1    3    3    0    0 -0.80032509236E+02 -0.24381722573E+03 -0.13930287278E+03  0.29198858276E+03  0.00000000000E+00 0.  1.
         22    1    1    2    0    0  0.25516151408E+03  0.83761712005E+03 -0.59182253374E+01  0.87563968815E+03  0.00000000000E+00 0. -1.
<mgrwt>
<rscale>  0 0.18563848E+04</rscale>
<asrwt>0</asrwt>
<pdfrwt beam="1">  1        1 0.20145918E+00 0.18563848E+04</pdfrwt>
<pdfrwt beam="2">  1       -1 0.10121905E+00 0.18563848E+04</pdfrwt>
<totfact> 0.77523119E+00</totfact>
</mgrwt>
</event>
<event>
 6    1  0.8968082E-007  0.1091700E+04  0.7818608E-02  0.9213320E-01
         -2   -1    0    0    0  501 -0.00000000000E+00  0.00000000000E+00  0.12598184172E+04  0.12598184172E+04  0.00000000000E+00 0.  1.
          2   -1    0    0  501    0  0.00000000000E+00 -0.00000000000E+00 -0.23650390323E+03  0.23650390323E+03  0.00000000000E+00 0. -1.
         23    2    1    2    0    0 -0.35876611854E+02 -0.19717442934E+03  0.12054350404E+04  0.12255220749E+04  0.93090453282E+02 0.  0.
         13    1    3    3    0    0 -0.44753176336E+02 -0.14755176120E+03  0.66041676250E+03  0.67817746145E+03  0.00000000000E+00 0. -1.
        -13    1    3    3    0    0  0.88765644823E+01 -0.49622668137E+02  0.54501827792E+03  0.54734461343E+03  0.00000000000E+00 0.  1.
         22    1    1    2    0    0  0.35876611854E+02  0.19717442934E+03 -0.18212052642E+03  0.27080024558E+03  0.00000000000E+00 0. -1.
<mgrwt>
<rscale>  0 0.10916995E+04</rscale>
<asrwt>0</asrwt>
<pdfrwt beam="1">  1        2 0.36385217E-01 0.10916995E+04</pdfrwt>
<pdfrwt beam="2">  1       -2 0.19381821E+00 0.10916995E+04</pdfrwt>
<totfact> 0.20787682E+01</totfact>
</mgrwt>
</event>
<event>
 6    1  0.8968082E-007  0.1555822E+04  0.7818608E-02  0.8848158E-01
          2   -1    0    0  501    0  0.00000000000E+00  0.00000000000E+00  0.34728270773E+04  0.34728270773E+04  0.00000000000E+00 0. -1.
         -2   -1    0    0    0  501 -0.00000000000E+00 -0.00000000000E+00 -0.17425144641E+03  0.17425144641E+03  0.00000000000E+00 0.  1.
         23    2    1    2    0    0 -0.42365995185E+03 -0.64674144722E+03  0.15238156739E+04  0.17112233744E+04  0.92244103001E+02 0.  0.
         13    1    3    3    0    0 -0.35495605526E+03 -0.48030703042E+03  0.11270102019E+04  0.12754766324E+04  0.00000000000E+00 0. -1.
        -13    1    3    3    0    0 -0.68703896596E+02 -0.16643441680E+03  0.39680547197E+03  0.43574674191E+03  0.00000000000E+00 0.  1.
         22    1    1    2    0    0  0.42365995185E+03  0.64674144722E+03  0.17747599570E+04  0.19358551493E+04  0.00000000000E+00 0. -1.
<mgrwt>
<rscale>  0 0.15558215E+04</rscale>
<asrwt>0</asrwt>
<pdfrwt beam="1">  1        2 0.53428104E+00 0.15558215E+04</pdfrwt>
<pdfrwt beam="2">  1       -2 0.26807917E-01 0.15558215E+04</pdfrwt>
<totfact> 0.10449158E+01</totfact>
</mgrwt>
</event>
<event>
 6    1  0.8968082E-007  0.1957891E+04  0.7818608E-02  0.8626565E-01
          2   -1    0    0  501    0  0.00000000000E+00  0.00000000000E+00  0.28948493783E+04  0.28948493783E+04  0.00000000000E+00 0. -1.
         -2   -1    0    0    0  501 -0.00000000000E+00 -0.00000000000E+00 -0.33104795600E+03  0.33104795600E+03  0.00000000000E+00 0.  1.
         23    2    1    2    0    0  0.78851315136E+03  0.44198242820E+03  0.67421074549E+03  0.11312244762E+04  0.89483123862E+02 0.  0.
         13    1    3    3    0    0  0.17734793824E+03  0.10365970076E+03  0.20153859842E+03  0.28777670408E+03  0.00000000000E+00 0.  1.
        -13    1    3    3    0    0  0.61116521312E+03  0.33832272743E+03  0.47267214707E+03  0.84344777209E+03  0.00000000000E+00 0. -1.
         22    1    1    2    0    0 -0.78851315136E+03 -0.44198242820E+03  0.18895906768E+04  0.20946728581E+04  0.00000000000E+00 0. -1.
<mgrwt>
<rscale>  0 0.19578907E+04</rscale>
<asrwt>0</asrwt>
<pdfrwt beam="1">  1        2 0.44536143E+00 0.19578907E+04</pdfrwt>
<pdfrwt beam="2">  1       -2 0.50930457E-01 0.19578907E+04</pdfrwt>
<totfact> 0.68897340E+00</totfact>
</mgrwt>
</event>
<event>
 6    1  0.8968082E-007  0.4802274E+04  0.7818608E-02  0.7859754E-01
         -1   -1    0    0    0  501 -0.00000000000E+00  0.00000000000E+00  0.22115767733E+04  0.22115767733E+04  0.00000000000E+00 0.  1.
          1   -1    0    0  501    0  0.00000000000E+00 -0.00000000000E+00 -0.26069449277E+04  0.26069449277E+04  0.00000000000E+00 0. -1.
         23    2    1    2    0    0  0.16279350994E+04  0.25573277951E+03 -0.19489126142E+04  0.25537761676E+04  0.89108887085E+02 0.  0.
         11    1    3    3    0    0  0.13249339868E+04  0.17718110788E+03 -0.16048231212E+04  0.20886120906E+04  0.00000000000E+00 0.  1.
        -11    1    3    3    0    0  0.30300111261E+03  0.78551671631E+02 -0.34408949302E+03  0.46516407704E+03  0.00000000000E+00 0. -1.
         22    1    1    2    0    0 -0.16279350994E+04 -0.25573277951E+03  0.15535444598E+04  0.22647455334E+04  0.00000000000E+00 0.  1.
<mgrwt>
<rscale>  0 0.48022740E+04</rscale>
<asrwt>0</asrwt>
<pdfrwt beam="1">  1        1 0.40106845E+00 0.48022740E+04</pdfrwt>
<pdfrwt beam="2">  1       -1 0.34024258E+00 0.48022740E+04</pdfrwt>
<totfact> 0.15085639E-02</totfact>
</mgrwt>
</event>
<event>
 6    1  0.8968082E-007  0.3757893E+04  0.7818608E-02  0.8055252E-01
         -2   -1    0    0    0  501 -0.00000000000E+00  0.00000000000E+00  0.11537834416E+04  0.11537834416E+04  0.00000000000E+00 0.  1.
          2   -1    0    0  501    0  0.00000000000E+00 -0.00000000000E+00 -0.30598816847E+04  0.30598816847E+04  0.00000000000E+00 0. -1.
         23    2    1    2    0    0 -0.11547583155E+04  0.12828559740E+04 -0.12406506063E+03  0.17327724481E+04  0.89005618467E+02 0.  0.
         13    1    3    3    0    0 -0.86095807625E+03  0.89847744932E+03 -0.79767578719E+02  0.12469456294E+04  0.00000000000E+00 0. -1.
        -13    1    3    3    0    0 -0.29380023928E+03  0.38437852469E+03 -0.44297481909E+02  0.48582681868E+03  0.00000000000E+00 0.  1.
         22    1    1    2    0    0  0.11547583155E+04 -0.12828559740E+04 -0.17820331825E+04  0.24808926782E+04  0.00000000000E+00 0. -1.
<mgrwt>
<rscale>  0 0.37578935E+04</rscale>
<asrwt>0</asrwt>
<pdfrwt beam="1">  1        2 0.47075101E+00 0.37578935E+04</pdfrwt>
<pdfrwt beam="2">  1       -2 0.17750515E+00 0.37578935E+04</pdfrwt>
<totfact> 0.24214607E-01</totfact>
</mgrwt>
</event>
<event>
 6    1  0.8968082E-007  0.6894518E+03  0.7818608E-02  0.9735443E-01
         -2   -1    0    0    0  501 -0.00000000000E+00  0.00000000000E+00  0.30699848766E+03  0.30699848766E+03  0.00000000000E+00 0.  1.
          2   -1    0    0  501    0  0.00000000000E+00 -0.00000000000E+00 -0.38708971067E+03  0.38708971067E+03  0.00000000000E+00 0. -1.
         23    2    1    2    0    0  0.27083970181E+03 -0.17449970410E+02 -0.24457986141E+03  0.37673168320E+03  0.91917392134E+02 0.  0.
         11    1    3    3    0    0  0.15920593211E+03 -0.48401073737E+02 -0.11154838804E+03  0.20033031631E+03  0.00000000000E+00 0. -1.
        -11    1    3    3    0    0  0.11163376970E+03  0.30951103327E+02 -0.13303147337E+03  0.17640136689E+03  0.00000000000E+00 0.  1.
         22    1    1    2    0    0 -0.27083970181E+03  0.17449970410E+02  0.16448863839E+03  0.31735651514E+03  0.00000000000E+00 0.  1.
<mgrwt>
<rscale>  0 0.68945183E+03</rscale>
<asrwt>0</asrwt>
<pdfrwt beam="1">  1        2 0.59552263E-01 0.68945183E+03</pdfrwt>
<pdfrwt beam="2">  1       -2 0.47230537E-01 0.68945183E+03</pdfrwt>
<totfact> 0.35376936E+02</totfact>
</mgrwt>
</event>
<event>
 6    1  0.8968082E-007  0.1847159E+04  0.7818608E-02  0.8681615E-01
          2   -1    0    0  501    0  0.00000000000E+00  0.00000000000E+00  0.22971688807E+04  0.22971688807E+04  0.00000000000E+00 0. -1.
         -2   -1    0    0    0  501 -0.00000000000E+00 -0.00000000000E+00 -0.37132616021E+03  0.37132616021E+03  0.00000000000E+00 0.  1.
         23    2    1    2    0    0 -0.77551231765E+03  0.47698521567E+03  0.76176250907E+03  0.11906530367E+04  0.91860126351E+02 0.  0.
         13    1    3    3    0    0 -0.50525259864E+03  0.30023453585E+03  0.43456261741E+03  0.73093476686E+03  0.00000000000E+00 0.  1.
        -13    1    3    3    0    0 -0.27025971900E+03  0.17675067982E+03  0.32719989166E+03  0.45971826985E+03  0.00000000000E+00 0. -1.
         22    1    1    2    0    0  0.77551231765E+03 -0.47698521567E+03  0.11640802115E+04  0.14778420042E+04  0.00000000000E+00 0.  1.
<mgrwt>
<rscale>  0 0.18471588E+04</rscale>
<asrwt>0</asrwt>
<pdfrwt beam="1">  1        2 0.35341059E+00 0.18471588E+04</pdfrwt>
<pdfrwt beam="2">  1       -2 0.57127103E-01 0.18471588E+04</pdfrwt>
<totfact> 0.12296331E+01</totfact>
</mgrwt>
</event>
<event>
 6    1  0.8968082E-007  0.2761714E+04  0.7818608E-02  0.8315254E-01
          2   -1    0    0  501    0  0.00000000000E+00  0.00000000000E+00  0.20989897580E+04  0.20989897580E+04  0.00000000000E+00 0. -1.
         -2   -1    0    0    0  501 -0.00000000000E+00 -0.00000000000E+00 -0.90842090861E+03  0.90842090861E+03  0.00000000000E+00 0.  1.
         23    2    1    2    0    0 -0.28603419295E+03  0.90431993836E+03  0.16865802366E+04  0.19370661396E+04  0.89789889362E+02 0.  0.
         11    1    3    3    0    0 -0.38354596823E+02  0.14627414345E+03  0.33894476909E+03  0.37114789051E+03  0.00000000000E+00 0.  1.
        -11    1    3    3    0    0 -0.24767959612E+03  0.75804579491E+03  0.13476354675E+04  0.15659182490E+04  0.00000000000E+00 0. -1.
         22    1    1    2    0    0  0.28603419295E+03 -0.90431993836E+03 -0.49601138714E+03  0.10703445271E+04  0.00000000000E+00 0.  1.
<mgrwt>
<rscale>  0 0.27617141E+04</rscale>
<asrwt>0</asrwt>
<pdfrwt beam="1">  1        2 0.32292150E+00 0.27617141E+04</pdfrwt>
<pdfrwt beam="2">  1       -2 0.13975706E+00 0.27617141E+04</pdfrwt>
<totfact> 0.18528819E+00</totfact>
</mgrwt>
</event>
<event>
 6    1  0.8968082E-007  0.8606502E+03  0.7818608E-02  0.9476153E-01
          2   -1    0    0  501    0  0.00000000000E+00  0.00000000000E+00  0.11237736813E+04  0.11237736813E+04  0.00000000000E+00 0. -1.
         -2   -1    0    0    0  501 -0.00000000000E+00 -0.00000000000E+00 -0.16478380942E+03  0.16478380942E+03  0.00000000000E+00 0.  1.
         23    2    1    2    0    0 -0.10977731374E+03  0.25595103485E+03  0.11316009431E+01  0.29103332658E+03  0.84481511616E+02 0.  0.
         13    1    3    3    0    0 -0.33015979599E+02  0.16494523784E+03 -0.22314033988E+02  0.16969060819E+03  0.00000000000E+00 0.  1.
        -13    1    3    3    0    0 -0.76761334139E+02  0.91005797014E+02  0.23445634931E+02  0.12134271839E+03  0.00000000000E+00 0. -1.
         22    1    1    2    0    0  0.10977731374E+03 -0.25595103485E+03  0.95785827092E+03  0.99752416413E+03  0.00000000000E+00 0. -1.
<mgrwt>
<rscale>  0 0.86065024E+03</rscale>
<asrwt>0</asrwt>
<pdfrwt beam="1">  1        2 0.17288825E+00 0.86065024E+03</pdfrwt>
<pdfrwt beam="2">  1       -2 0.25351356E-01 0.86065024E+03</pdfrwt>
<totfact> 0.29530359E+02</totfact>
</mgrwt>
</event>
<event>
 6    1  0.8968082E-007  0.2345737E+04  0.7818608E-02  0.8460103E-01
          2   -1    0    0  501    0  0.00000000000E+00  0.00000000000E+00  0.83691866162E+03  0.83691866162E+03  0.00000000000E+00 0. -1.
         -2   -1    0    0    0  501 -0.00000000000E+00 -0.00000000000E+00 -0.16436733153E+04  0.16436733153E+04  0.00000000000E+00 0.  1.
         23    2    1    2    0    0 -0.76147895211E+03 -0.78922347957E+03 -0.83767325917E+03  0.13834685311E+04  0.97799755414E+02 0.  0.
         11    1    3    3    0    0 -0.37755555005E+03 -0.34004795554E+03 -0.42928020482E+03  0.66517839689E+03  0.00000000000E+00 0. -1.
        -11    1    3    3    0    0 -0.38392340206E+03 -0.44917552403E+03 -0.40839305435E+03  0.71829013420E+03  0.00000000000E+00 0.  1.
         22    1    1    2    0    0  0.76147895211E+03  0.78922347957E+03  0.30918605504E+02  0.10971234458E+04  0.00000000000E+00 0. -1.
<mgrwt>
<rscale>  0 0.23457373E+04</rscale>
<asrwt>0</asrwt>
<pdfrwt beam="1">  1        2 0.12875672E+00 0.23457373E+04</pdfrwt>
<pdfrwt beam="2">  1       -2 0.25287282E+00 0.23457373E+04</pdfrwt>
<totfact> 0.18063056E+00</totfact>
</mgrwt>
</event>
<event>
 6    1  0.8968082E-007  0.3684282E+04  0.7818608E-02  0.8071454E-01
          2   -1    0    0  501    0  0.00000000000E+00  0.00000000000E+00  0.25153852779E+04  0.25153852779E+04  0.00000000000E+00 0. -1.
         -2   -1    0    0    0  501 -0.00000000000E+00 -0.00000000000E+00 -0.13490911550E+04  0.13490911550E+04  0.00000000000E+00 0.  1.
         23    2    1    2    0    0 -0.16814947212E+03  0.16049216068E+04  0.15128865100E+04  0.22139692709E+04  0.93737565838E+02 0.  0.
         13    1    3    3    0    0 -0.86783882927E+02  0.58999707589E+03  0.50746919302E+03  0.78304085064E+03  0.00000000000E+00 0. -1.
        -13    1    3    3    0    0 -0.81365589189E+02  0.10149245309E+04  0.10054173170E+04  0.14309284202E+04  0.00000000000E+00 0.  1.
         22    1    1    2    0    0  0.16814947212E+03 -0.16049216068E+04 -0.34659238711E+03  0.16505071620E+04  0.00000000000E+00 0.  1.
<mgrwt>
<rscale>  0 0.36842823E+04</rscale>
<asrwt>0</asrwt>
<pdfrwt beam="1">  1        2 0.38698235E+00 0.36842823E+04</pdfrwt>
<pdfrwt beam="2">  1       -2 0.20755249E+00 0.36842823E+04</pdfrwt>
<totfact> 0.32776581E-01</totfact>
</mgrwt>
</event>
<event>
 6    1  0.8968082E-007  0.3400137E+04  0.7818608E-02  0.8137873E-01
          1   -1    0    0  501    0  0.00000000000E+00  0.00000000000E+00  0.18342478433E+04  0.18342478433E+04  0.00000000000E+00 0. -1.
         -1   -1    0    0    0  501 -0.00000000000E+00 -0.00000000000E+00 -0.15757047325E+04  0.15757047325E+04  0.00000000000E+00 0.  1.
         23    2    1    2    0    0  0.31164268251E+02 -0.16974153192E+04  0.65000993542E+02  0.17012546714E+04  0.88613488554E+02 0.  0.
         11    1    3    3    0    0 -0.14057242834E+02 -0.23733361770E+03  0.33795927953E+02  0.24013957798E+03  0.00000000000E+00 0. -1.
        -11    1    3    3    0    0  0.45221511085E+02 -0.14600817015E+04  0.31205065589E+02  0.14611150934E+04  0.00000000000E+00 0.  1.
         22    1    1    2    0    0 -0.31164268251E+02  0.16974153192E+04  0.19354211722E+03  0.17086979044E+04  0.00000000000E+00 0.  1.
<mgrwt>
<rscale>  0 0.34001371E+04</rscale>
<asrwt>0</asrwt>
<pdfrwt beam="1">  1        1 0.28219198E+00 0.34001371E+04</pdfrwt>
<pdfrwt beam="2">  1       -1 0.24241611E+00 0.34001371E+04</pdfrwt>
<totfact> 0.24832152E-01</totfact>
</mgrwt>
</event>
<event>
 6    1  0.8968082E-007  0.1052001E+04  0.7818608E-02  0.9253280E-01
         -2   -1    0    0    0  501 -0.00000000000E+00  0.00000000000E+00  0.13569976039E+03  0.13569976039E+03  0.00000000000E+00 0.  1.
          2   -1    0    0  501    0  0.00000000000E+00 -0.00000000000E+00 -0.20388888398E+04  0.20388888398E+04  0.00000000000E+00 0. -1.
         23    2    1    2    0    0  0.39612673249E+03  0.17564736255E+03 -0.35647545165E+03  0.56832229897E+03  0.90261307925E+02 0.  0.
         13    1    3    3    0    0  0.11745799930E+03  0.62998459990E+02 -0.60121056322E+02  0.14621808703E+03  0.00000000000E+00 0.  1.
        -13    1    3    3    0    0  0.27866873319E+03  0.11264890256E+03 -0.29635439533E+03  0.42210421194E+03  0.00000000000E+00 0. -1.
         22    1    1    2    0    0 -0.39612673249E+03 -0.17564736255E+03 -0.15467136278E+04  0.16062663012E+04  0.00000000000E+00 0. -1.
<mgrwt>
<rscale>  0 0.10520014E+04</rscale>
<asrwt>0</asrwt>
<pdfrwt beam="1">  1        2 0.31367519E+00 0.10520014E+04</pdfrwt>
<pdfrwt beam="2">  1       -2 0.20876887E-01 0.10520014E+04</pdfrwt>
<totfact> 0.12580673E+02</totfact>
</mgrwt>
</event>
<event>
 6    1  0.8968082E-007  0.3140089E+04  0.7818608E-02  0.8204821E-01
         -2   -1    0    0    0  501 -0.00000000000E+00  0.00000000000E+00  0.92728521072E+03  0.92728521072E+03  0.00000000000E+00 0.  1.
          2   -1    0    0  501    0  0.00000000000E+00 -0.00000000000E+00 -0.26583403954E+04  0.26583403954E+04  0.00000000000E+00 0. -1.
         23    2    1    2    0    0 -0.58229053574E+03  0.10389137481E+04  0.29963660158E+03  0.12314562888E+04  0.91095850762E+02 0.  0.
         13    1    3    3    0    0 -0.45790538693E+03  0.88572333193E+03  0.24690961880E+03  0.10272037402E+04  0.00000000000E+00 0. -1.
        -13    1    3    3    0    0 -0.12438514880E+03  0.15319041620E+03  0.52726982783E+02  0.20425254851E+03  0.00000000000E+00 0.  1.
         22    1    1    2    0    0  0.58229053574E+03 -0.10389137481E+04 -0.20306917863E+04  0.23541693174E+04  0.00000000000E+00 0. -1.
<mgrwt>
<rscale>  0 0.31400890E+04</rscale>
<asrwt>0</asrwt>
<pdfrwt beam="1">  1        2 0.40897544E+00 0.31400890E+04</pdfrwt>
<pdfrwt beam="2">  1       -2 0.14265927E+00 0.31400890E+04</pdfrwt>
<totfact> 0.81324420E-01</totfact>
</mgrwt>
</event>
<event>
 6    1  0.8968082E-007  0.2766936E+04  0.7818608E-02  0.8313608E-01
          2   -1    0    0  501    0  0.00000000000E+00  0.00000000000E+00  0.20952585282E+04  0.20952585282E+04  0.00000000000E+00 0. -1.
         -2   -1    0    0    0  501 -0.00000000000E+00 -0.00000000000E+00 -0.91348334460E+03  0.91348334460E+03  0.00000000000E+00 0.  1.
         23    2    1    2    0    0  0.10144740741E+04 -0.76528442035E+03  0.11821237586E+04  0.17379869741E+04  0.91456275806E+02 0.  0.
         11    1    3    3    0    0  0.84168375621E+03 -0.67275244128E+03  0.98183524010E+03  0.14577475198E+04  0.00000000000E+00 0.  1.
        -11    1    3    3    0    0  0.17279031789E+03 -0.92531979076E+02  0.20028851848E+03  0.28023945429E+03  0.00000000000E+00 0. -1.
         22    1    1    2    0    0 -0.10144740741E+04  0.76528442035E+03 -0.34857501235E+00  0.12707548987E+04  0.00000000000E+00 0.  1.
<mgrwt>
<rscale>  0 0.27669360E+04</rscale>
<asrwt>0</asrwt>
<pdfrwt beam="1">  1        2 0.32234746E+00 0.27669360E+04</pdfrwt>
<pdfrwt beam="2">  1       -2 0.14053590E+00 0.27669360E+04</pdfrwt>
<totfact> 0.18342993E+00</totfact>
</mgrwt>
</event>
<event>
 6    1  0.8968082E-007  0.1806119E+04  0.7818608E-02  0.8703052E-01
         -2   -1    0    0    0  501 -0.00000000000E+00  0.00000000000E+00  0.47714645014E+03  0.47714645014E+03  0.00000000000E+00 0.  1.
          2   -1    0    0  501    0  0.00000000000E+00 -0.00000000000E+00 -0.17091527704E+04  0.17091527704E+04  0.00000000000E+00 0. -1.
         23    2    1    2    0    0 -0.13071274127E+03 -0.33925529488E+03 -0.16152223517E+04  0.16580620554E+04  0.89702611153E+02 0.  0.
         11    1    3    3    0    0 -0.38474266003E+02 -0.21691196724E+03 -0.10100471128E+04  0.10337921652E+04  0.00000000000E+00 0.  1.
        -11    1    3    3    0    0 -0.92238475263E+02 -0.12234332764E+03 -0.60517523882E+03  0.62426989021E+03  0.00000000000E+00 0. -1.
         22    1    1    2    0    0  0.13071274127E+03  0.33925529488E+03  0.38321603144E+03  0.52823716510E+03  0.00000000000E+00 0.  1.
<mgrwt>
<rscale>  0 0.18061187E+04</rscale>
<asrwt>0</asrwt>
<pdfrwt beam="1">  1        2 0.26294658E+00 0.18061187E+04</pdfrwt>
<pdfrwt beam="2">  1       -2 0.73407146E-01 0.18061187E+04</pdfrwt>
<totfact> 0.15313822E+01</totfact>
</mgrwt>
</event>
<event>
 6    1  0.8968082E-007  0.3005537E+04  0.7818608E-02  0.8242152E-01
         -2   -1    0    0    0  501 -0.00000000000E+00  0.00000000000E+00  0.10462942685E+04  0.10462942685E+04  0.00000000000E+00 0.  1.
          2   -1    0    0  501    0  0.00000000000E+00 -0.00000000000E+00 -0.21583916325E+04  0.21583916325E+04  0.00000000000E+00 0. -1.
         23    2    1    2    0    0 -0.13122483343E+04  0.64544398185E+03 -0.91904833362E+03  0.17296057158E+04  0.91062989434E+02 0.  0.
         11    1    3    3    0    0 -0.50802923796E+03  0.28359123017E+03 -0.32688921582E+03  0.66736365789E+03  0.00000000000E+00 0.  1.
        -11    1    3    3    0    0 -0.80421909632E+03  0.36185275168E+03 -0.59215911781E+03  0.10622420579E+04  0.00000000000E+00 0. -1.
         22    1    1    2    0    0  0.13122483343E+04 -0.64544398185E+03 -0.19304903041E+03  0.14750801852E+04  0.00000000000E+00 0.  1.
<mgrwt>
<rscale>  0 0.30055368E+04</rscale>
<asrwt>0</asrwt>
<pdfrwt beam="1">  1        2 0.33206025E+00 0.30055368E+04</pdfrwt>
<pdfrwt beam="2">  1       -2 0.16096835E+00 0.30055368E+04</pdfrwt>
<totfact> 0.11553440E+00</totfact>
</mgrwt>
</event>
<event>
 6    1  0.8968082E-007  0.1528267E+04  0.7818608E-02  0.8865871E-01
          1   -1    0    0  501    0  0.00000000000E+00  0.00000000000E+00  0.25980090885E+04  0.25980090885E+04  0.00000000000E+00 0. -1.
         -1   -1    0    0    0  501 -0.00000000000E+00 -0.00000000000E+00 -0.22474890953E+03  0.22474890953E+03  0.00000000000E+00 0.  1.
         23    2    1    2    0    0 -0.47143240668E+03 -0.45766414026E+02  0.89657371068E+02  0.49055199019E+03  0.90883068658E+02 0.  0.
         11    1    3    3    0    0 -0.16470653271E+03 -0.51212335242E+02  0.58791376011E+02  0.18222889752E+03  0.00000000000E+00 0. -1.
        -11    1    3    3    0    0 -0.30672587397E+03  0.54459212152E+01  0.30865995057E+02  0.30832309267E+03  0.00000000000E+00 0.  1.
         22    1    1    2    0    0  0.47143240668E+03  0.45766414026E+02  0.22836028079E+04  0.23322060079E+04  0.00000000000E+00 0. -1.
<mgrwt>
<rscale>  0 0.15282666E+04</rscale>
<asrwt>0</asrwt>
<pdfrwt beam="1">  1        1 0.39969369E+00 0.15282666E+04</pdfrwt>
<pdfrwt beam="2">  1       -1 0.34576757E-01 0.15282666E+04</pdfrwt>
<totfact> 0.88868581E+00</totfact>
</mgrwt>
</event>
<event>
 6    1  0.8968082E-007  0.2657281E+04  0.7818608E-02  0.8349000E-01
          1   -1    0    0  501    0  0.00000000000E+00  0.00000000000E+00  0.10648839718E+04  0.10648839718E+04  0.00000000000E+00 0. -1.
         -1   -1    0    0    0  501 -0.00000000000E+00 -0.00000000000E+00 -0.16577258033E+04  0.16577258033E+04  0.00000000000E+00 0.  1.
         23    2    1    2    0    0 -0.28372042319E+03  0.76180282880E+03  0.77794928526E+03  0.11289005437E+04  0.91490538550E+02 0.  0.
         11    1    3    3    0    0 -0.66599289897E+02  0.26328434896E+03  0.30342624577E+03  0.40721198465E+03  0.00000000000E+00 0. -1.
        -11    1    3    3    0    0 -0.21712113329E+03  0.49851847984E+03  0.47452303948E+03  0.72168855905E+03  0.00000000000E+00 0.  1.
         22    1    1    2    0    0  0.28372042319E+03 -0.76180282880E+03 -0.13707911168E+04  0.15937092314E+04  0.00000000000E+00 0.  1.
<mgrwt>
<rscale>  0 0.26572810E+04</rscale>
<asrwt>0</asrwt>
<pdfrwt beam="1">  1        1 0.16382830E+00 0.26572810E+04</pdfrwt>
<pdfrwt beam="2">  1       -1 0.25503474E+00 0.26572810E+04</pdfrwt>
<totfact> 0.76361334E-01</totfact>
</mgrwt>
</event>
<event>
 6    1  0.8968082E-007  0.2988242E+04  0.7818608E-02  0.8247096E-01
         -1   -1    0    0    0  501 -0.00000000000E+00  0.00000000000E+00  0.65233151240E+03  0.65233151240E+03  0.00000000000E+00 0.  1.
          1   -1    0    0  501    0  0.00000000000E+00 -0.00000000000E+00 -0.34221837092E+04  0.34221837092E+04  0.00000000000E+00 0. -1.
         23    2    1    2    0    0  0.10196215686E+03 -0.10202980387E+03 -0.34120635100E+04  0.34163042122E+04  0.90281291745E+02 0.  0.
         13    1    3    3    0    0  0.84869118821E+02 -0.52753890019E+02 -0.28695329037E+04  0.28712723357E+04  0.00000000000E+00 0. -1.
        -13    1    3    3    0    0  0.17093038038E+02 -0.49275913855E+02 -0.54253060626E+03  0.54503187647E+03  0.00000000000E+00 0.  1.
         22    1    1    2    0    0 -0.10196215686E+03  0.10202980387E+03  0.64221131312E+03  0.65821100949E+03  0.00000000000E+00 0.  1.
<mgrwt>
<rscale>  0 0.29882425E+04</rscale>
<asrwt>0</asrwt>
<pdfrwt beam="1">  1        1 0.52648980E+00 0.29882425E+04</pdfrwt>
<pdfrwt beam="2">  1       -1 0.10035869E+00 0.29882425E+04</pdfrwt>
<totfact> 0.23138619E-01</totfact>
</mgrwt>
</event>
<event>
 6    1  0.8968082E-007  0.1292193E+04  0.7818608E-02  0.9035779E-01
          1   -1    0    0  501    0  0.00000000000E+00  0.00000000000E+00  0.23398164814E+04  0.23398164814E+04  0.00000000000E+00 0. -1.
         -1   -1    0    0    0  501 -0.00000000000E+00 -0.00000000000E+00 -0.17840736370E+03  0.17840736370E+03  0.00000000000E+00 0.  1.
         23    2    1    2    0    0  0.12022589433E+03  0.60826548450E+03  0.75550957445E+03  0.98167098528E+03  0.91880579746E+02 0.  0.
         13    1    3    3    0    0  0.94470527279E+02  0.43825206435E+03  0.60601205473E+03  0.75381706196E+03  0.00000000000E+00 0. -1.
        -13    1    3    3    0    0  0.25755367052E+02  0.17001342016E+03  0.14949751972E+03  0.22785392331E+03  0.00000000000E+00 0.  1.
         22    1    1    2    0    0 -0.12022589433E+03 -0.60826548450E+03  0.14058995432E+04  0.15365528598E+04  0.00000000000E+00 0. -1.
<mgrwt>
<rscale>  0 0.12921927E+04</rscale>
<asrwt>0</asrwt>
<pdfrwt beam="1">  1        1 0.35997174E+00 0.12921927E+04</pdfrwt>
<pdfrwt beam="2">  1       -1 0.27447288E-01 0.12921927E+04</pdfrwt>
<totfact> 0.20550706E+01</totfact>
</mgrwt>
</event>
<event>
 6    1  0.8968082E-007  0.3410054E+04  0.7818608E-02  0.8135443E-01
          2   -1    0    0  501    0  0.00000000000E+00  0.00000000000E+00  0.20894509765E+04  0.20894509765E+04  0.00000000000E+00 0. -1.
         -2   -1    0    0    0  501 -0.00000000000E+00 -0.00000000000E+00 -0.13913302663E+04  0.13913302663E+04  0.00000000000E+00 0.  1.
         23    2    1    2    0    0  0.87689974133E+03 -0.90963937603E+03 -0.81745178446E+03  0.15076221165E+04  0.91104750620E+02 0.  0.
         13    1    3    3    0    0  0.16327968019E+03 -0.19612461435E+03 -0.12840290386E+03  0.28567888272E+03  0.00000000000E+00 0. -1.
        -13    1    3    3    0    0  0.71362006114E+03 -0.71351476168E+03 -0.68904888060E+03  0.12219432338E+04  0.00000000000E+00 0.  1.
         22    1    1    2    0    0 -0.87689974133E+03  0.90963937603E+03  0.15155724947E+04  0.19731591262E+04  0.00000000000E+00 0. -1.
<mgrwt>
<rscale>  0 0.34100536E+04</rscale>
<asrwt>0</asrwt>
<pdfrwt beam="1">  1        2 0.32145400E+00 0.34100536E+04</pdfrwt>
<pdfrwt beam="2">  1       -2 0.21405081E+00 0.34100536E+04</pdfrwt>
<totfact> 0.53175380E-01</totfact>
</mgrwt>
</event>
<event>
 6    1  0.8968082E-007  0.5307072E+04  0.7818608E-02  0.7782809E-01
         -1   -1    0    0    0  501 -0.00000000000E+00  0.00000000000E+00  0.20666895295E+04  0.20666895295E+04  0.00000000000E+00 0.  1.
          1   -1    0    0  501    0  0.00000000000E+00 -0.00000000000E+00 -0.34070197959E+04  0.34070197959E+04  0.00000000000E+00 0. -1.
         23    2    1    2    0    0 -0.69918600773E+02  0.11385156127E+04 -0.31405461061E+04  0.33425398153E+04  0.91848575352E+02 0.  0.
         11    1    3    3    0    0 -0.27361794817E+02  0.97160814233E+03 -0.26508722600E+04  0.28234544071E+04  0.00000000000E+00 0. -1.
        -11    1    3    3    0    0 -0.42556805956E+02  0.16690747039E+03 -0.48967384613E+03  0.51908540819E+03  0.00000000000E+00 0.  1.
         22    1    1    2    0    0  0.69918600773E+02 -0.11385156127E+04  0.18002158397E+04  0.21311695101E+04  0.00000000000E+00 0.  1.
<mgrwt>
<rscale>  0 0.53070716E+04</rscale>
<asrwt>0</asrwt>
<pdfrwt beam="1">  1        1 0.52415689E+00 0.53070716E+04</pdfrwt>
<pdfrwt beam="2">  1       -1 0.31795224E+00 0.53070716E+04</pdfrwt>
<totfact> 0.52512868E-03</totfact>
</mgrwt>
</event>
<event>
 6    1  0.8968082E-007  0.3639887E+04  0.7818608E-02  0.8081416E-01
         -1   -1    0    0    0  501 -0.00000000000E+00  0.00000000000E+00  0.25802862343E+04  0.25802862343E+04  0.00000000000E+00 0.  1.
          1   -1    0    0  501    0  0.00000000000E+00 -0.00000000000E+00 -0.12836541888E+04  0.12836541888E+04  0.00000000000E+00 0. -1.
         23    2    1    2    0    0 -0.46514272137E+02 -0.82260507792E+03  0.23700004698E+04  0.25108098064E+04  0.91765818041E+02 0.  0.
         11    1    3    3    0    0  0.19691412685E+02 -0.37943432199E+03  0.11485275767E+04  0.12097411917E+04  0.00000000000E+00 0. -1.
        -11    1    3    3    0    0 -0.66205684822E+02 -0.44317075593E+03  0.12214728931E+04  0.13010686147E+04  0.00000000000E+00 0.  1.
         22    1    1    2    0    0  0.46514272137E+02  0.82260507792E+03 -0.10733684242E+04  0.13531306167E+04  0.00000000000E+00 0. -1.
<mgrwt>
<rscale>  0 0.36398875E+04</rscale>
<asrwt>0</asrwt>
<pdfrwt beam="1">  1        1 0.19748526E+00 0.36398875E+04</pdfrwt>
<pdfrwt beam="2">  1       -1 0.39696711E+00 0.36398875E+04</pdfrwt>
<totfact> 0.56180535E-02</totfact>
</mgrwt>
</event>
<event>
 6    1  0.8968082E-007  0.4755431E+04  0.7818608E-02  0.7867383E-01
         -1   -1    0    0    0  501 -0.00000000000E+00  0.00000000000E+00  0.22036729910E+04  0.22036729910E+04  0.00000000000E+00 0.  1.
          1   -1    0    0  501    0  0.00000000000E+00 -0.00000000000E+00 -0.25655034307E+04  0.25655034307E+04  0.00000000000E+00 0. -1.
         23    2    1    2    0    0 -0.13603442964E+04 -0.33747085791E+03 -0.21052911938E+04  0.25321966305E+04  0.12387727853E+03 0.  0.
         11    1    3    3    0    0 -0.52712963598E+03 -0.12410167311E+03 -0.70729034840E+03  0.89080105262E+03  0.00000000000E+00 0.  1.
        -11    1    3    3    0    0 -0.83321466039E+03 -0.21336918480E+03 -0.13980008454E+04  0.16413955779E+04  0.00000000000E+00 0. -1.
         22    1    1    2    0    0  0.13603442964E+04  0.33747085791E+03  0.17434607542E+04  0.22369797911E+04  0.00000000000E+00 0.  1.
<mgrwt>
<rscale>  0 0.47554308E+04</rscale>
<asrwt>0</asrwt>
<pdfrwt beam="1">  1        1 0.39469283E+00 0.47554308E+04</pdfrwt>
<pdfrwt beam="2">  1       -1 0.33902661E+00 0.47554308E+04</pdfrwt>
<totfact> 0.16488043E-02</totfact>
</mgrwt>
</event>
<event>
 6    1  0.8968082E-007  0.2599805E+04  0.7818608E-02  0.8368267E-01
          2   -1    0    0  501    0  0.00000000000E+00  0.00000000000E+00  0.14963033255E+04  0.14963033255E+04  0.00000000000E+00 0. -1.
         -2   -1    0    0    0  501 -0.00000000000E+00 -0.00000000000E+00 -0.11292806887E+04  0.11292806887E+04  0.00000000000E+00 0.  1.
         23    2    1    2    0    0 -0.11001262885E+04 -0.10452637511E+03  0.87256405370E+03  0.14103573942E+04  0.80847621766E+02 0.  0.
         13    1    3    3    0    0 -0.41626546720E+03 -0.26612221227E+02  0.28264749665E+03  0.50385985836E+03  0.00000000000E+00 0.  1.
        -13    1    3    3    0    0 -0.68386082129E+03 -0.77914153885E+02  0.58991655705E+03  0.90649753587E+03  0.00000000000E+00 0. -1.
         22    1    1    2    0    0  0.11001262885E+04  0.10452637511E+03 -0.50554141682E+03  0.12152266200E+04  0.00000000000E+00 0. -1.
<mgrwt>
<rscale>  0 0.25998050E+04</rscale>
<asrwt>0</asrwt>
<pdfrwt beam="1">  1        2 0.23020051E+00 0.25998050E+04</pdfrwt>
<pdfrwt beam="2">  1       -2 0.17373549E+00 0.25998050E+04</pdfrwt>
<totfact> 0.22630783E+00</totfact>
</mgrwt>
</event>
<event>
 6    1  0.8968082E-007  0.1222797E+04  0.7818608E-02  0.9093133E-01
         -2   -1    0    0    0  501 -0.00000000000E+00  0.00000000000E+00  0.13595175176E+04  0.13595175176E+04  0.00000000000E+00 0.  1.
          2   -1    0    0  501    0  0.00000000000E+00 -0.00000000000E+00 -0.27495662262E+03  0.27495662262E+03  0.00000000000E+00 0. -1.
         23    2    1    2    0    0 -0.46138904903E+03  0.35871401496E+03  0.32825333271E+03  0.67867252489E+03  0.10625698335E+03 0.  0.
         11    1    3    3    0    0 -0.16923537940E+03  0.90899855272E+02  0.64672532306E+02  0.20269665455E+03  0.00000000000E+00 0.  1.
        -11    1    3    3    0    0 -0.29215366963E+03  0.26781415968E+03  0.26358080040E+03  0.47597587034E+03  0.00000000000E+00 0. -1.
         22    1    1    2    0    0  0.46138904903E+03 -0.35871401496E+03  0.75630756225E+03  0.95580161530E+03  0.00000000000E+00 0.  1.
<mgrwt>
<rscale>  0 0.12227974E+04</rscale>
<asrwt>0</asrwt>
<pdfrwt beam="1">  1        2 0.42301020E-01 0.12227974E+04</pdfrwt>
<pdfrwt beam="2">  1       -2 0.20915654E+00 0.12227974E+04</pdfrwt>
<totfact> 0.13820943E+01</totfact>
</mgrwt>
</event>
<event>
 6    1  0.8968082E-007  0.1905733E+04  0.7818608E-02  0.8652008E-01
          2   -1    0    0  501    0  0.00000000000E+00  0.00000000000E+00  0.24318217186E+04  0.24318217186E+04  0.00000000000E+00 0. -1.
         -2   -1    0    0    0  501 -0.00000000000E+00 -0.00000000000E+00 -0.37336394173E+03  0.37336394173E+03  0.00000000000E+00 0.  1.
         23    2    1    2    0    0 -0.14410485169E+03 -0.30303396103E+03  0.23408930834E+04  0.23665907536E+04  0.91518181552E+02 0.  0.
         13    1    3    3    0    0 -0.14227811205E+03 -0.24767360564E+03  0.17557699019E+04  0.17788516590E+04  0.00000000000E+00 0. -1.
        -13    1    3    3    0    0 -0.18267396490E+01 -0.55360355382E+02  0.58512318145E+03  0.58773909467E+03  0.00000000000E+00 0.  1.
         22    1    1    2    0    0  0.14410485169E+03  0.30303396103E+03 -0.28243530651E+03  0.43859490670E+03  0.00000000000E+00 0.  1.
<mgrwt>
<rscale>  0 0.19057330E+04</rscale>
<asrwt>0</asrwt>
<pdfrwt beam="1">  1        2 0.37412641E+00 0.19057330E+04</pdfrwt>
<pdfrwt beam="2">  1       -2 0.57440608E-01 0.19057330E+04</pdfrwt>
<totfact> 0.10137066E+01</totfact>
</mgrwt>
</event>
<event>
 6    1  0.8968082E-007  0.2802941E+04  0.7818608E-02  0.8302356E-01
          2   -1    0    0  501    0  0.00000000000E+00  0.00000000000E+00  0.12583678758E+04  0.12583678758E+04  0.00000000000E+00 0. -1.
         -2   -1    0    0    0  501 -0.00000000000E+00 -0.00000000000E+00 -0.15608472464E+04  0.15608472464E+04  0.00000000000E+00 0.  1.
         23    2    1    2    0    0 -0.43444863249E+03  0.10027943541E+04  0.72842011345E+03  0.13168516917E+04  0.95709902401E+02 0.  0.
         11    1    3    3    0    0 -0.26322809533E+03  0.66288826785E+03  0.42637091501E+03  0.83096452571E+03  0.00000000000E+00 0.  1.
        -11    1    3    3    0    0 -0.17122053715E+03  0.33990608628E+03  0.30204919844E+03  0.48588716603E+03  0.00000000000E+00 0. -1.
         22    1    1    2    0    0  0.43444863249E+03 -0.10027943541E+04 -0.10308994841E+04  0.15023634305E+04  0.00000000000E+00 0.  1.
<mgrwt>
<rscale>  0 0.28029413E+04</rscale>
<asrwt>0</asrwt>
<pdfrwt beam="1">  1        2 0.19359506E+00 0.28029413E+04</pdfrwt>
<pdfrwt beam="2">  1       -2 0.24013034E+00 0.28029413E+04</pdfrwt>
<totfact> 0.11248439E+00</totfact>
</mgrwt>
</event>
<event>
 6    1  0.8968082E-007  0.2957117E+04  0.7818608E-02  0.8256083E-01
          2   -1    0    0  501    0  0.00000000000E+00  0.00000000000E+00  0.99037396961E+03  0.99037396961E+03  0.00000000000E+00 0. -1.
         -2   -1    0    0    0  501 -0.00000000000E+00 -0.00000000000E+00 -0.22073841599E+04  0.22073841599E+04  0.00000000000E+00 0.  1.
         23    2    1    2    0    0  0.12552041162E+04 -0.60217288190E+03 -0.75131475107E+02  0.13971925092E+04  0.91392647947E+02 0.  0.
         11    1    3    3    0    0  0.83011339998E+03 -0.41586618184E+03 -0.90154828945E+02  0.93282411590E+03  0.00000000000E+00 0.  1.
        -11    1    3    3    0    0  0.42509071621E+03 -0.18630670006E+03  0.15023353838E+02  0.46436839325E+03  0.00000000000E+00 0. -1.
         22    1    1    2    0    0 -0.12552041162E+04  0.60217288190E+03 -0.11418787152E+04  0.18005656203E+04  0.00000000000E+00 0.  1.
<mgrwt>
<rscale>  0 0.29571174E+04</rscale>
<asrwt>0</asrwt>
<pdfrwt beam="1">  1        2 0.15236523E+00 0.29571174E+04</pdfrwt>
<pdfrwt beam="2">  1       -2 0.33959756E+00 0.29571174E+04</pdfrwt>
<totfact> 0.39689665E-01</totfact>
</mgrwt>
</event>
<event>
 6    1  0.1419895E-006  0.3195956E+04  0.7818608E-02  0.8189886E-01
          2   -1    0    0  501    0  0.00000000000E+00  0.00000000000E+00  0.23771482586E+04  0.23771482586E+04  0.00000000000E+00 0. -1.
         -2   -1    0    0    0  501 -0.00000000000E+00 -0.00000000000E+00 -0.10742002851E+04  0.10742002851E+04  0.00000000000E+00 0.  1.
         23    2    1    2    0    0 -0.64381692385E+03 -0.47483222442E+03 -0.84036020824E+03  0.11636125810E+04  0.88448212842E+02 0.  0.
         13    1    3    3    0    0 -0.36151115170E+03 -0.29188405230E+03 -0.43095062240E+03  0.63372316648E+03  0.00000000000E+00 0.  1.
        -13    1    3    3    0    0 -0.28230577215E+03 -0.18294817213E+03 -0.40940958585E+03  0.52988941455E+03  0.00000000000E+00 0. -1.
         22    1    1    2    0    0  0.64381692385E+03  0.47483222442E+03  0.21433081817E+04  0.22877359626E+04  0.00000000000E+00 0. -1.
<mgrwt>
<rscale>  0 0.31959558E+04</rscale>
<asrwt>0</asrwt>
<pdfrwt beam="1">  1        2 0.36571512E+00 0.31959558E+04</pdfrwt>
<pdfrwt beam="2">  1       -2 0.16526158E+00 0.31959558E+04</pdfrwt>
<totfact> 0.79544877E-01</totfact>
</mgrwt>
</event>
<event>
 6    1  0.8968082E-007  0.2448539E+04  0.7818608E-02  0.8421552E-01
          2   -1    0    0  501    0  0.00000000000E+00  0.00000000000E+00  0.33422581835E+04  0.33422581835E+04  0.00000000000E+00 0. -1.
         -2   -1    0    0    0  501 -0.00000000000E+00 -0.00000000000E+00 -0.44844991746E+03  0.44844991746E+03  0.00000000000E+00 0.  1.
         23    2    1    2    0    0  0.25043911387E+03  0.93402645252E+03  0.26069471608E+04  0.27820384536E+04  0.91865631020E+02 0.  0.
         11    1    3    3    0    0  0.10289175887E+03  0.54093932848E+03  0.14205312680E+04  0.15235193319E+04  0.00000000000E+00 0.  1.
        -11    1    3    3    0    0  0.14754735499E+03  0.39308712404E+03  0.11864158928E+04  0.12585191218E+04  0.00000000000E+00 0. -1.
         22    1    1    2    0    0 -0.25043911387E+03 -0.93402645252E+03  0.28686110515E+03  0.10086696473E+04  0.00000000000E+00 0. -1.
<mgrwt>
<rscale>  0 0.24485387E+04</rscale>
<asrwt>0</asrwt>
<pdfrwt beam="1">  1        2 0.51419355E+00 0.24485387E+04</pdfrwt>
<pdfrwt beam="2">  1       -2 0.68992297E-01 0.24485387E+04</pdfrwt>
<totfact> 0.17951830E+00</totfact>
</mgrwt>
</event>
<event>
 6    1  0.8968082E-007  0.2684491E+04  0.7818608E-02  0.8340055E-01
          3   -1    0    0  501    0  0.00000000000E+00  0.00000000000E+00  0.10629658653E+04  0.10629658653E+04  0.00000000000E+00 0. -1.
         -3   -1    0    0    0  501 -0.00000000000E+00 -0.00000000000E+00 -0.16949024443E+04  0.16949024443E+04  0.00000000000E+00 0.  1.
         23    2    1    2    0    0 -0.70184029749E+03  0.10529363186E+04  0.13876005623E+03  0.12762381272E+04  0.90965432297E+02 0.  0.
         13    1    3    3    0    0 -0.30888215880E+03  0.53493742469E+03  0.45267824290E+02  0.61936694477E+03  0.00000000000E+00 0.  1.
        -13    1    3    3    0    0 -0.39295813869E+03  0.51799889389E+03  0.93492231941E+02  0.65687118239E+03  0.00000000000E+00 0. -1.
         22    1    1    2    0    0  0.70184029749E+03 -0.10529363186E+04 -0.77069663519E+03  0.14816301825E+04  0.00000000000E+00 0. -1.
<mgrwt>
<rscale>  0 0.26844913E+04</rscale>
<asrwt>0</asrwt>
<pdfrwt beam="1">  1        3 0.16353321E+00 0.26844913E+04</pdfrwt>
<pdfrwt beam="2">  1       -3 0.26075422E+00 0.26844913E+04</pdfrwt>
<totfact> 0.37321027E-02</totfact>
</mgrwt>
</event>
<event>
 6    1  0.8968082E-007  0.2303395E+04  0.7818608E-02  0.8476584E-01
          2   -1    0    0  501    0  0.00000000000E+00  0.00000000000E+00  0.12179522757E+04  0.12179522757E+04  0.00000000000E+00 0. -1.
         -2   -1    0    0    0  501 -0.00000000000E+00 -0.00000000000E+00 -0.10890468147E+04  0.10890468147E+04  0.00000000000E+00 0.  1.
         23    2    1    2    0    0  0.18190562258E+03 -0.59171815455E+03 -0.90599039793E+03  0.11010847200E+04  0.91372477194E+02 0.  0.
         13    1    3    3    0    0  0.15957701580E+03 -0.37197447621E+03 -0.59641467690E+03  0.72079144122E+03  0.00000000000E+00 0.  1.
        -13    1    3    3    0    0  0.22328606785E+02 -0.21974367835E+03 -0.30957572103E+03  0.38029327881E+03  0.00000000000E+00 0. -1.
         22    1    1    2    0    0 -0.18190562258E+03  0.59171815455E+03  0.10348958589E+04  0.12059143704E+04  0.00000000000E+00 0. -1.
<mgrwt>
<rscale>  0 0.23033949E+04</rscale>
<asrwt>0</asrwt>
<pdfrwt beam="1">  1        2 0.18737727E+00 0.23033949E+04</pdfrwt>
<pdfrwt beam="2">  1       -2 0.16754566E+00 0.23033949E+04</pdfrwt>
<totfact> 0.37171293E+00</totfact>
</mgrwt>
</event>
<event>
 6    1  0.8968082E-007  0.2701842E+04  0.7818608E-02  0.8334407E-01
         -1   -1    0    0    0  501 -0.00000000000E+00  0.00000000000E+00  0.10043132103E+04  0.10043132103E+04  0.00000000000E+00 0.  1.
          1   -1    0    0  501    0  0.00000000000E+00 -0.00000000000E+00 -0.18171502131E+04  0.18171502131E+04  0.00000000000E+00 0. -1.
         23    2    1    2    0    0  0.79013200118E+03 -0.33703160635E+03 -0.14936244914E+04  0.17253929477E+04  0.90375992166E+02 0.  0.
         11    1    3    3    0    0  0.52359909500E+02 -0.49071423602E+02 -0.12146567248E+03  0.14107967369E+03  0.00000000000E+00 0.  1.
        -11    1    3    3    0    0  0.73777209168E+03 -0.28796018275E+03 -0.13721588189E+04  0.15843132741E+04  0.00000000000E+00 0. -1.
         22    1    1    2    0    0 -0.79013200118E+03  0.33703160635E+03  0.68078748862E+03  0.10960704757E+04  0.00000000000E+00 0.  1.
<mgrwt>
<rscale>  0 0.27018423E+04</rscale>
<asrwt>0</asrwt>
<pdfrwt beam="1">  1        1 0.27956157E+00 0.27018423E+04</pdfrwt>
<pdfrwt beam="2">  1       -1 0.15450973E+00 0.27018423E+04</pdfrwt>
<totfact> 0.11145658E+00</totfact>
</mgrwt>
</event>
<event>
 6    1  0.8998068E-007  0.3229637E+04  0.7818608E-02  0.8181034E-01
         -2   -1    0    0    0  501 -0.00000000000E+00  0.00000000000E+00  0.14546403551E+04  0.14546403551E+04  0.00000000000E+00 0.  1.
          2   -1    0    0  501    0  0.00000000000E+00 -0.00000000000E+00 -0.17926343639E+04  0.17926343639E+04  0.00000000000E+00 0. -1.
         23    2    1    2    0    0 -0.11183576468E+04 -0.11264413151E+04 -0.46049414262E+03  0.16552319603E+04  0.90244803629E+02 0.  0.
         13    1    3    3    0    0 -0.58289175120E+03 -0.52349316007E+03 -0.22152154741E+03  0.81417423088E+03  0.00000000000E+00 0.  1.
        -13    1    3    3    0    0 -0.53546589559E+03 -0.60294815507E+03 -0.23897259521E+03  0.84105772947E+03  0.00000000000E+00 0. -1.
         22    1    1    2    0    0  0.11183576468E+04  0.11264413151E+04  0.12250013391E+03  0.15920427587E+04  0.00000000000E+00 0.  1.
<mgrwt>
<rscale>  0 0.32296367E+04</rscale>
<asrwt>0</asrwt>
<pdfrwt beam="1">  1        2 0.27578990E+00 0.32296367E+04</pdfrwt>
<pdfrwt beam="2">  1       -2 0.22379082E+00 0.32296367E+04</pdfrwt>
<totfact> 0.68439639E-01</totfact>
</mgrwt>
</event>
<event>
 6    1  0.8968082E-007  0.3536006E+04  0.7818608E-02  0.8105310E-01
          1   -1    0    0  501    0  0.00000000000E+00  0.00000000000E+00  0.19886075296E+04  0.19886075296E+04  0.00000000000E+00 0. -1.
         -1   -1    0    0    0  501 -0.00000000000E+00 -0.00000000000E+00 -0.15718710626E+04  0.15718710626E+04  0.00000000000E+00 0.  1.
         23    2    1    2    0    0 -0.11331123809E+03  0.11100562081E+04  0.15882474448E+04  0.19426089457E+04  0.78328464617E+02 0.  0.
         13    1    3    3    0    0 -0.97546092471E+02  0.64403807801E+03  0.88696101678E+03  0.11004545113E+04  0.00000000000E+00 0. -1.
        -13    1    3    3    0    0 -0.15765145623E+02  0.46601813007E+03  0.70128642803E+03  0.84215443448E+03  0.00000000000E+00 0.  1.
         22    1    1    2    0    0  0.11331123809E+03 -0.11100562081E+04 -0.11715109778E+04  0.16178696465E+04  0.00000000000E+00 0.  1.
<mgrwt>
<rscale>  0 0.35360060E+04</rscale>
<asrwt>0</asrwt>
<pdfrwt beam="1">  1        1 0.30593962E+00 0.35360060E+04</pdfrwt>
<pdfrwt beam="2">  1       -1 0.24182632E+00 0.35360060E+04</pdfrwt>
<totfact> 0.19460895E-01</totfact>
</mgrwt>
</event>
<event>
 6    1  0.8968082E-007  0.5345715E+04  0.7818608E-02  0.7777283E-01
          1   -1    0    0  501    0  0.00000000000E+00  0.00000000000E+00  0.33211806546E+04  0.33211806546E+04  0.00000000000E+00 0. -1.
         -1   -1    0    0    0  501 -0.00000000000E+00 -0.00000000000E+00 -0.21510926046E+04  0.21510926046E+04  0.00000000000E+00 0.  1.
         23    2    1    2    0    0  0.22777156342E+04  0.48444133473E+02  0.20145346700E+04  0.30425766858E+04  0.92669345334E+02 0.  0.
         11    1    3    3    0    0  0.16140037821E+04 -0.48385485542E+01  0.14053324642E+04  0.21400913427E+04  0.00000000000E+00 0.  1.
        -11    1    3    3    0    0  0.66371185213E+03  0.53282682028E+02  0.60920220585E+03  0.90248534308E+03  0.00000000000E+00 0. -1.
         22    1    1    2    0    0 -0.22777156342E+04 -0.48444133473E+02 -0.84444662014E+03  0.24296965734E+04  0.00000000000E+00 0.  1.
<mgrwt>
<rscale>  0 0.53457150E+04</rscale>
<asrwt>0</asrwt>
<pdfrwt beam="1">  1        1 0.51095087E+00 0.53457150E+04</pdfrwt>
<pdfrwt beam="2">  1       -1 0.33093733E+00 0.53457150E+04</pdfrwt>
<totfact> 0.50145091E-03</totfact>
</mgrwt>
</event>
<event>
 6    1  0.8968082E-007  0.2535492E+04  0.7818608E-02  0.8390449E-01
          1   -1    0    0  501    0  0.00000000000E+00  0.00000000000E+00  0.93789442420E+03  0.93789442420E+03  0.00000000000E+00 0. -1.
         -1   -1    0    0    0  501 -0.00000000000E+00 -0.00000000000E+00 -0.17136041731E+04  0.17136041731E+04  0.00000000000E+00 0.  1.
         23    2    1    2    0    0 -0.67800846224E+02  0.98753282450E+03  0.43711860723E+03  0.10860048555E+04  0.92281282837E+02 0.  0.
         11    1    3    3    0    0 -0.36283659086E+02  0.38229504991E+03  0.21784095139E+03  0.44149823239E+03  0.00000000000E+00 0.  1.
        -11    1    3    3    0    0 -0.31517187139E+02  0.60523777459E+03  0.21927765584E+03  0.64450662311E+03  0.00000000000E+00 0. -1.
         22    1    1    2    0    0  0.67800846224E+02 -0.98753282450E+03 -0.12128283561E+04  0.15654937418E+04  0.00000000000E+00 0.  1.
<mgrwt>
<rscale>  0 0.25354919E+04</rscale>
<asrwt>0</asrwt>
<pdfrwt beam="1">  1        1 0.14429145E+00 0.25354919E+04</pdfrwt>
<pdfrwt beam="2">  1       -1 0.26363141E+00 0.25354919E+04</pdfrwt>
<totfact> 0.85309697E-01</totfact>
</mgrwt>
</event>
<event>
 6    1  0.8968082E-007  0.1060143E+04  0.7818608E-02  0.9244935E-01
          2   -1    0    0  501    0  0.00000000000E+00  0.00000000000E+00  0.51710212862E+03  0.51710212862E+03  0.00000000000E+00 0. -1.
         -2   -1    0    0    0  501 -0.00000000000E+00 -0.00000000000E+00 -0.54336574136E+03  0.54336574136E+03  0.00000000000E+00 0.  1.
         23    2    1    2    0    0 -0.97385043425E+02 -0.51164820610E+03  0.61729575830E+02  0.53225339203E+03  0.90638839945E+02 0.  0.
         13    1    3    3    0    0 -0.42107217992E+01 -0.10955429008E+03  0.46881887052E+02  0.11923834948E+03  0.00000000000E+00 0.  1.
        -13    1    3    3    0    0 -0.93174321626E+02 -0.40209391602E+03  0.14847688778E+02  0.41301504255E+03  0.00000000000E+00 0. -1.
         22    1    1    2    0    0  0.97385043425E+02  0.51164820610E+03 -0.87993188576E+02  0.52821447796E+03  0.00000000000E+00 0. -1.
<mgrwt>
<rscale>  0 0.10601426E+04</rscale>
<asrwt>0</asrwt>
<pdfrwt beam="1">  1        2 0.79554173E-01 0.10601426E+04</pdfrwt>
<pdfrwt beam="2">  1       -2 0.83594730E-01 0.10601426E+04</pdfrwt>
<totfact> 0.73783002E+01</totfact>
</mgrwt>
</event>
<event>
 6    1  0.8968082E-007  0.2951250E+04  0.7818608E-02  0.8257790E-01
          2   -1    0    0  501    0  0.00000000000E+00  0.00000000000E+00  0.14854474215E+04  0.14854474215E+04  0.00000000000E+00 0. -1.
         -2   -1    0    0    0  501 -0.00000000000E+00 -0.00000000000E+00 -0.14658674417E+04  0.14658674417E+04  0.00000000000E+00 0.  1.
         23    2    1    2    0    0 -0.70400962715E+03 -0.71512444307E+03  0.10895491207E+04  0.14843907048E+04  0.96259825177E+02 0.  0.
         13    1    3    3    0    0 -0.62486818361E+03 -0.59172205861E+03  0.95283972170E+03  0.12839387746E+04  0.00000000000E+00 0.  1.
        -13    1    3    3    0    0 -0.79141443541E+02 -0.12340238445E+03  0.13670939899E+03  0.20045193026E+03  0.00000000000E+00 0. -1.
         22    1    1    2    0    0  0.70400962715E+03  0.71512444307E+03 -0.10699691409E+04  0.14669241585E+04  0.00000000000E+00 0.  1.
<mgrwt>
<rscale>  0 0.29512499E+04</rscale>
<asrwt>0</asrwt>
<pdfrwt beam="1">  1        2 0.22853037E+00 0.29512499E+04</pdfrwt>
<pdfrwt beam="2">  1       -2 0.22551807E+00 0.29512499E+04</pdfrwt>
<totfact> 0.10142513E+00</totfact>
</mgrwt>
</event>
<event>
 6    1  0.8968082E-007  0.3280490E+04  0.7818608E-02  0.8167877E-01
          2   -1    0    0  501    0  0.00000000000E+00  0.00000000000E+00  0.22387370827E+04  0.22387370827E+04  0.00000000000E+00 0. -1.
         -2   -1    0    0    0  501 -0.00000000000E+00 -0.00000000000E+00 -0.12017509192E+04  0.12017509192E+04  0.00000000000E+00 0.  1.
         23    2    1    2    0    0  0.11950610105E+04 -0.11022441987E+04  0.30102816635E+03  0.16559019809E+04  0.90996269731E+02 0.  0.
         13    1    3    3    0    0  0.62117036602E+03 -0.59314571552E+03  0.20263348455E+03  0.88245951325E+03  0.00000000000E+00 0. -1.
        -13    1    3    3    0    0  0.57389064448E+03 -0.50909848321E+03  0.98394681805E+02  0.77344246770E+03  0.00000000000E+00 0.  1.
         22    1    1    2    0    0 -0.11950610105E+04  0.11022441987E+04  0.73595799715E+03  0.17845860209E+04  0.00000000000E+00 0.  1.
<mgrwt>
<rscale>  0 0.32804904E+04</rscale>
<asrwt>0</asrwt>
<pdfrwt beam="1">  1        2 0.34442109E+00 0.32804904E+04</pdfrwt>
<pdfrwt beam="2">  1       -2 0.18488476E+00 0.32804904E+04</pdfrwt>
<totfact> 0.68951807E-01</totfact>
</mgrwt>
</event>
<event>
 6    1  0.8968082E-007  0.3176392E+04  0.7818608E-02  0.8195080E-01
          1   -1    0    0  501    0  0.00000000000E+00  0.00000000000E+00  0.26758856694E+04  0.26758856694E+04  0.00000000000E+00 0. -1.
         -1   -1    0    0    0  501 -0.00000000000E+00 -0.00000000000E+00 -0.94262869888E+03  0.94262869888E+03  0.00000000000E+00 0.  1.
         23    2    1    2    0    0  0.41082682156E+03  0.14309795213E+04  0.14930220970E+04  0.21104713112E+04  0.92158046127E+02 0.  0.
         11    1    3    3    0    0  0.33320793756E+03  0.10124782906E+04  0.10560027459E+04  0.15004271452E+04  0.00000000000E+00 0. -1.
        -11    1    3    3    0    0  0.77618883999E+02  0.41850123069E+03  0.43701935105E+03  0.61004416597E+03  0.00000000000E+00 0.  1.
         22    1    1    2    0    0 -0.41082682156E+03 -0.14309795213E+04  0.24023487356E+03  0.15080430571E+04  0.00000000000E+00 0.  1.
<mgrwt>
<rscale>  0 0.31763921E+04</rscale>
<asrwt>0</asrwt>
<pdfrwt beam="1">  1        1 0.41167472E+00 0.31763921E+04</pdfrwt>
<pdfrwt beam="2">  1       -1 0.14501980E+00 0.31763921E+04</pdfrwt>
<totfact> 0.32662456E-01</totfact>
</mgrwt>
</event>
<event>
 6    1  0.8968082E-007  0.3564817E+04  0.7818608E-02  0.8098599E-01
         -2   -1    0    0    0  501 -0.00000000000E+00  0.00000000000E+00  0.17239068543E+04  0.17239068543E+04  0.00000000000E+00 0.  1.
          2   -1    0    0  501    0  0.00000000000E+00 -0.00000000000E+00 -0.18428957367E+04  0.18428957367E+04  0.00000000000E+00 0. -1.
         23    2    1    2    0    0 -0.14409903753E+03  0.77061665808E+03  0.15407668896E+04  0.17312090114E+04  0.92235929430E+02 0.  0.
         13    1    3    3    0    0 -0.13004193850E+01  0.23448225196E+03  0.44730200779E+03  0.50503732906E+03  0.00000000000E+00 0. -1.
        -13    1    3    3    0    0 -0.14279861814E+03  0.53613440612E+03  0.10934648819E+04  0.12261716824E+04  0.00000000000E+00 0.  1.
         22    1    1    2    0    0  0.14409903753E+03 -0.77061665808E+03 -0.16597557721E+04  0.18355935796E+04  0.00000000000E+00 0. -1.
<mgrwt>
<rscale>  0 0.35648173E+04</rscale>
<asrwt>0</asrwt>
<pdfrwt beam="1">  1        2 0.28352242E+00 0.35648173E+04</pdfrwt>
<pdfrwt beam="2">  1       -2 0.26521644E+00 0.35648173E+04</pdfrwt>
<totfact> 0.34614700E-01</totfact>
</mgrwt>
</event>
<event>
 6    1  0.8968082E-007  0.1795348E+04  0.7818608E-02  0.8708777E-01
         -2   -1    0    0    0  501 -0.00000000000E+00  0.00000000000E+00  0.59454693333E+03  0.59454693333E+03  0.00000000000E+00 0.  1.
          2   -1    0    0  501    0  0.00000000000E+00 -0.00000000000E+00 -0.13553486661E+04  0.13553486661E+04  0.00000000000E+00 0. -1.
         23    2    1    2    0    0 -0.13957658416E+03  0.13129593863E+03 -0.13313213565E+04  0.13480543518E+04  0.90076272289E+02 0.  0.
         11    1    3    3    0    0 -0.28762739450E+02  0.47977749248E+02 -0.67142084512E+03  0.67374706743E+03  0.00000000000E+00 0.  1.
        -11    1    3    3    0    0 -0.11081384471E+03  0.83318189383E+02 -0.65990051136E+03  0.67430728437E+03  0.00000000000E+00 0. -1.
         22    1    1    2    0    0  0.13957658416E+03 -0.13129593863E+03  0.57051962370E+03  0.60184124765E+03  0.00000000000E+00 0.  1.
<mgrwt>
<rscale>  0 0.17953478E+04</rscale>
<asrwt>0</asrwt>
<pdfrwt beam="1">  1        2 0.20851518E+00 0.17953478E+04</pdfrwt>
<pdfrwt beam="2">  1       -2 0.91468760E-01 0.17953478E+04</pdfrwt>
<totfact> 0.14760922E+01</totfact>
</mgrwt>
</event>
<event>
 6    1  0.8968082E-007  0.1198005E+04  0.7818608E-02  0.9114604E-01
         -1   -1    0    0    0  501 -0.00000000000E+00  0.00000000000E+00  0.11919880290E+04  0.11919880290E+04  0.00000000000E+00 0.  1.
          1   -1    0    0  501    0  0.00000000000E+00 -0.00000000000E+00 -0.30101320425E+03  0.30101320425E+03  0.00000000000E+00 0. -1.
         23    2    1    2    0    0 -0.41112079945E+03 -0.10168226344E+03 -0.78542793254E+02  0.43502013414E+03  0.60942204517E+02 0.  0.
         13    1    3    3    0    0 -0.26260581020E+03 -0.53273259051E+02 -0.21847787820E+02  0.26884415098E+03  0.00000000000E+00 0.  1.
        -13    1    3    3    0    0 -0.14851498925E+03 -0.48409004386E+02 -0.56695005434E+02  0.16617598316E+03  0.00000000000E+00 0. -1.
         22    1    1    2    0    0  0.41112079945E+03  0.10168226344E+03  0.96951761797E+03  0.10579810991E+04  0.00000000000E+00 0.  1.
<mgrwt>
<rscale>  0 0.11980052E+04</rscale>
<asrwt>0</asrwt>
<pdfrwt beam="1">  1        1 0.46309725E-01 0.11980052E+04</pdfrwt>
<pdfrwt beam="2">  1       -1 0.18338277E+00 0.11980052E+04</pdfrwt>
<totfact> 0.17007302E+01</totfact>
</mgrwt>
</event>
<event>
 6    1  0.8968082E-007  0.1889649E+04  0.7818608E-02  0.8660026E-01
         -1   -1    0    0    0  501 -0.00000000000E+00  0.00000000000E+00  0.63752637015E+03  0.63752637015E+03  0.00000000000E+00 0.  1.
          1   -1    0    0  501    0  0.00000000000E+00 -0.00000000000E+00 -0.14002448631E+04  0.14002448631E+04  0.00000000000E+00 0. -1.
         23    2    1    2    0    0 -0.23184759209E+03 -0.33325351922E+03  0.53505685190E+03  0.67798005084E+03  0.92519730531E+02 0.  0.
         11    1    3    3    0    0 -0.27116265757E+02 -0.10055633568E+03  0.16689717190E+03  0.19672705585E+03  0.00000000000E+00 0. -1.
        -11    1    3    3    0    0 -0.20473132633E+03 -0.23269718353E+03  0.36815968000E+03  0.48125299499E+03  0.00000000000E+00 0.  1.
         22    1    1    2    0    0  0.23184759209E+03  0.33325351922E+03 -0.12977753448E+04  0.13597911824E+04  0.00000000000E+00 0. -1.
<mgrwt>
<rscale>  0 0.18896487E+04</rscale>
<asrwt>0</asrwt>
<pdfrwt beam="1">  1        1 0.21542228E+00 0.18896487E+04</pdfrwt>
<pdfrwt beam="2">  1       -1 0.98080981E-01 0.18896487E+04</pdfrwt>
<totfact> 0.71644016E+00</totfact>
</mgrwt>
</event>
<event>
 6    1  0.8968082E-007  0.2035553E+04  0.7818608E-02  0.8590177E-01
         -1   -1    0    0    0  501 -0.00000000000E+00  0.00000000000E+00  0.87060759565E+03  0.87060759565E+03  0.00000000000E+00 0.  1.
          1   -1    0    0  501    0  0.00000000000E+00 -0.00000000000E+00 -0.11898230325E+04  0.11898230325E+04  0.00000000000E+00 0. -1.
         23    2    1    2    0    0  0.58867913265E+03  0.75824686753E+03  0.17630441914E+03  0.98014299931E+03  0.90086722370E+02 0.  0.
         13    1    3    3    0    0  0.44885828196E+03  0.63572385598E+03  0.13909519200E+03  0.79054794338E+03  0.00000000000E+00 0. -1.
        -13    1    3    3    0    0  0.13982085070E+03  0.12252301155E+03  0.37209227143E+02  0.18959505593E+03  0.00000000000E+00 0.  1.
         22    1    1    2    0    0 -0.58867913265E+03 -0.75824686753E+03 -0.49551985599E+03  0.10802876288E+04  0.00000000000E+00 0. -1.
<mgrwt>
<rscale>  0 0.20355530E+04</rscale>
<asrwt>0</asrwt>
<pdfrwt beam="1">  1        1 0.18304970E+00 0.20355530E+04</pdfrwt>
<pdfrwt beam="2">  1       -1 0.13393963E+00 0.20355530E+04</pdfrwt>
<totfact> 0.47260796E+00</totfact>
</mgrwt>
</event>
<event>
 6    1  0.8968082E-007  0.2571265E+03  0.7818608E-02  0.1108882E+00
          2   -1    0    0  501    0  0.00000000000E+00  0.00000000000E+00  0.35474626366E+03  0.35474626366E+03  0.00000000000E+00 0. -1.
         -2   -1    0    0    0  501 -0.00000000000E+00 -0.00000000000E+00 -0.46592498143E+02  0.46592498143E+02  0.00000000000E+00 0.  1.
         23    2    1    2    0    0 -0.33954788393E+01  0.49517527883E+02  0.33069688436E+03  0.34682539600E+03  0.91999517068E+02 0.  0.
         11    1    3    3    0    0 -0.27726237131E+01 -0.11369361419E+02  0.22142192175E+03  0.22173095692E+03  0.00000000000E+00 0. -1.
        -11    1    3    3    0    0 -0.62285512618E+00  0.60886889302E+02  0.10927496261E+03  0.12509443909E+03  0.00000000000E+00 0.  1.
         22    1    1    2    0    0  0.33954788393E+01 -0.49517527883E+02 -0.22543118842E+02  0.54513365804E+02  0.00000000000E+00 0.  1.
<mgrwt>
<rscale>  0 0.25712654E+03</rscale>
<asrwt>0</asrwt>
<pdfrwt beam="1">  1        2 0.54576347E-01 0.25712654E+03</pdfrwt>
<pdfrwt beam="2">  1       -2 0.71680769E-02 0.25712654E+03</pdfrwt>
<totfact> 0.10110934E+04</totfact>
</mgrwt>
</event>
<event>
 6    1  0.8968082E-007  0.2285311E+04  0.7818608E-02  0.8483735E-01
         -2   -1    0    0    0  501 -0.00000000000E+00  0.00000000000E+00  0.20520817574E+04  0.20520817574E+04  0.00000000000E+00 0.  1.
          2   -1    0    0  501    0  0.00000000000E+00 -0.00000000000E+00 -0.63626183276E+03  0.63626183276E+03  0.00000000000E+00 0. -1.
         23    2    1    2    0    0  0.36779358088E+03 -0.43059192209E+03 -0.45606491529E+03  0.73267634456E+03  0.90210295476E+02 0.  0.
         11    1    3    3    0    0  0.15824709841E+03 -0.14081631572E+03 -0.21222455947E+03  0.29985103397E+03  0.00000000000E+00 0. -1.
        -11    1    3    3    0    0  0.20954648247E+03 -0.28977560637E+03 -0.24384035582E+03  0.43282531060E+03  0.00000000000E+00 0.  1.
         22    1    1    2    0    0 -0.36779358088E+03  0.43059192209E+03  0.18718848399E+04  0.19556672456E+04  0.00000000000E+00 0.  1.
<mgrwt>
<rscale>  0 0.22853107E+04</rscale>
<asrwt>0</asrwt>
<pdfrwt beam="1">  1        2 0.97886437E-01 0.22853107E+04</pdfrwt>
<pdfrwt beam="2">  1       -2 0.31570488E+00 0.22853107E+04</pdfrwt>
<totfact> 0.10672050E+00</totfact>
</mgrwt>
</event>
<event>
 6    1  0.8968082E-007  0.4235246E+04  0.7818608E-02  0.7958701E-01
          2   -1    0    0  501    0  0.00000000000E+00  0.00000000000E+00  0.24819449551E+04  0.24819449551E+04  0.00000000000E+00 0. -1.
         -2   -1    0    0    0  501 -0.00000000000E+00 -0.00000000000E+00 -0.18067798762E+04  0.18067798762E+04  0.00000000000E+00 0.  1.
         23    2    1    2    0    0 -0.11654908548E+04 -0.95723825343E+03 -0.11661199712E+04  0.19085978091E+04  0.90751327291E+02 0.  0.
         13    1    3    3    0    0 -0.25032446261E+03 -0.21366613678E+03 -0.30233160739E+03  0.44690038646E+03  0.00000000000E+00 0.  1.
        -13    1    3    3    0    0 -0.91516639217E+03 -0.74357211665E+03 -0.86378836378E+03  0.14616974227E+04  0.00000000000E+00 0. -1.
         22    1    1    2    0    0  0.11654908548E+04  0.95723825343E+03  0.18412850501E+04  0.23801270222E+04  0.00000000000E+00 0. -1.
<mgrwt>
<rscale>  0 0.42352465E+04</rscale>
<asrwt>0</asrwt>
<pdfrwt beam="1">  1        2 0.38183769E+00 0.42352465E+04</pdfrwt>
<pdfrwt beam="2">  1       -2 0.27796613E+00 0.42352465E+04</pdfrwt>
<totfact> 0.11961458E-01</totfact>
</mgrwt>
</event>
<event>
 6    1  0.8968082E-007  0.1386953E+04  0.7818608E-02  0.8963317E-01
          2   -1    0    0  501    0  0.00000000000E+00  0.00000000000E+00  0.50593221632E+03  0.50593221632E+03  0.00000000000E+00 0. -1.
         -2   -1    0    0    0  501 -0.00000000000E+00 -0.00000000000E+00 -0.95054148777E+03  0.95054148777E+03  0.00000000000E+00 0.  1.
         23    2    1    2    0    0 -0.19977565008E+03  0.53467525670E+03  0.18447798636E+03  0.60703935205E+03  0.93148843238E+02 0.  0.
         13    1    3    3    0    0 -0.14329386022E+03  0.46659668942E+03  0.17292018190E+03  0.51782911299E+03  0.00000000000E+00 0.  1.
        -13    1    3    3    0    0 -0.56481789868E+02  0.68078567278E+02  0.11557804462E+02  0.89210239061E+02  0.00000000000E+00 0. -1.
         22    1    1    2    0    0  0.19977565008E+03 -0.53467525670E+03 -0.62908725781E+03  0.84943435204E+03  0.00000000000E+00 0.  1.
<mgrwt>
<rscale>  0 0.13869529E+04</rscale>
<asrwt>0</asrwt>
<pdfrwt beam="1">  1        2 0.77835726E-01 0.13869529E+04</pdfrwt>
<pdfrwt beam="2">  1       -2 0.14623715E+00 0.13869529E+04</pdfrwt>
<totfact> 0.18945238E+01</totfact>
</mgrwt>
</event>
<event>
 6    1  0.8968082E-007  0.4418788E+04  0.7818608E-02  0.7925011E-01
         -2   -1    0    0    0  501 -0.00000000000E+00  0.00000000000E+00  0.18185281784E+04  0.18185281784E+04  0.00000000000E+00 0.  1.
          2   -1    0    0  501    0  0.00000000000E+00 -0.00000000000E+00 -0.26842712621E+04  0.26842712621E+04  0.00000000000E+00 0. -1.
         23    2    1    2    0    0 -0.68662524634E+03  0.17335944002E+04  0.77300973069E+03  0.20203984737E+04  0.87533854057E+02 0.  0.
         13    1    3    3    0    0 -0.14144191515E+03  0.36924712353E+03  0.12595825760E+03  0.41498763385E+03  0.00000000000E+00 0. -1.
        -13    1    3    3    0    0 -0.54518333118E+03  0.13643472766E+04  0.64705147309E+03  0.16054108398E+04  0.00000000000E+00 0.  1.
         22    1    1    2    0    0  0.68662524634E+03 -0.17335944002E+04 -0.16387528144E+04  0.24824009668E+04  0.00000000000E+00 0. -1.
<mgrwt>
<rscale>  0 0.44187885E+04</rscale>
<asrwt>0</asrwt>
<pdfrwt beam="1">  1        2 0.41296481E+00 0.44187885E+04</pdfrwt>
<pdfrwt beam="2">  1       -2 0.27977357E+00 0.44187885E+04</pdfrwt>
<totfact> 0.87419696E-02</totfact>
</mgrwt>
</event>
<event>
 6    1  0.8968082E-007  0.2382545E+04  0.7818608E-02  0.8446067E-01
          2   -1    0    0  501    0  0.00000000000E+00  0.00000000000E+00  0.89388005247E+03  0.89388005247E+03  0.00000000000E+00 0. -1.
         -2   -1    0    0    0  501 -0.00000000000E+00 -0.00000000000E+00 -0.15876074418E+04  0.15876074418E+04  0.00000000000E+00 0.  1.
         23    2    1    2    0    0  0.48198868464E+03 -0.53013555853E+03  0.64150356928E+03  0.96616623613E+03  0.92701477368E+02 0.  0.
         11    1    3    3    0    0  0.35576322171E+03 -0.37985756961E+03  0.40910649524E+03  0.66198743761E+03  0.00000000000E+00 0. -1.
        -11    1    3    3    0    0  0.12622546292E+03 -0.15027798893E+03  0.23239707404E+03  0.30417879852E+03  0.00000000000E+00 0.  1.
         22    1    1    2    0    0 -0.48198868464E+03  0.53013555853E+03 -0.13352309586E+04  0.15153212581E+04  0.00000000000E+00 0.  1.
<mgrwt>
<rscale>  0 0.23825454E+04</rscale>
<asrwt>0</asrwt>
<pdfrwt beam="1">  1        2 0.13752001E+00 0.23825454E+04</pdfrwt>
<pdfrwt beam="2">  1       -2 0.24424730E+00 0.23825454E+04</pdfrwt>
<totfact> 0.18585093E+00</totfact>
</mgrwt>
</event>
<event>
 6    1  0.8968082E-007  0.6013357E+04  0.7818608E-02  0.7688748E-01
         -2   -1    0    0    0  501 -0.00000000000E+00  0.00000000000E+00  0.32057886496E+04  0.32057886496E+04  0.00000000000E+00 0.  1.
          2   -1    0    0  501    0  0.00000000000E+00 -0.00000000000E+00 -0.28199351416E+04  0.28199351416E+04  0.00000000000E+00 0. -1.
         23    2    1    2    0    0  0.77210129698E+03 -0.82089454331E+03 -0.25994639545E+04  0.28347790069E+04  0.93546261374E+02 0.  0.
         13    1    3    3    0    0  0.22055492324E+03 -0.20948440142E+03 -0.60975701042E+03  0.68141896097E+03  0.00000000000E+00 0. -1.
        -13    1    3    3    0    0  0.55154637374E+03 -0.61141014189E+03 -0.19897069441E+04  0.21533600459E+04  0.00000000000E+00 0.  1.
         22    1    1    2    0    0 -0.77210129698E+03  0.82089454331E+03  0.29853174626E+04  0.31909447843E+04  0.00000000000E+00 0.  1.
<mgrwt>
<rscale>  0 0.60133572E+04</rscale>
<asrwt>0</asrwt>
<pdfrwt beam="1">  1        2 0.43383618E+00 0.60133572E+04</pdfrwt>
<pdfrwt beam="2">  1       -2 0.49319825E+00 0.60133572E+04</pdfrwt>
<totfact> 0.27795420E-03</totfact>
</mgrwt>
</event>
<event>
 6    1  0.8968082E-007  0.6425363E+03  0.7818608E-02  0.9820886E-01
          2   -1    0    0  501    0  0.00000000000E+00  0.00000000000E+00  0.13741265039E+04  0.13741265039E+04  0.00000000000E+00 0. -1.
         -2   -1    0    0    0  501 -0.00000000000E+00 -0.00000000000E+00 -0.75111888158E+02  0.75111888158E+02  0.00000000000E+00 0.  1.
         23    2    1    2    0    0  0.15774029873E+03  0.17328682647E+03  0.18779540030E+03  0.31358066596E+03  0.90307229062E+02 0.  0.
         13    1    3    3    0    0  0.42420557777E+02  0.38495134482E+02  0.10095491115E+03  0.11607442951E+03  0.00000000000E+00 0. -1.
        -13    1    3    3    0    0  0.11531974095E+03  0.13479169199E+03  0.86840489151E+02  0.19750623645E+03  0.00000000000E+00 0.  1.
         22    1    1    2    0    0 -0.15774029873E+03 -0.17328682647E+03  0.11112192155E+04  0.11356577261E+04  0.00000000000E+00 0.  1.
<mgrwt>
<rscale>  0 0.64253634E+03</rscale>
<asrwt>0</asrwt>
<pdfrwt beam="1">  1        2 0.21140406E+00 0.64253634E+03</pdfrwt>
<pdfrwt beam="2">  1       -2 0.11555676E-01 0.64253634E+03</pdfrwt>
<totfact> 0.82285172E+02</totfact>
</mgrwt>
</event>
<event>
 6    1  0.8968082E-007  0.2934058E+04  0.7818608E-02  0.8262816E-01
          1   -1    0    0  501    0  0.00000000000E+00  0.00000000000E+00  0.30186146031E+04  0.30186146031E+04  0.00000000000E+00 0. -1.
         -1   -1    0    0    0  501 -0.00000000000E+00 -0.00000000000E+00 -0.71296749604E+03  0.71296749604E+03  0.00000000000E+00 0.  1.
         23    2    1    2    0    0 -0.18484733408E+03 -0.14219011757E+04  0.76821699496E+03  0.16292826818E+04  0.91832540081E+02 0.  0.
         11    1    3    3    0    0 -0.40202795539E+01 -0.30158358335E+03  0.14623622841E+03  0.33519226556E+03  0.00000000000E+00 0. -1.
        -11    1    3    3    0    0 -0.18082705452E+03 -0.11203175924E+04  0.62198076655E+03  0.12940904162E+04  0.00000000000E+00 0.  1.
         22    1    1    2    0    0  0.18484733408E+03  0.14219011757E+04  0.15374301121E+04  0.21022994173E+04  0.00000000000E+00 0.  1.
<mgrwt>
<rscale>  0 0.29340580E+04</rscale>
<asrwt>0</asrwt>
<pdfrwt beam="1">  1        1 0.46440224E+00 0.29340580E+04</pdfrwt>
<pdfrwt beam="2">  1       -1 0.10968731E+00 0.29340580E+04</pdfrwt>
<totfact> 0.38066868E-01</totfact>
</mgrwt>
</event>
<event>
 6    1  0.8968082E-007  0.2192499E+04  0.7818608E-02  0.8521557E-01
         -1   -1    0    0    0  501 -0.00000000000E+00  0.00000000000E+00  0.16333599458E+04  0.16333599458E+04  0.00000000000E+00 0.  1.
          1   -1    0    0  501    0  0.00000000000E+00 -0.00000000000E+00 -0.73576094177E+03  0.73576094177E+03  0.00000000000E+00 0. -1.
         23    2    1    2    0    0  0.56473559580E+03 -0.78895326298E+03 -0.97983646546E+02  0.97895602020E+03  0.85910128491E+02 0.  0.
         11    1    3    3    0    0  0.22565044205E+03 -0.28420167703E+03 -0.74326305017E+02  0.37042288650E+03  0.00000000000E+00 0.  1.
        -11    1    3    3    0    0  0.33908515375E+03 -0.50475158595E+03 -0.23657341529E+02  0.60853313370E+03  0.00000000000E+00 0. -1.
         22    1    1    2    0    0 -0.56473559580E+03  0.78895326298E+03  0.99558265056E+03  0.13901648674E+04  0.00000000000E+00 0.  1.
<mgrwt>
<rscale>  0 0.21924985E+04</rscale>
<asrwt>0</asrwt>
<pdfrwt beam="1">  1        1 0.11319399E+00 0.21924985E+04</pdfrwt>
<pdfrwt beam="2">  1       -1 0.25128614E+00 0.21924985E+04</pdfrwt>
<totfact> 0.15742674E+00</totfact>
</mgrwt>
</event>
<event>
 6    1  0.8968082E-007  0.2034722E+04  0.7818608E-02  0.8590557E-01
          1   -1    0    0  501    0  0.00000000000E+00  0.00000000000E+00  0.13730915511E+04  0.13730915511E+04  0.00000000000E+00 0. -1.
         -1   -1    0    0    0  501 -0.00000000000E+00 -0.00000000000E+00 -0.75379084189E+03  0.75379084189E+03  0.00000000000E+00 0.  1.
         23    2    1    2    0    0  0.15076960706E+03  0.19726407321E+03  0.13393678132E+04  0.13652123704E+04  0.90852014374E+02 0.  0.
         11    1    3    3    0    0  0.65273532146E+02  0.13196947761E+03  0.94647743856E+03  0.95786017702E+03  0.00000000000E+00 0. -1.
        -11    1    3    3    0    0  0.85496074913E+02  0.65294595608E+02  0.39289037460E+03  0.40735219343E+03  0.00000000000E+00 0.  1.
         22    1    1    2    0    0 -0.15076960706E+03 -0.19726407321E+03 -0.72006710397E+03  0.76167002253E+03  0.00000000000E+00 0.  1.
<mgrwt>
<rscale>  0 0.20347224E+04</rscale>
<asrwt>0</asrwt>
<pdfrwt beam="1">  1        1 0.21124485E+00 0.20347224E+04</pdfrwt>
<pdfrwt beam="2">  1       -1 0.11596782E+00 0.20347224E+04</pdfrwt>
<totfact> 0.49935155E+00</totfact>
</mgrwt>
</event>
<event>
 6    1  0.9399516E-007  0.2466997E+04  0.7818608E-02  0.8414838E-01
          2   -1    0    0  501    0  0.00000000000E+00  0.00000000000E+00  0.25943275110E+04  0.25943275110E+04  0.00000000000E+00 0. -1.
         -2   -1    0    0    0  501 -0.00000000000E+00 -0.00000000000E+00 -0.58647879597E+03  0.58647879597E+03  0.00000000000E+00 0.  1.
         23    2    1    2    0    0  0.61985160808E+03  0.12078451816E+03 -0.35838472022E+03  0.73175228838E+03  0.90647051762E+02 0.  0.
         11    1    3    3    0    0  0.28937132838E+03  0.55518608783E+02 -0.21931773490E+03  0.36731233365E+03  0.00000000000E+00 0.  1.
        -11    1    3    3    0    0  0.33048027970E+03  0.65265909376E+02 -0.13906698533E+03  0.36443995473E+03  0.00000000000E+00 0. -1.
         22    1    1    2    0    0 -0.61985160808E+03 -0.12078451816E+03  0.23662334353E+04  0.24490540186E+04  0.00000000000E+00 0. -1.
<mgrwt>
<rscale>  0 0.24669966E+04</rscale>
<asrwt>0</asrwt>
<pdfrwt beam="1">  1        2 0.39912730E+00 0.24669966E+04</pdfrwt>
<pdfrwt beam="2">  1       -2 0.90227509E-01 0.24669966E+04</pdfrwt>
<totfact> 0.28811108E+00</totfact>
</mgrwt>
</event>
<event>
 6    1  0.8968082E-007  0.1703645E+04  0.7818608E-02  0.8759288E-01
         -2   -1    0    0    0  501 -0.00000000000E+00  0.00000000000E+00  0.22760097855E+03  0.22760097855E+03  0.00000000000E+00 0.  1.
          2   -1    0    0  501    0  0.00000000000E+00 -0.00000000000E+00 -0.31880427498E+04  0.31880427498E+04  0.00000000000E+00 0. -1.
         23    2    1    2    0    0  0.71471302079E+03  0.32835080026E+03 -0.21272636633E+04  0.22698624623E+04  0.91629440412E+02 0.  0.
         11    1    3    3    0    0  0.39430546677E+03  0.18465856250E+03 -0.13063055943E+04  0.13769567500E+04  0.00000000000E+00 0.  1.
        -11    1    3    3    0    0  0.32040755403E+03  0.14369223775E+03 -0.82095806909E+03  0.89290571230E+03  0.00000000000E+00 0. -1.
         22    1    1    2    0    0 -0.71471302079E+03 -0.32835080026E+03 -0.83317810794E+03  0.11457812661E+04  0.00000000000E+00 0. -1.
<mgrwt>
<rscale>  0 0.17036451E+04</rscale>
<asrwt>0</asrwt>
<pdfrwt beam="1">  1        2 0.49046810E+00 0.17036451E+04</pdfrwt>
<pdfrwt beam="2">  1       -2 0.35015536E-01 0.17036451E+04</pdfrwt>
<totfact> 0.96758747E+00</totfact>
</mgrwt>
</event>
<event>
 6    1  0.8968082E-007  0.4151575E+04  0.7818608E-02  0.7974648E-01
          2   -1    0    0  501    0  0.00000000000E+00  0.00000000000E+00  0.28793865249E+04  0.28793865249E+04  0.00000000000E+00 0. -1.
         -2   -1    0    0    0  501 -0.00000000000E+00 -0.00000000000E+00 -0.14964622482E+04  0.14964622482E+04  0.00000000000E+00 0.  1.
         23    2    1    2    0    0  0.18597329242E+04  0.91737068368E+03  0.76215997030E+03  0.22112416853E+04  0.92338779366E+02 0.  0.
         13    1    3    3    0    0  0.11007162767E+04  0.51747586355E+03  0.48870432054E+03  0.13107972780E+04  0.00000000000E+00 0. -1.
        -13    1    3    3    0    0  0.75901664743E+03  0.39989482013E+03  0.27345564976E+03  0.90044440730E+03  0.00000000000E+00 0.  1.
         22    1    1    2    0    0 -0.18597329242E+04 -0.91737068368E+03  0.62076430639E+03  0.21646070878E+04  0.00000000000E+00 0.  1.
<mgrwt>
<rscale>  0 0.41515748E+04</rscale>
<asrwt>0</asrwt>
<pdfrwt beam="1">  1        2 0.44298254E+00 0.41515748E+04</pdfrwt>
<pdfrwt beam="2">  1       -2 0.23022496E+00 0.41515748E+04</pdfrwt>
<totfact> 0.13732996E-01</totfact>
</mgrwt>
</event>
<event>
 6    1  0.8968082E-007  0.2877980E+04  0.7818608E-02  0.8279459E-01
          2   -1    0    0  501    0  0.00000000000E+00  0.00000000000E+00  0.16384787611E+04  0.16384787611E+04  0.00000000000E+00 0. -1.
         -2   -1    0    0    0  501 -0.00000000000E+00 -0.00000000000E+00 -0.12637892079E+04  0.12637892079E+04  0.00000000000E+00 0.  1.
         23    2    1    2    0    0  0.79416308870E+03 -0.27466291042E+03 -0.98880615529E+03  0.13006265382E+04  0.88074134613E+02 0.  0.
         11    1    3    3    0    0  0.67526188765E+03 -0.20814500848E+03 -0.79381913380E+03  0.10627566884E+04  0.00000000000E+00 0. -1.
        -11    1    3    3    0    0  0.11890120105E+03 -0.66517901945E+02 -0.19498702149E+03  0.23786984979E+03  0.00000000000E+00 0.  1.
         22    1    1    2    0    0 -0.79416308870E+03  0.27466291042E+03  0.13634957085E+04  0.16016414308E+04  0.00000000000E+00 0. -1.
<mgrwt>
<rscale>  0 0.28779797E+04</rscale>
<asrwt>0</asrwt>
<pdfrwt beam="1">  1        2 0.25207366E+00 0.28779797E+04</pdfrwt>
<pdfrwt beam="2">  1       -2 0.19442911E+00 0.28779797E+04</pdfrwt>
<totfact> 0.13286784E+00</totfact>
</mgrwt>
</event>
<event>
 6    1  0.8968082E-007  0.1891274E+04  0.7818608E-02  0.8659212E-01
          1   -1    0    0  501    0  0.00000000000E+00  0.00000000000E+00  0.17735351438E+04  0.17735351438E+04  0.00000000000E+00 0. -1.
         -1   -1    0    0    0  501 -0.00000000000E+00 -0.00000000000E+00 -0.50420747751E+03  0.50420747751E+03  0.00000000000E+00 0.  1.
         23    2    1    2    0    0  0.24734350573E+03 -0.88898374602E+03  0.39948081334E+03  0.10096320354E+04  0.91109912592E+02 0.  0.
         11    1    3    3    0    0  0.13617501733E+03 -0.50418011921E+03  0.17684686919E+03  0.55137649849E+03  0.00000000000E+00 0.  1.
        -11    1    3    3    0    0  0.11116848841E+03 -0.38480362681E+03  0.22263394415E+03  0.45825553691E+03  0.00000000000E+00 0. -1.
         22    1    1    2    0    0 -0.24734350573E+03  0.88898374602E+03  0.86984685298E+03  0.12681105859E+04  0.00000000000E+00 0.  1.
<mgrwt>
<rscale>  0 0.18912744E+04</rscale>
<asrwt>0</asrwt>
<pdfrwt beam="1">  1        1 0.27285156E+00 0.18912744E+04</pdfrwt>
<pdfrwt beam="2">  1       -1 0.77570382E-01 0.18912744E+04</pdfrwt>
<totfact> 0.66214487E+00</totfact>
</mgrwt>
</event>
<event>
 6    1  0.8968082E-007  0.3184215E+04  0.7818608E-02  0.8192998E-01
          2   -1    0    0  501    0  0.00000000000E+00  0.00000000000E+00  0.22451338322E+04  0.22451338322E+04  0.00000000000E+00 0. -1.
         -2   -1    0    0    0  501 -0.00000000000E+00 -0.00000000000E+00 -0.11290224655E+04  0.11290224655E+04  0.00000000000E+00 0.  1.
         23    2    1    2    0    0  0.12812927957E+04 -0.85445905796E+03  0.13639024329E+03  0.15488713913E+04  0.92675660944E+02 0.  0.
         11    1    3    3    0    0  0.42139271299E+03 -0.22950288016E+03  0.40798942590E+02  0.48156821353E+03  0.00000000000E+00 0. -1.
        -11    1    3    3    0    0  0.85990008274E+03 -0.62495617779E+03  0.95591300697E+02  0.10673031777E+04  0.00000000000E+00 0.  1.
         22    1    1    2    0    0 -0.12812927957E+04  0.85445905796E+03  0.97972112334E+03  0.18252849064E+04  0.00000000000E+00 0. -1.
<mgrwt>
<rscale>  0 0.31842152E+04</rscale>
<asrwt>0</asrwt>
<pdfrwt beam="1">  1        2 0.34540520E+00 0.31842152E+04</pdfrwt>
<pdfrwt beam="2">  1       -2 0.17369576E+00 0.31842152E+04</pdfrwt>
<totfact> 0.82397653E-01</totfact>
</mgrwt>
</event>
<event>
 6    1  0.8968082E-007  0.2153273E+04  0.7818608E-02  0.8538133E-01
         -1   -1    0    0    0  501 -0.00000000000E+00  0.00000000000E+00  0.81071778385E+03  0.81071778385E+03  0.00000000000E+00 0.  1.
          1   -1    0    0  501    0  0.00000000000E+00 -0.00000000000E+00 -0.14297775205E+04  0.14297775205E+04  0.00000000000E+00 0. -1.
         23    2    1    2    0    0  0.16061826091E+03  0.49979625989E+03  0.66562194499E+03  0.85269072506E+03  0.91838836031E+02 0.  0.
         13    1    3    3    0    0  0.15556822170E+03  0.41363859057E+03  0.51078941665E+03  0.67542888847E+03  0.00000000000E+00 0.  1.
        -13    1    3    3    0    0  0.50500392100E+01  0.86157669320E+02  0.15483252834E+03  0.17726183659E+03  0.00000000000E+00 0. -1.
         22    1    1    2    0    0 -0.16061826091E+03 -0.49979625989E+03 -0.12846816816E+04  0.13878045793E+04  0.00000000000E+00 0. -1.
<mgrwt>
<rscale>  0 0.21532729E+04</rscale>
<asrwt>0</asrwt>
<pdfrwt beam="1">  1        1 0.21996577E+00 0.21532729E+04</pdfrwt>
<pdfrwt beam="2">  1       -1 0.12472581E+00 0.21532729E+04</pdfrwt>
<totfact> 0.37717665E+00</totfact>
</mgrwt>
</event>
<event>
 6    1  0.8968082E-007  0.1235519E+04  0.7818608E-02  0.9082322E-01
          2   -1    0    0  501    0  0.00000000000E+00  0.00000000000E+00  0.61508177012E+03  0.61508177012E+03  0.00000000000E+00 0. -1.
         -2   -1    0    0    0  501 -0.00000000000E+00 -0.00000000000E+00 -0.62044937059E+03  0.62044937059E+03  0.00000000000E+00 0.  1.
         23    2    1    2    0    0 -0.51890241613E+03 -0.32247303317E+03  0.62207153815E+02  0.62086462786E+03  0.91403400089E+02 0.  0.
         11    1    3    3    0    0 -0.38131429883E+03 -0.27561074082E+03  0.68107562264E+02  0.47539511460E+03  0.00000000000E+00 0. -1.
        -11    1    3    3    0    0 -0.13758811731E+03 -0.46862292351E+02 -0.59004084487E+01  0.14546951326E+03  0.00000000000E+00 0.  1.
         22    1    1    2    0    0  0.51890241613E+03  0.32247303317E+03 -0.67574754287E+02  0.61466651284E+03  0.00000000000E+00 0. -1.
<mgrwt>
<rscale>  0 0.12355195E+04</rscale>
<asrwt>0</asrwt>
<pdfrwt beam="1">  1        2 0.94627965E-01 0.12355195E+04</pdfrwt>
<pdfrwt beam="2">  1       -2 0.95453749E-01 0.12355195E+04</pdfrwt>
<totfact> 0.43676934E+01</totfact>
</mgrwt>
</event>
<event>
 6    1  0.8968082E-007  0.1011181E+04  0.7818608E-02  0.9296366E-01
         -2   -1    0    0    0  501 -0.00000000000E+00  0.00000000000E+00  0.88380309226E+02  0.88380309226E+02  0.00000000000E+00 0.  1.
          2   -1    0    0  501    0  0.00000000000E+00 -0.00000000000E+00 -0.28922950693E+04  0.28922950693E+04  0.00000000000E+00 0. -1.
         23    2    1    2    0    0 -0.87359819839E+02 -0.42370543475E+03 -0.66656971313E+03  0.79998698188E+03  0.92227735309E+02 0.  0.
         13    1    3    3    0    0 -0.48785983330E+02 -0.63577060496E+02 -0.12312108156E+03  0.14690444348E+03  0.00000000000E+00 0.  1.
        -13    1    3    3    0    0 -0.38573836508E+02 -0.36012837425E+03 -0.54344863157E+03  0.65308253840E+03  0.00000000000E+00 0. -1.
         22    1    1    2    0    0  0.87359819839E+02  0.42370543475E+03 -0.21373450470E+04  0.21806883967E+04  0.00000000000E+00 0. -1.
<mgrwt>
<rscale>  0 0.10111814E+04</rscale>
<asrwt>0</asrwt>
<pdfrwt beam="1">  1        2 0.44496841E+00 0.10111814E+04</pdfrwt>
<pdfrwt beam="2">  1       -2 0.13596972E-01 0.10111814E+04</pdfrwt>
<totfact> 0.85744161E+01</totfact>
</mgrwt>
</event>
<event>
 6    1  0.8968082E-007  0.2369382E+04  0.7818608E-02  0.8451056E-01
         -1   -1    0    0    0  501 -0.00000000000E+00  0.00000000000E+00  0.61575100298E+03  0.61575100298E+03  0.00000000000E+00 0.  1.
          1   -1    0    0  501    0  0.00000000000E+00 -0.00000000000E+00 -0.22793178241E+04  0.22793178241E+04  0.00000000000E+00 0. -1.
         23    2    1    2    0    0 -0.83839649305E+03  0.52404853660E+03 -0.16265249057E+04  0.19056712065E+04  0.91999619821E+02 0.  0.
         13    1    3    3    0    0 -0.16530708081E+03  0.62096870349E+02 -0.29460540031E+03  0.34347459027E+03  0.00000000000E+00 0. -1.
        -13    1    3    3    0    0 -0.67308941224E+03  0.46195166625E+03 -0.13319195054E+04  0.15621966162E+04  0.00000000000E+00 0.  1.
         22    1    1    2    0    0  0.83839649305E+03 -0.52404853660E+03 -0.37041915476E+02  0.98939762066E+03  0.00000000000E+00 0.  1.
<mgrwt>
<rscale>  0 0.23693816E+04</rscale>
<asrwt>0</asrwt>
<pdfrwt beam="1">  1        1 0.35066429E+00 0.23693816E+04</pdfrwt>
<pdfrwt beam="2">  1       -1 0.94730922E-01 0.23693816E+04</pdfrwt>
<totfact> 0.18613363E+00</totfact>
</mgrwt>
</event>
<event>
 6    1  0.8968082E-007  0.1746483E+04  0.7818608E-02  0.8735289E-01
          1   -1    0    0  501    0  0.00000000000E+00  0.00000000000E+00  0.33826611443E+04  0.33826611443E+04  0.00000000000E+00 0. -1.
         -1   -1    0    0    0  501 -0.00000000000E+00 -0.00000000000E+00 -0.22542916004E+03  0.22542916004E+03  0.00000000000E+00 0.  1.
         23    2    1    2    0    0 -0.80948051130E+03 -0.27063223880E+03  0.12271637764E+04  0.14977197696E+04  0.93450881835E+02 0.  0.
         13    1    3    3    0    0 -0.15432861674E+03 -0.60890282888E+02  0.30549032479E+03  0.34763384046E+03  0.00000000000E+00 0. -1.
        -13    1    3    3    0    0 -0.65515189456E+03 -0.20974195591E+03  0.92167345163E+03  0.11500859292E+04  0.00000000000E+00 0.  1.
         22    1    1    2    0    0  0.80948051130E+03  0.27063223880E+03  0.19300682078E+04  0.21103705347E+04  0.00000000000E+00 0. -1.
<mgrwt>
<rscale>  0 0.17464827E+04</rscale>
<asrwt>0</asrwt>
<pdfrwt beam="1">  1        1 0.52040937E+00 0.17464827E+04</pdfrwt>
<pdfrwt beam="2">  1       -1 0.34681412E-01 0.17464827E+04</pdfrwt>
<totfact> 0.23219372E+00</totfact>
</mgrwt>
</event>
<event>
 6    1  0.8968082E-007  0.2425084E+04  0.7818608E-02  0.8430172E-01
         -2   -1    0    0    0  501 -0.00000000000E+00  0.00000000000E+00  0.66167973825E+03  0.66167973825E+03  0.00000000000E+00 0.  1.
          2   -1    0    0  501    0  0.00000000000E+00 -0.00000000000E+00 -0.22220082622E+04  0.22220082622E+04  0.00000000000E+00 0. -1.
         23    2    1    2    0    0 -0.89409376665E+03 -0.78399410080E+03 -0.10531612169E+04  0.15909122693E+04  0.88333947133E+02 0.  0.
         13    1    3    3    0    0 -0.59630059760E+03 -0.53875947933E+03 -0.65781209599E+03  0.10385340307E+04  0.00000000000E+00 0.  1.
        -13    1    3    3    0    0 -0.29779316905E+03 -0.24523462146E+03 -0.39534912093E+03  0.55237823863E+03  0.00000000000E+00 0. -1.
         22    1    1    2    0    0  0.89409376665E+03  0.78399410080E+03 -0.50716730701E+03  0.12927757311E+04  0.00000000000E+00 0. -1.
<mgrwt>
<rscale>  0 0.24250838E+04</rscale>
<asrwt>0</asrwt>
<pdfrwt beam="1">  1        2 0.34184743E+00 0.24250838E+04</pdfrwt>
<pdfrwt beam="2">  1       -2 0.10179688E+00 0.24250838E+04</pdfrwt>
<totfact> 0.35649494E+00</totfact>
</mgrwt>
</event>
<event>
 6    1  0.8968082E-007  0.1096219E+04  0.7818608E-02  0.9208884E-01
          1   -1    0    0  501    0  0.00000000000E+00  0.00000000000E+00  0.96258591688E+03  0.96258591688E+03  0.00000000000E+00 0. -1.
         -1   -1    0    0    0  501 -0.00000000000E+00 -0.00000000000E+00 -0.31210127615E+03  0.31210127615E+03  0.00000000000E+00 0.  1.
         23    2    1    2    0    0  0.37996453578E+03  0.36061542015E+03  0.49991112633E+03  0.72962856046E+03  0.89611228774E+02 0.  0.
         13    1    3    3    0    0  0.65831801929E+02  0.10484077082E+03  0.14869007550E+03  0.19347907361E+03  0.00000000000E+00 0. -1.
        -13    1    3    3    0    0  0.31413273385E+03  0.25577464932E+03  0.35122105083E+03  0.53614948686E+03  0.00000000000E+00 0.  1.
         22    1    1    2    0    0 -0.37996453578E+03 -0.36061542015E+03  0.15057351441E+03  0.54505863257E+03  0.00000000000E+00 0.  1.
<mgrwt>
<rscale>  0 0.10962195E+04</rscale>
<asrwt>0</asrwt>
<pdfrwt beam="1">  1        1 0.14809014E+00 0.10962195E+04</pdfrwt>
<pdfrwt beam="2">  1       -1 0.48015581E-01 0.10962195E+04</pdfrwt>
<totfact> 0.69945475E+01</totfact>
</mgrwt>
</event>
<event>
 6    1  0.8968082E-007  0.9094204E+03  0.7818608E-02  0.9413881E-01
         -2   -1    0    0    0  501 -0.00000000000E+00  0.00000000000E+00  0.52884427423E+03  0.52884427423E+03  0.00000000000E+00 0.  1.
          2   -1    0    0  501    0  0.00000000000E+00 -0.00000000000E+00 -0.39096833639E+03  0.39096833639E+03  0.00000000000E+00 0. -1.
         23    2    1    2    0    0  0.32116529972E+03  0.31436583802E+03  0.44610599704E+02  0.46082301035E+03  0.91622657679E+02 0.  0.
         11    1    3    3    0    0  0.85741127276E+02  0.33486801321E+02  0.13124763500E+02  0.92979385813E+02  0.00000000000E+00 0.  1.
        -11    1    3    3    0    0  0.23542417245E+03  0.28087903670E+03  0.31485836203E+02  0.36784362454E+03  0.00000000000E+00 0. -1.
         22    1    1    2    0    0 -0.32116529972E+03 -0.31436583802E+03  0.93265338141E+02  0.45898960027E+03  0.00000000000E+00 0. -1.
<mgrwt>
<rscale>  0 0.90942040E+03</rscale>
<asrwt>0</asrwt>
<pdfrwt beam="1">  1        2 0.60148975E-01 0.90942040E+03</pdfrwt>
<pdfrwt beam="2">  1       -2 0.81360657E-01 0.90942040E+03</pdfrwt>
<totfact> 0.10896079E+02</totfact>
</mgrwt>
</event>
<event>
 6    1  0.8968082E-007  0.1464482E+04  0.7818608E-02  0.8908421E-01
         -2   -1    0    0    0  501 -0.00000000000E+00  0.00000000000E+00  0.55971005250E+03  0.55971005250E+03  0.00000000000E+00 0.  1.
          2   -1    0    0  501    0  0.00000000000E+00 -0.00000000000E+00 -0.95795510507E+03  0.95795510507E+03  0.00000000000E+00 0. -1.
         23    2    1    2    0    0  0.33992240064E+03  0.43436198767E+03  0.29449438485E+03  0.63216783801E+03  0.93229061575E+02 0.  0.
         11    1    3    3    0    0  0.32545630036E+03  0.40177098224E+03  0.29724814480E+03  0.59640438060E+03  0.00000000000E+00 0. -1.
        -11    1    3    3    0    0  0.14466100280E+02  0.32591005428E+02 -0.27537599506E+01  0.35763457411E+02  0.00000000000E+00 0.  1.
         22    1    1    2    0    0 -0.33992240064E+03 -0.43436198767E+03 -0.69273943742E+03  0.88549731956E+03  0.00000000000E+00 0. -1.
<mgrwt>
<rscale>  0 0.14644823E+04</rscale>
<asrwt>0</asrwt>
<pdfrwt beam="1">  1        2 0.14737771E+00 0.14644823E+04</pdfrwt>
<pdfrwt beam="2">  1       -2 0.86109239E-01 0.14644823E+04</pdfrwt>
<totfact> 0.30406039E+01</totfact>
</mgrwt>
</event>
<event>
 6    1  0.8968082E-007  0.2853304E+04  0.7818608E-02  0.8286908E-01
         -2   -1    0    0    0  501 -0.00000000000E+00  0.00000000000E+00  0.60787961707E+03  0.60787961707E+03  0.00000000000E+00 0.  1.
          2   -1    0    0  501    0  0.00000000000E+00 -0.00000000000E+00 -0.33482553037E+04  0.33482553037E+04  0.00000000000E+00 0. -1.
         23    2    1    2    0    0  0.42905051092E+02 -0.14244794549E+04 -0.13672850368E+04  0.19771552611E+04  0.93230863062E+02 0.  0.
         11    1    3    3    0    0 -0.27959694686E+02 -0.59963475681E+03 -0.57294352531E+03  0.82982399899E+03  0.00000000000E+00 0. -1.
        -11    1    3    3    0    0  0.70864745778E+02 -0.82484469806E+03 -0.79434151145E+03  0.11473312621E+04  0.00000000000E+00 0.  1.
         22    1    1    2    0    0 -0.42905051092E+02  0.14244794549E+04 -0.13730906499E+04  0.19789796597E+04  0.00000000000E+00 0. -1.
<mgrwt>
<rscale>  0 0.28533042E+04</rscale>
<asrwt>0</asrwt>
<pdfrwt beam="1">  1        2 0.51511620E+00 0.28533042E+04</pdfrwt>
<pdfrwt beam="2">  1       -2 0.93519942E-01 0.28533042E+04</pdfrwt>
<totfact> 0.86553011E-01</totfact>
</mgrwt>
</event>
<event>
 6    1  0.8968082E-007  0.2102664E+04  0.7818608E-02  0.8560071E-01
          1   -1    0    0  501    0  0.00000000000E+00  0.00000000000E+00  0.23201819382E+04  0.23201819382E+04  0.00000000000E+00 0. -1.
         -1   -1    0    0    0  501 -0.00000000000E+00 -0.00000000000E+00 -0.47638458571E+03  0.47638458571E+03  0.00000000000E+00 0.  1.
         23    2    1    2    0    0 -0.50028502160E+03 -0.16784621014E+03 -0.28247511342E+03  0.60579221960E+03  0.93458924255E+02 0.  0.
         13    1    3    3    0    0 -0.35965736572E+03 -0.11669502921E+03 -0.24812790992E+03  0.45225945014E+03  0.00000000000E+00 0.  1.
        -13    1    3    3    0    0 -0.14062765588E+03 -0.51151180925E+02 -0.34347203507E+02  0.15353276946E+03  0.00000000000E+00 0. -1.
         22    1    1    2    0    0  0.50028502160E+03  0.16784621014E+03  0.21262724659E+04  0.21907743043E+04  0.00000000000E+00 0. -1.
<mgrwt>
<rscale>  0 0.21026639E+04</rscale>
<asrwt>0</asrwt>
<pdfrwt beam="1">  1        1 0.35695106E+00 0.21026639E+04</pdfrwt>
<pdfrwt beam="2">  1       -1 0.73289937E-01 0.21026639E+04</pdfrwt>
<totfact> 0.31099663E+00</totfact>
</mgrwt>
</event>
<event>
 6    1  0.8968082E-007  0.3672172E+04  0.7818608E-02  0.8074157E-01
          2   -1    0    0  501    0  0.00000000000E+00  0.00000000000E+00  0.32756590352E+04  0.32756590352E+04  0.00000000000E+00 0. -1.
         -2   -1    0    0    0  501 -0.00000000000E+00 -0.00000000000E+00 -0.10291705354E+04  0.10291705354E+04  0.00000000000E+00 0.  1.
         23    2    1    2    0    0 -0.62127728710E+03  0.16820943458E+04  0.15805417936E+04  0.23920013319E+04  0.90172914266E+02 0.  0.
         11    1    3    3    0    0 -0.25966525349E+03  0.58094551792E+03  0.57142696271E+03  0.85524997069E+03  0.00000000000E+00 0. -1.
        -11    1    3    3    0    0 -0.36161203361E+03  0.11011488279E+04  0.10091148309E+04  0.15367513612E+04  0.00000000000E+00 0.  1.
         22    1    1    2    0    0  0.62127728710E+03 -0.16820943458E+04  0.66594670617E+03  0.19128282388E+04  0.00000000000E+00 0.  1.
<mgrwt>
<rscale>  0 0.36721720E+04</rscale>
<asrwt>0</asrwt>
<pdfrwt beam="1">  1        2 0.50394754E+00 0.36721720E+04</pdfrwt>
<pdfrwt beam="2">  1       -2 0.15833393E+00 0.36721720E+04</pdfrwt>
<totfact> 0.24249885E-01</totfact>
</mgrwt>
</event>
<event>
 6    1  0.8968082E-007  0.3676029E+04  0.7818608E-02  0.8073295E-01
          2   -1    0    0  501    0  0.00000000000E+00  0.00000000000E+00  0.38391657332E+04  0.38391657332E+04  0.00000000000E+00 0. -1.
         -2   -1    0    0    0  501 -0.00000000000E+00 -0.00000000000E+00 -0.87995614227E+03  0.87995614227E+03  0.00000000000E+00 0.  1.
         23    2    1    2    0    0 -0.15167161180E+04  0.10173737001E+04  0.17320000446E+04  0.25187763801E+04  0.94515977591E+02 0.  0.
         11    1    3    3    0    0 -0.85527224330E+03  0.62945914863E+03  0.99817726745E+03  0.14574180208E+04  0.00000000000E+00 0. -1.
        -11    1    3    3    0    0 -0.66144387474E+03  0.38791455148E+03  0.73382277720E+03  0.10613583594E+04  0.00000000000E+00 0.  1.
         22    1    1    2    0    0  0.15167161180E+04 -0.10173737001E+04  0.12272095463E+04  0.22003454954E+04  0.00000000000E+00 0.  1.
<mgrwt>
<rscale>  0 0.36760291E+04</rscale>
<asrwt>0</asrwt>
<pdfrwt beam="1">  1        2 0.59064087E+00 0.36760291E+04</pdfrwt>
<pdfrwt beam="2">  1       -2 0.13537787E+00 0.36760291E+04</pdfrwt>
<totfact> 0.14504679E-01</totfact>
</mgrwt>
</event>
<event>
 6    1  0.8968082E-007  0.1982187E+04  0.7818608E-02  0.8614995E-01
          2   -1    0    0  501    0  0.00000000000E+00  0.00000000000E+00  0.30683439133E+04  0.30683439133E+04  0.00000000000E+00 0. -1.
         -2   -1    0    0    0  501 -0.00000000000E+00 -0.00000000000E+00 -0.32012900938E+03  0.32012900938E+03  0.00000000000E+00 0.  1.
         23    2    1    2    0    0  0.93930021573E+03 -0.22701800618E+03  0.17365994835E+04  0.19894776299E+04  0.91768204276E+02 0.  0.
         13    1    3    3    0    0  0.60012206623E+03 -0.17545726757E+03  0.10535902165E+04  0.12251465591E+04  0.00000000000E+00 0. -1.
        -13    1    3    3    0    0  0.33917814950E+03 -0.51560738610E+02  0.68300926700E+03  0.76433107072E+03  0.00000000000E+00 0.  1.
         22    1    1    2    0    0 -0.93930021573E+03  0.22701800618E+03  0.10116154204E+04  0.13989952928E+04  0.00000000000E+00 0.  1.
<mgrwt>
<rscale>  0 0.19821866E+04</rscale>
<asrwt>0</asrwt>
<pdfrwt beam="1">  1        2 0.47205289E+00 0.19821866E+04</pdfrwt>
<pdfrwt beam="2">  1       -2 0.49250619E-01 0.19821866E+04</pdfrwt>
<totfact> 0.57406304E+00</totfact>
</mgrwt>
</event>
<event>
 6    1  0.1020295E-006  0.3668684E+04  0.7818608E-02  0.8074938E-01
         -2   -1    0    0    0  501 -0.00000000000E+00  0.00000000000E+00  0.10567605627E+04  0.10567605627E+04  0.00000000000E+00 0.  1.
          2   -1    0    0  501    0  0.00000000000E+00 -0.00000000000E+00 -0.31840798254E+04  0.31840798254E+04  0.00000000000E+00 0. -1.
         23    2    1    2    0    0  0.38798382042E+03  0.76773395258E+03 -0.29357209208E+04  0.30603912754E+04  0.87123859538E+02 0.  0.
         11    1    3    3    0    0  0.19831116193E+03  0.39375559057E+03 -0.13501249120E+04  0.14202844997E+04  0.00000000000E+00 0.  1.
        -11    1    3    3    0    0  0.18967265849E+03  0.37397836201E+03 -0.15855960088E+04  0.16401067757E+04  0.00000000000E+00 0. -1.
         22    1    1    2    0    0 -0.38798382042E+03 -0.76773395258E+03  0.80840165807E+03  0.11804491127E+04  0.00000000000E+00 0.  1.
<mgrwt>
<rscale>  0 0.36686837E+04</rscale>
<asrwt>0</asrwt>
<pdfrwt beam="1">  1        2 0.48985843E+00 0.36686837E+04</pdfrwt>
<pdfrwt beam="2">  1       -2 0.16257855E+00 0.36686837E+04</pdfrwt>
<totfact> 0.25928140E-01</totfact>
</mgrwt>
</event>
<event>
 6    1  0.8968082E-007  0.3368720E+04  0.7818608E-02  0.8145626E-01
          1   -1    0    0  501    0  0.00000000000E+00  0.00000000000E+00  0.60664031076E+03  0.60664031076E+03  0.00000000000E+00 0. -1.
         -1   -1    0    0    0  501 -0.00000000000E+00 -0.00000000000E+00 -0.46766893913E+04  0.46766893913E+04  0.00000000000E+00 0.  1.
         23    2    1    2    0    0 -0.12587869966E+04  0.63432140899E+03 -0.34789934408E+04  0.37548483898E+04  0.92642953792E+02 0.  0.
         11    1    3    3    0    0 -0.10840636010E+04  0.53078615355E+03 -0.28951737270E+04  0.31367114533E+04  0.00000000000E+00 0. -1.
        -11    1    3    3    0    0 -0.17472339560E+03  0.10353525544E+03 -0.58381971380E+03  0.61813693653E+03  0.00000000000E+00 0.  1.
         22    1    1    2    0    0  0.12587869966E+04 -0.63432140899E+03 -0.59105563975E+03  0.15284813122E+04  0.00000000000E+00 0. -1.
<mgrwt>
<rscale>  0 0.33687198E+04</rscale>
<asrwt>0</asrwt>
<pdfrwt beam="1">  1        1 0.93329281E-01 0.33687198E+04</pdfrwt>
<pdfrwt beam="2">  1       -1 0.71949066E+00 0.33687198E+04</pdfrwt>
<totfact> 0.47119894E-03</totfact>
</mgrwt>
</event>
<event>
 6    1  0.8968082E-007  0.3752610E+04  0.7818608E-02  0.8056402E-01
          2   -1    0    0  501    0  0.00000000000E+00  0.00000000000E+00  0.20704144820E+04  0.20704144820E+04  0.00000000000E+00 0. -1.
         -2   -1    0    0    0  501 -0.00000000000E+00 -0.00000000000E+00 -0.17003939668E+04  0.17003939668E+04  0.00000000000E+00 0.  1.
         23    2    1    2    0    0 -0.16033954371E+03  0.17116374495E+04 -0.56736461334E+03  0.18127220342E+04  0.92989467869E+02 0.  0.
         11    1    3    3    0    0 -0.21385801190E+02  0.51357625694E+03 -0.13476280784E+03  0.53139339341E+03  0.00000000000E+00 0.  1.
        -11    1    3    3    0    0 -0.13895374252E+03  0.11980611925E+04 -0.43260180550E+03  0.12813286408E+04  0.00000000000E+00 0. -1.
         22    1    1    2    0    0  0.16033954371E+03 -0.17116374495E+04  0.93738512862E+03  0.19580864146E+04  0.00000000000E+00 0. -1.
<mgrwt>
<rscale>  0 0.37526099E+04</rscale>
<asrwt>0</asrwt>
<pdfrwt beam="1">  1        2 0.31852530E+00 0.37526099E+04</pdfrwt>
<pdfrwt beam="2">  1       -2 0.26159907E+00 0.37526099E+04</pdfrwt>
<totfact> 0.26803128E-01</totfact>
</mgrwt>
</event>
<event>
 6    1  0.8968082E-007  0.2656704E+04  0.7818608E-02  0.8349191E-01
         -2   -1    0    0    0  501 -0.00000000000E+00  0.00000000000E+00  0.10899287337E+04  0.10899287337E+04  0.00000000000E+00 0.  1.
          2   -1    0    0  501    0  0.00000000000E+00 -0.00000000000E+00 -0.16189305146E+04  0.16189305146E+04  0.00000000000E+00 0. -1.
         23    2    1    2    0    0 -0.37389353098E+03  0.82041920684E+03  0.72766508726E+03  0.11622191270E+04  0.91502854466E+02 0.  0.
         11    1    3    3    0    0 -0.28145483470E+03  0.62093824774E+03  0.59877520004E+03  0.90736589735E+03  0.00000000000E+00 0. -1.
        -11    1    3    3    0    0 -0.92438696282E+02  0.19948095910E+03  0.12888988722E+03  0.25485322961E+03  0.00000000000E+00 0.  1.
         22    1    1    2    0    0  0.37389353098E+03 -0.82041920684E+03 -0.12566668681E+04  0.15466401213E+04  0.00000000000E+00 0. -1.
<mgrwt>
<rscale>  0 0.26567039E+04</rscale>
<asrwt>0</asrwt>
<pdfrwt beam="1">  1        2 0.24906623E+00 0.26567039E+04</pdfrwt>
<pdfrwt beam="2">  1       -2 0.16768134E+00 0.26567039E+04</pdfrwt>
<totfact> 0.21220414E+00</totfact>
</mgrwt>
</event>
<event>
 6    1  0.8968082E-007  0.1493415E+04  0.7818608E-02  0.8888844E-01
          1   -1    0    0  501    0  0.00000000000E+00  0.00000000000E+00  0.33135727961E+03  0.33135727961E+03  0.00000000000E+00 0. -1.
         -1   -1    0    0    0  501 -0.00000000000E+00 -0.00000000000E+00 -0.16826921575E+04  0.16826921575E+04  0.00000000000E+00 0.  1.
         23    2    1    2    0    0  0.86159138653E+02 -0.73513725570E+03 -0.77783187893E+03  0.10776970079E+04  0.92510686197E+02 0.  0.
         11    1    3    3    0    0  0.21958946676E+02 -0.24950428176E+03 -0.32746205586E+03  0.41226930517E+03  0.00000000000E+00 0. -1.
        -11    1    3    3    0    0  0.64200191977E+02 -0.48563297394E+03 -0.45036982307E+03  0.66542770272E+03  0.00000000000E+00 0.  1.
         22    1    1    2    0    0 -0.86159138653E+02  0.73513725570E+03 -0.57350299896E+03  0.93635242922E+03  0.00000000000E+00 0. -1.
<mgrwt>
<rscale>  0 0.14934153E+04</rscale>
<asrwt>0</asrwt>
<pdfrwt beam="1">  1        1 0.50978043E-01 0.14934153E+04</pdfrwt>
<pdfrwt beam="2">  1       -1 0.25887572E+00 0.14934153E+04</pdfrwt>
<totfact> 0.45499502E+00</totfact>
</mgrwt>
</event>
<event>
 6    1  0.8968082E-007  0.3981745E+04  0.7818608E-02  0.8008239E-01
         -1   -1    0    0    0  501 -0.00000000000E+00  0.00000000000E+00  0.15202794880E+04  0.15202794880E+04  0.00000000000E+00 0.  1.
          1   -1    0    0  501    0  0.00000000000E+00 -0.00000000000E+00 -0.26071342063E+04  0.26071342063E+04  0.00000000000E+00 0. -1.
         23    2    1    2    0    0 -0.28061014110E+03  0.18723839693E+04 -0.11775567100E+04  0.22319478859E+04  0.10192046204E+03 0.  0.
         13    1    3    3    0    0 -0.10232136436E+03  0.63289840675E+03 -0.34315545562E+03  0.72717654087E+03  0.00000000000E+00 0.  1.
        -13    1    3    3    0    0 -0.17828877674E+03  0.12394855625E+04 -0.83440125437E+03  0.15047713451E+04  0.00000000000E+00 0. -1.
         22    1    1    2    0    0  0.28061014110E+03 -0.18723839693E+04  0.90701991685E+02  0.18954658084E+04  0.00000000000E+00 0.  1.
<mgrwt>
<rscale>  0 0.39817447E+04</rscale>
<asrwt>0</asrwt>
<pdfrwt beam="1">  1        1 0.40109757E+00 0.39817447E+04</pdfrwt>
<pdfrwt beam="2">  1       -1 0.23388915E+00 0.39817447E+04</pdfrwt>
<totfact> 0.79526414E-02</totfact>
</mgrwt>
</event>
<event>
 6    1  0.8968082E-007  0.1685232E+04  0.7818608E-02  0.8769832E-01
         -2   -1    0    0    0  501 -0.00000000000E+00  0.00000000000E+00  0.20079113716E+03  0.20079113716E+03  0.00000000000E+00 0.  1.
          2   -1    0    0  501    0  0.00000000000E+00 -0.00000000000E+00 -0.35360203797E+04  0.35360203797E+04  0.00000000000E+00 0. -1.
         23    2    1    2    0    0  0.41987058682E+03 -0.69194770483E+03 -0.21704138078E+04  0.23184046877E+04  0.96027408041E+02 0.  0.
         11    1    3    3    0    0  0.24441644602E+03 -0.46155522820E+03 -0.12957967707E+04  0.13970905120E+04  0.00000000000E+00 0. -1.
        -11    1    3    3    0    0  0.17545414080E+03 -0.23039247664E+03 -0.87461703712E+03  0.92131417575E+03  0.00000000000E+00 0.  1.
         22    1    1    2    0    0 -0.41987058682E+03  0.69194770483E+03 -0.11648154348E+04  0.14184068292E+04  0.00000000000E+00 0.  1.
<mgrwt>
<rscale>  0 0.16852318E+04</rscale>
<asrwt>0</asrwt>
<pdfrwt beam="1">  1        2 0.54400313E+00 0.16852318E+04</pdfrwt>
<pdfrwt beam="2">  1       -2 0.30890944E-01 0.16852318E+04</pdfrwt>
<totfact> 0.71681685E+00</totfact>
</mgrwt>
</event>
<event>
 6    1  0.8968082E-007  0.5276927E+04  0.7818608E-02  0.7787153E-01
          2   -1    0    0  501    0  0.00000000000E+00  0.00000000000E+00  0.34302091690E+04  0.34302091690E+04  0.00000000000E+00 0. -1.
         -2   -1    0    0    0  501 -0.00000000000E+00 -0.00000000000E+00 -0.20294648363E+04  0.20294648363E+04  0.00000000000E+00 0.  1.
         23    2    1    2    0    0  0.21016371487E+04 -0.36220593150E+03  0.23065051334E+04  0.31426771410E+04  0.91552393763E+02 0.  0.
         11    1    3    3    0    0  0.97542471715E+03 -0.13578032939E+03  0.10166180722E+04  0.14154158334E+04  0.00000000000E+00 0. -1.
        -11    1    3    3    0    0  0.11262124315E+04 -0.22642560211E+03  0.12898870611E+04  0.17272613076E+04  0.00000000000E+00 0.  1.
         22    1    1    2    0    0 -0.21016371487E+04  0.36220593150E+03 -0.90576080068E+03  0.23169968644E+04  0.00000000000E+00 0.  1.
<mgrwt>
<rscale>  0 0.52769267E+04</rscale>
<asrwt>0</asrwt>
<pdfrwt beam="1">  1        2 0.52772449E+00 0.52769267E+04</pdfrwt>
<pdfrwt beam="2">  1       -2 0.31222536E+00 0.52769267E+04</pdfrwt>
<totfact> 0.17280822E-02</totfact>
</mgrwt>
</event>
<event>
 6    1  0.8968082E-007  0.1316844E+04  0.7818608E-02  0.9016313E-01
         -1   -1    0    0    0  501 -0.00000000000E+00  0.00000000000E+00  0.21231269752E+03  0.21231269752E+03  0.00000000000E+00 0.  1.
          1   -1    0    0  501    0  0.00000000000E+00 -0.00000000000E+00 -0.20418932150E+04  0.20418932150E+04  0.00000000000E+00 0. -1.
         23    2    1    2    0    0 -0.14374475243E+03 -0.63656966273E+03 -0.10199545271E+04  0.12143127768E+04  0.91459243810E+02 0.  0.
         13    1    3    3    0    0 -0.13070591361E+03 -0.58694974535E+03 -0.97782718696E+03  0.11479285897E+04  0.00000000000E+00 0.  1.
        -13    1    3    3    0    0 -0.13038838817E+02 -0.49619917379E+02 -0.42127340129E+02  0.66384187159E+02  0.00000000000E+00 0. -1.
         22    1    1    2    0    0  0.14374475243E+03  0.63656966273E+03 -0.80962599041E+03  0.10398931357E+04  0.00000000000E+00 0.  1.
<mgrwt>
<rscale>  0 0.13168445E+04</rscale>
<asrwt>0</asrwt>
<pdfrwt beam="1">  1        1 0.31413742E+00 0.13168445E+04</pdfrwt>
<pdfrwt beam="2">  1       -1 0.32663491E-01 0.13168445E+04</pdfrwt>
<totfact> 0.24078952E+01</totfact>
</mgrwt>
</event>
<event>
 6    1  0.8968082E-007  0.1614077E+04  0.7818608E-02  0.8811946E-01
          2   -1    0    0  501    0  0.00000000000E+00  0.00000000000E+00  0.21660058644E+04  0.21660058644E+04  0.00000000000E+00 0. -1.
         -2   -1    0    0    0  501 -0.00000000000E+00 -0.00000000000E+00 -0.30069688676E+03  0.30069688676E+03  0.00000000000E+00 0.  1.
         23    2    1    2    0    0  0.69911441847E+03 -0.15625999023E+03  0.14956272044E+04  0.16605744933E+04  0.86190246606E+02 0.  0.
         11    1    3    3    0    0  0.29817576881E+03 -0.31355767138E+02  0.68088328114E+03  0.74397178426E+03  0.00000000000E+00 0. -1.
        -11    1    3    3    0    0  0.40093864966E+03 -0.12490422310E+03  0.81474392325E+03  0.91660270903E+03  0.00000000000E+00 0.  1.
         22    1    1    2    0    0 -0.69911441847E+03  0.15625999023E+03  0.36968177326E+03  0.80612825787E+03  0.00000000000E+00 0.  1.
<mgrwt>
<rscale>  0 0.16140771E+04</rscale>
<asrwt>0</asrwt>
<pdfrwt beam="1">  1        2 0.33323166E+00 0.16140771E+04</pdfrwt>
<pdfrwt beam="2">  1       -2 0.46261061E-01 0.16140771E+04</pdfrwt>
<totfact> 0.22914679E+01</totfact>
</mgrwt>
</event>
<event>
 6    1  0.8968082E-007  0.2042415E+04  0.7818608E-02  0.8587043E-01
         -2   -1    0    0    0  501 -0.00000000000E+00  0.00000000000E+00  0.71097473779E+03  0.71097473779E+03  0.00000000000E+00 0.  1.
          2   -1    0    0  501    0  0.00000000000E+00 -0.00000000000E+00 -0.14668104313E+04  0.14668104313E+04  0.00000000000E+00 0. -1.
         23    2    1    2    0    0  0.67683832776E+03 -0.23475069448E+03  0.39464898927E+03  0.82248704108E+03  0.86712729835E+02 0.  0.
         11    1    3    3    0    0  0.32634137757E+03 -0.15291030183E+03  0.17270929311E+03  0.39963577799E+03  0.00000000000E+00 0. -1.
        -11    1    3    3    0    0  0.35049695019E+03 -0.81840392653E+02  0.22193969616E+03  0.42285126309E+03  0.00000000000E+00 0.  1.
         22    1    1    2    0    0 -0.67683832776E+03  0.23475069448E+03 -0.11504846827E+04  0.13552981280E+04  0.00000000000E+00 0. -1.
<mgrwt>
<rscale>  0 0.20424154E+04</rscale>
<asrwt>0</asrwt>
<pdfrwt beam="1">  1        2 0.22566314E+00 0.20424154E+04</pdfrwt>
<pdfrwt beam="2">  1       -2 0.10938073E+00 0.20424154E+04</pdfrwt>
<totfact> 0.81757140E+00</totfact>
</mgrwt>
</event>
<event>
 6    1  0.8968082E-007  0.2094034E+04  0.7818608E-02  0.8563876E-01
          1   -1    0    0  501    0  0.00000000000E+00  0.00000000000E+00  0.43011488693E+04  0.43011488693E+04  0.00000000000E+00 0. -1.
         -1   -1    0    0    0  501 -0.00000000000E+00 -0.00000000000E+00 -0.25487260097E+03  0.25487260097E+03  0.00000000000E+00 0.  1.
         23    2    1    2    0    0 -0.63815005444E+03 -0.14421231281E+03  0.38000304157E+04  0.38569723281E+04  0.89284357578E+02 0.  0.
         11    1    3    3    0    0 -0.56079588414E+03 -0.13408153851E+03  0.31567048787E+04  0.32089337129E+04  0.00000000000E+00 0. -1.
        -11    1    3    3    0    0 -0.77354170298E+02 -0.10130774309E+02  0.64332553702E+03  0.64803861523E+03  0.00000000000E+00 0.  1.
         22    1    1    2    0    0  0.63815005444E+03  0.14421231281E+03  0.24624585258E+03  0.69904914209E+03  0.00000000000E+00 0.  1.
<mgrwt>
<rscale>  0 0.20940344E+04</rscale>
<asrwt>0</asrwt>
<pdfrwt beam="1">  1        1 0.66171516E+00 0.20940344E+04</pdfrwt>
<pdfrwt beam="2">  1       -1 0.39211172E-01 0.20940344E+04</pdfrwt>
<totfact> 0.29784821E-01</totfact>
</mgrwt>
</event>
<event>
 6    1  0.8968082E-007  0.2524409E+04  0.7818608E-02  0.8394341E-01
          1   -1    0    0  501    0  0.00000000000E+00  0.00000000000E+00  0.35561009189E+04  0.35561009189E+04  0.00000000000E+00 0. -1.
         -1   -1    0    0    0  501 -0.00000000000E+00 -0.00000000000E+00 -0.44800742620E+03  0.44800742620E+03  0.00000000000E+00 0.  1.
         23    2    1    2    0    0  0.31336681669E+03 -0.11409989372E+04  0.22456310211E+04  0.25398956380E+04  0.90187763153E+02 0.  0.
         13    1    3    3    0    0  0.89364374000E+02 -0.39242905643E+03  0.68198366262E+03  0.79188905268E+03  0.00000000000E+00 0.  1.
        -13    1    3    3    0    0  0.22400244269E+03 -0.74856988081E+03  0.15636473585E+04  0.17480065854E+04  0.00000000000E+00 0. -1.
         22    1    1    2    0    0 -0.31336681669E+03  0.11409989372E+04  0.86246247162E+03  0.14642127071E+04  0.00000000000E+00 0.  1.
<mgrwt>
<rscale>  0 0.25244085E+04</rscale>
<asrwt>0</asrwt>
<pdfrwt beam="1">  1        1 0.54709243E+00 0.25244085E+04</pdfrwt>
<pdfrwt beam="2">  1       -1 0.68924222E-01 0.25244085E+04</pdfrwt>
<totfact> 0.42630444E-01</totfact>
</mgrwt>
</event>
<event>
 6    1  0.8968082E-007  0.2254418E+04  0.7818608E-02  0.8496113E-01
         -2   -1    0    0    0  501 -0.00000000000E+00  0.00000000000E+00  0.94071478188E+03  0.94071478188E+03  0.00000000000E+00 0.  1.
          2   -1    0    0  501    0  0.00000000000E+00 -0.00000000000E+00 -0.13506756901E+04  0.13506756901E+04  0.00000000000E+00 0. -1.
         23    2    1    2    0    0 -0.69875657477E+02  0.34809966263E+03 -0.12907482424E+04  0.13417366874E+04  0.90389879352E+02 0.  0.
         11    1    3    3    0    0 -0.31497038303E+02  0.83189997431E+02 -0.20477414154E+03  0.22326013558E+03  0.00000000000E+00 0.  1.
        -11    1    3    3    0    0 -0.38378619174E+02  0.26490966520E+03 -0.10859741009E+04  0.11184765518E+04  0.00000000000E+00 0. -1.
         22    1    1    2    0    0  0.69875657477E+02 -0.34809966263E+03  0.88078733418E+03  0.94965378464E+03  0.00000000000E+00 0.  1.
<mgrwt>
<rscale>  0 0.22544184E+04</rscale>
<asrwt>0</asrwt>
<pdfrwt beam="1">  1        2 0.20779626E+00 0.22544184E+04</pdfrwt>
<pdfrwt beam="2">  1       -2 0.14472535E+00 0.22544184E+04</pdfrwt>
<totfact> 0.46300583E+00</totfact>
</mgrwt>
</event>
<event>
 6    1  0.8968082E-007  0.3053236E+04  0.7818608E-02  0.8228690E-01
         -1   -1    0    0    0  501 -0.00000000000E+00  0.00000000000E+00  0.14686873470E+04  0.14686873470E+04  0.00000000000E+00 0.  1.
          1   -1    0    0  501    0  0.00000000000E+00 -0.00000000000E+00 -0.15868338677E+04  0.15868338677E+04  0.00000000000E+00 0. -1.
         23    2    1    2    0    0  0.56739965494E+03  0.12296516394E+04  0.64327512039E+03  0.15018969234E+04  0.88915496112E+02 0.  0.
         11    1    3    3    0    0  0.19067367818E+03  0.49874625014E+03  0.22617683281E+03  0.57987949893E+03  0.00000000000E+00 0. -1.
        -11    1    3    3    0    0  0.37672597676E+03  0.73090538925E+03  0.41709828758E+03  0.92201742451E+03  0.00000000000E+00 0.  1.
         22    1    1    2    0    0 -0.56739965494E+03 -0.12296516394E+04 -0.76142164115E+03  0.15536242912E+04  0.00000000000E+00 0. -1.
<mgrwt>
<rscale>  0 0.30532362E+04</rscale>
<asrwt>0</asrwt>
<pdfrwt beam="1">  1        1 0.24412829E+00 0.30532362E+04</pdfrwt>
<pdfrwt beam="2">  1       -1 0.22595190E+00 0.30532362E+04</pdfrwt>
<totfact> 0.48477057E-01</totfact>
</mgrwt>
</event>
<event>
 6    1  0.8968082E-007  0.3291569E+04  0.7818608E-02  0.8165044E-01
         -1   -1    0    0    0  501 -0.00000000000E+00  0.00000000000E+00  0.10192637151E+04  0.10192637151E+04  0.00000000000E+00 0.  1.
          1   -1    0    0  501    0  0.00000000000E+00 -0.00000000000E+00 -0.26574156302E+04  0.26574156302E+04  0.00000000000E+00 0. -1.
         23    2    1    2    0    0 -0.36634177709E+03 -0.12100457461E+04 -0.19944054387E+04  0.23631598066E+04  0.91946791387E+02 0.  0.
         13    1    3    3    0    0 -0.10411364590E+03 -0.31245328450E+03 -0.59519495191E+03  0.68023800029E+03  0.00000000000E+00 0.  1.
        -13    1    3    3    0    0 -0.26222813119E+03 -0.89759246160E+03 -0.13992104868E+04  0.16829218063E+04  0.00000000000E+00 0. -1.
         22    1    1    2    0    0  0.36634177709E+03  0.12100457461E+04  0.35625352363E+03  0.13135195386E+04  0.00000000000E+00 0.  1.
<mgrwt>
<rscale>  0 0.32915694E+04</rscale>
<asrwt>0</asrwt>
<pdfrwt beam="1">  1        1 0.40883317E+00 0.32915694E+04</pdfrwt>
<pdfrwt beam="2">  1       -1 0.15680980E+00 0.32915694E+04</pdfrwt>
<totfact> 0.26971892E-01</totfact>
</mgrwt>
</event>
<event>
 6    1  0.8968082E-007  0.2304555E+04  0.7818608E-02  0.8476127E-01
         -1   -1    0    0    0  501 -0.00000000000E+00  0.00000000000E+00  0.81118157871E+03  0.81118157871E+03  0.00000000000E+00 0.  1.
          1   -1    0    0  501    0  0.00000000000E+00 -0.00000000000E+00 -0.16368014369E+04  0.16368014369E+04  0.00000000000E+00 0. -1.
         23    2    1    2    0    0 -0.51383047961E+03 -0.84496215818E+03  0.21107134329E+03  0.10152543400E+04  0.90594991308E+02 0.  0.
         11    1    3    3    0    0 -0.20482643262E+03 -0.25760550900E+03  0.58654586629E+02  0.33429751166E+03  0.00000000000E+00 0. -1.
        -11    1    3    3    0    0 -0.30900404700E+03 -0.58735664918E+03  0.15241675667E+03  0.68095682838E+03  0.00000000000E+00 0.  1.
         22    1    1    2    0    0  0.51383047961E+03  0.84496215818E+03 -0.10366912015E+04  0.14327286755E+04  0.00000000000E+00 0.  1.
<mgrwt>
<rscale>  0 0.23045548E+04</rscale>
<asrwt>0</asrwt>
<pdfrwt beam="1">  1        1 0.25181560E+00 0.23045548E+04</pdfrwt>
<pdfrwt beam="2">  1       -1 0.12479717E+00 0.23045548E+04</pdfrwt>
<totfact> 0.26728101E+00</totfact>
</mgrwt>
</event>
<event>
 6    1  0.8968082E-007  0.2848056E+04  0.7818608E-02  0.8288502E-01
         -2   -1    0    0    0  501 -0.00000000000E+00  0.00000000000E+00  0.10201305947E+04  0.10201305947E+04  0.00000000000E+00 0.  1.
          2   -1    0    0  501    0  0.00000000000E+00 -0.00000000000E+00 -0.19878388693E+04  0.19878388693E+04  0.00000000000E+00 0. -1.
         23    2    1    2    0    0  0.10699482811E+04 -0.92866685310E+03 -0.34728595717E+03  0.14613165294E+04  0.87332781328E+02 0.  0.
         13    1    3    3    0    0  0.52637881585E+03 -0.45805558531E+03 -0.21599283630E+03  0.73043992384E+03  0.00000000000E+00 0. -1.
        -13    1    3    3    0    0  0.54356946528E+03 -0.47061126779E+03 -0.13129312087E+03  0.73087660555E+03  0.00000000000E+00 0.  1.
         22    1    1    2    0    0 -0.10699482811E+04  0.92866685310E+03 -0.62042231746E+03  0.15466529347E+04  0.00000000000E+00 0. -1.
<mgrwt>
<rscale>  0 0.28480557E+04</rscale>
<asrwt>0</asrwt>
<pdfrwt beam="1">  1        2 0.30582136E+00 0.28480557E+04</pdfrwt>
<pdfrwt beam="2">  1       -2 0.15694317E+00 0.28480557E+04</pdfrwt>
<totfact> 0.15614203E+00</totfact>
</mgrwt>
</event>
<event>
 6    1  0.8968082E-007  0.3023039E+04  0.7818608E-02  0.8237182E-01
          1   -1    0    0  501    0  0.00000000000E+00  0.00000000000E+00  0.18292306517E+04  0.18292306517E+04  0.00000000000E+00 0. -1.
         -1   -1    0    0    0  501 -0.00000000000E+00 -0.00000000000E+00 -0.12489903149E+04  0.12489903149E+04  0.00000000000E+00 0.  1.
         23    2    1    2    0    0  0.81660697149E+03  0.63560488095E+01  0.15838574583E+04  0.17843374046E+04  0.91477755370E+02 0.  0.
         11    1    3    3    0    0  0.54246908534E+03 -0.36119576742E+02  0.10821480662E+04  0.12110416052E+04  0.00000000000E+00 0. -1.
        -11    1    3    3    0    0  0.27413788614E+03  0.42475625552E+02  0.50170939218E+03  0.57329579938E+03  0.00000000000E+00 0.  1.
         22    1    1    2    0    0 -0.81660697149E+03 -0.63560488095E+01 -0.10036171216E+04  0.12938835620E+04  0.00000000000E+00 0.  1.
<mgrwt>
<rscale>  0 0.30230391E+04</rscale>
<asrwt>0</asrwt>
<pdfrwt beam="1">  1        1 0.28142010E+00 0.30230391E+04</pdfrwt>
<pdfrwt beam="2">  1       -1 0.19215236E+00 0.30230391E+04</pdfrwt>
<totfact> 0.56418177E-01</totfact>
</mgrwt>
</event>
<event>
 6    1  0.8968082E-007  0.2646456E+04  0.7818608E-02  0.8352590E-01
          2   -1    0    0  501    0  0.00000000000E+00  0.00000000000E+00  0.15307415340E+04  0.15307415340E+04  0.00000000000E+00 0. -1.
         -2   -1    0    0    0  501 -0.00000000000E+00 -0.00000000000E+00 -0.11438460000E+04  0.11438460000E+04  0.00000000000E+00 0.  1.
         23    2    1    2    0    0  0.57382910284E+03  0.75439507862E+03 -0.73705300817E+03  0.12043317402E+04  0.93680465585E+02 0.  0.
         13    1    3    3    0    0  0.25924077898E+03  0.32222950635E+03 -0.26493455826E+03  0.49114962731E+03  0.00000000000E+00 0.  1.
        -13    1    3    3    0    0  0.31458832386E+03  0.43216557228E+03 -0.47211844991E+03  0.71318211287E+03  0.00000000000E+00 0. -1.
         22    1    1    2    0    0 -0.57382910284E+03 -0.75439507862E+03  0.11239485422E+04  0.14702557939E+04  0.00000000000E+00 0. -1.
<mgrwt>
<rscale>  0 0.26464562E+04</rscale>
<asrwt>0</asrwt>
<pdfrwt beam="1">  1        2 0.23549870E+00 0.26464562E+04</pdfrwt>
<pdfrwt beam="2">  1       -2 0.17597631E+00 0.26464562E+04</pdfrwt>
<totfact> 0.20789266E+00</totfact>
</mgrwt>
</event>
<event>
 6    1  0.8968082E-007  0.3565049E+04  0.7818608E-02  0.8098545E-01
          2   -1    0    0  501    0  0.00000000000E+00  0.00000000000E+00  0.22562968321E+04  0.22562968321E+04  0.00000000000E+00 0. -1.
         -2   -1    0    0    0  501 -0.00000000000E+00 -0.00000000000E+00 -0.14082337779E+04  0.14082337779E+04  0.00000000000E+00 0.  1.
         23    2    1    2    0    0 -0.59152482465E+01  0.36609212345E+03  0.22162788427E+04  0.22481715887E+04  0.91242262435E+02 0.  0.
         11    1    3    3    0    0 -0.41359828705E+02  0.25862646174E+03  0.14293509196E+04  0.14531491091E+04  0.00000000000E+00 0. -1.
        -11    1    3    3    0    0  0.35444580459E+02  0.10746566171E+03  0.78692792319E+03  0.79502247957E+03  0.00000000000E+00 0.  1.
         22    1    1    2    0    0  0.59152482465E+01 -0.36609212345E+03 -0.13682157885E+04  0.14163590212E+04  0.00000000000E+00 0.  1.
<mgrwt>
<rscale>  0 0.35650489E+04</rscale>
<asrwt>0</asrwt>
<pdfrwt beam="1">  1        2 0.34712259E+00 0.35650489E+04</pdfrwt>
<pdfrwt beam="2">  1       -2 0.21665135E+00 0.35650489E+04</pdfrwt>
<totfact> 0.40722195E-01</totfact>
</mgrwt>
</event>
<event>
 6    1  0.8968082E-007  0.2474549E+04  0.7818608E-02  0.8412109E-01
         -1   -1    0    0    0  501 -0.00000000000E+00  0.00000000000E+00  0.65163877111E+03  0.65163877111E+03  0.00000000000E+00 0.  1.
          1   -1    0    0  501    0  0.00000000000E+00 -0.00000000000E+00 -0.23492279711E+04  0.23492279711E+04  0.00000000000E+00 0. -1.
         23    2    1    2    0    0  0.11983654707E+04  0.30117439792E+03 -0.86597000206E+03  0.15114452741E+04  0.88187032338E+02 0.  0.
         13    1    3    3    0    0  0.16446893443E+03  0.69977696453E+02 -0.14194178492E+03  0.22824193020E+03  0.00000000000E+00 0.  1.
        -13    1    3    3    0    0  0.10338965363E+04  0.23119670147E+03 -0.72402821714E+03  0.12832033439E+04  0.00000000000E+00 0. -1.
         22    1    1    2    0    0 -0.11983654707E+04 -0.30117439792E+03 -0.83161919791E+03  0.14894214681E+04  0.00000000000E+00 0. -1.
<mgrwt>
<rscale>  0 0.24745489E+04</rscale>
<asrwt>0</asrwt>
<pdfrwt beam="1">  1        1 0.36141969E+00 0.24745489E+04</pdfrwt>
<pdfrwt beam="2">  1       -1 0.10025212E+00 0.24745489E+04</pdfrwt>
<totfact> 0.14523549E+00</totfact>
</mgrwt>
</event>
<event>
 6    1  0.8968082E-007  0.2150223E+04  0.7818608E-02  0.8539437E-01
         -2   -1    0    0    0  501 -0.00000000000E+00  0.00000000000E+00  0.10245308218E+04  0.10245308218E+04  0.00000000000E+00 0.  1.
          2   -1    0    0  501    0  0.00000000000E+00 -0.00000000000E+00 -0.11281893431E+04  0.11281893431E+04  0.00000000000E+00 0. -1.
         23    2    1    2    0    0  0.71098452169E+03  0.67990404927E+03 -0.48110990661E+03  0.10990418200E+04  0.93046620260E+02 0.  0.
         11    1    3    3    0    0  0.52436642110E+03  0.46318050831E+03 -0.30549379189E+03  0.76342830950E+03  0.00000000000E+00 0. -1.
        -11    1    3    3    0    0  0.18661810059E+03  0.21672354096E+03 -0.17561611472E+03  0.33561351049E+03  0.00000000000E+00 0.  1.
         22    1    1    2    0    0 -0.71098452169E+03 -0.67990404927E+03  0.37745138530E+03  0.10536783449E+04  0.00000000000E+00 0.  1.
<mgrwt>
<rscale>  0 0.21502230E+04</rscale>
<asrwt>0</asrwt>
<pdfrwt beam="1">  1        2 0.17356759E+00 0.21502230E+04</pdfrwt>
<pdfrwt beam="2">  1       -2 0.15762013E+00 0.21502230E+04</pdfrwt>
<totfact> 0.50406964E+00</totfact>
</mgrwt>
</event>
<event>
 6    1  0.8968082E-007  0.8469829E+03  0.7818608E-02  0.9494395E-01
         -2   -1    0    0    0  501 -0.00000000000E+00  0.00000000000E+00  0.20948792549E+03  0.20948792549E+03  0.00000000000E+00 0.  1.
          2   -1    0    0  501    0  0.00000000000E+00 -0.00000000000E+00 -0.85611143257E+03  0.85611143257E+03  0.00000000000E+00 0. -1.
         23    2    1    2    0    0 -0.19797291502E+03 -0.15646664770E+03  0.92787282663E+02  0.28431618090E+03  0.92472287590E+02 0.  0.
         13    1    3    3    0    0 -0.16577065529E+03 -0.15554978346E+03  0.10429639010E+03  0.25010674177E+03  0.00000000000E+00 0. -1.
        -13    1    3    3    0    0 -0.32202259727E+02 -0.91686423895E+00 -0.11509107433E+02  0.34209439128E+02  0.00000000000E+00 0.  1.
         22    1    1    2    0    0  0.19797291502E+03  0.15646664770E+03 -0.73941078974E+03  0.78128317716E+03  0.00000000000E+00 0. -1.
<mgrwt>
<rscale>  0 0.84698290E+03</rscale>
<asrwt>0</asrwt>
<pdfrwt beam="1">  1        2 0.13170945E+00 0.84698290E+03</pdfrwt>
<pdfrwt beam="2">  1       -2 0.32228912E-01 0.84698290E+03</pdfrwt>
<totfact> 0.28259412E+02</totfact>
</mgrwt>
</event>
<event>
 6    1  0.8968082E-007  0.1854864E+04  0.7818608E-02  0.8677655E-01
          4   -1    0    0  501    0  0.00000000000E+00  0.00000000000E+00  0.46582691074E+03  0.46582691074E+03  0.00000000000E+00 0. -1.
         -4   -1    0    0    0  501 -0.00000000000E+00 -0.00000000000E+00 -0.18464590550E+04  0.18464590550E+04  0.00000000000E+00 0.  1.
         23    2    1    2    0    0 -0.65334562719E+02  0.83481908669E+03 -0.11823935369E+04  0.14517686457E+04  0.91576263122E+02 0.  0.
         13    1    3    3    0    0  0.97135166037E+01  0.25506315802E+03 -0.41241694639E+03  0.48501474684E+03  0.00000000000E+00 0. -1.
        -13    1    3    3    0    0 -0.75048079322E+02  0.57975592867E+03 -0.76997659049E+03  0.96675389885E+03  0.00000000000E+00 0.  1.
         22    1    1    2    0    0  0.65334562719E+02 -0.83481908669E+03 -0.19823860734E+03  0.86051732000E+03  0.00000000000E+00 0. -1.
<mgrwt>
<rscale>  0 0.18548642E+04</rscale>
<asrwt>0</asrwt>
<pdfrwt beam="1">  1        4 0.71665680E-01 0.18548642E+04</pdfrwt>
<pdfrwt beam="2">  1       -4 0.28407062E+00 0.18548642E+04</pdfrwt>
<totfact> 0.12997366E-01</totfact>
</mgrwt>
</event>
<event>
 6    1  0.8968082E-007  0.4677627E+04  0.7818608E-02  0.7880257E-01
         -2   -1    0    0    0  501 -0.00000000000E+00  0.00000000000E+00  0.10636311236E+04  0.10636311236E+04  0.00000000000E+00 0.  1.
          2   -1    0    0  501    0  0.00000000000E+00 -0.00000000000E+00 -0.51428067733E+04  0.51428067733E+04  0.00000000000E+00 0. -1.
         23    2    1    2    0    0  0.86547094371E+03  0.94645940201E+03 -0.46339430029E+04  0.48090860549E+04  0.95160785910E+02 0.  0.
         13    1    3    3    0    0  0.29068876487E+03  0.37038151269E+03 -0.18086522460E+04  0.18689316119E+04  0.00000000000E+00 0.  1.
        -13    1    3    3    0    0  0.57478217885E+03  0.57607788932E+03 -0.28252907569E+04  0.29401544430E+04  0.00000000000E+00 0. -1.
         22    1    1    2    0    0 -0.86547094371E+03 -0.94645940201E+03  0.55476735318E+03  0.13973518420E+04  0.00000000000E+00 0.  1.
<mgrwt>
<rscale>  0 0.46776273E+04</rscale>
<asrwt>0</asrwt>
<pdfrwt beam="1">  1        2 0.79120103E+00 0.46776273E+04</pdfrwt>
<pdfrwt beam="2">  1       -2 0.16363556E+00 0.46776273E+04</pdfrwt>
<totfact> 0.38582752E-03</totfact>
</mgrwt>
</event>
<event>
 6    1  0.8968082E-007  0.2901913E+04  0.7818608E-02  0.8272309E-01
          2   -1    0    0  501    0  0.00000000000E+00  0.00000000000E+00  0.10675172689E+04  0.10675172689E+04  0.00000000000E+00 0. -1.
         -2   -1    0    0    0  501 -0.00000000000E+00 -0.00000000000E+00 -0.19721220373E+04  0.19721220373E+04  0.00000000000E+00 0.  1.
         23    2    1    2    0    0  0.36700093040E+03  0.84185909069E+03 -0.16274643305E+04  0.18709039392E+04  0.90691736005E+02 0.  0.
         11    1    3    3    0    0  0.99916153504E+02  0.14779783638E+03 -0.34580404091E+03  0.38911164578E+03  0.00000000000E+00 0. -1.
        -11    1    3    3    0    0  0.26708477690E+03  0.69406125431E+03 -0.12816602896E+04  0.14817922934E+04  0.00000000000E+00 0.  1.
         22    1    1    2    0    0 -0.36700093040E+03 -0.84185909069E+03  0.72285956211E+03  0.11687353670E+04  0.00000000000E+00 0. -1.
<mgrwt>
<rscale>  0 0.29019127E+04</rscale>
<asrwt>0</asrwt>
<pdfrwt beam="1">  1        2 0.16423343E+00 0.29019127E+04</pdfrwt>
<pdfrwt beam="2">  1       -2 0.30340339E+00 0.29019127E+04</pdfrwt>
<totfact> 0.59659183E-01</totfact>
</mgrwt>
</event>
<event>
 6    1  0.8968082E-007  0.3762217E+04  0.7818608E-02  0.8054312E-01
         -1   -1    0    0    0  501 -0.00000000000E+00  0.00000000000E+00  0.15182265589E+04  0.15182265589E+04  0.00000000000E+00 0.  1.
          1   -1    0    0  501    0  0.00000000000E+00 -0.00000000000E+00 -0.23307257892E+04  0.23307257892E+04  0.00000000000E+00 0. -1.
         23    2    1    2    0    0 -0.11828441811E+03  0.15653304839E+04  0.65178707394E+03  0.17022373907E+04  0.92385156674E+02 0.  0.
         11    1    3    3    0    0 -0.42130476744E+02  0.18082154362E+03  0.86700729126E+02  0.20491077117E+03  0.00000000000E+00 0.  1.
        -11    1    3    3    0    0 -0.76153941366E+02  0.13845089403E+04  0.56508634481E+03  0.14973266195E+04  0.00000000000E+00 0. -1.
         22    1    1    2    0    0  0.11828441811E+03 -0.15653304839E+04 -0.14642863043E+04  0.21467149574E+04  0.00000000000E+00 0.  1.
<mgrwt>
<rscale>  0 0.37622173E+04</rscale>
<asrwt>0</asrwt>
<pdfrwt beam="1">  1        1 0.35857320E+00 0.37622173E+04</pdfrwt>
<pdfrwt beam="2">  1       -1 0.23357332E+00 0.37622173E+04</pdfrwt>
<totfact> 0.12649806E-01</totfact>
</mgrwt>
</event>
<event>
 6    1  0.8968082E-007  0.1629452E+04  0.7818608E-02  0.8802656E-01
         -1   -1    0    0    0  501 -0.00000000000E+00  0.00000000000E+00  0.72410440303E+03  0.72410440303E+03  0.00000000000E+00 0.  1.
          1   -1    0    0  501    0  0.00000000000E+00 -0.00000000000E+00 -0.91668928808E+03  0.91668928808E+03  0.00000000000E+00 0. -1.
         23    2    1    2    0    0  0.79444055234E+03  0.16775301492E+03 -0.81026977768E+02  0.82120719056E+03  0.92406782682E+02 0.  0.
         13    1    3    3    0    0  0.16556192753E+03  0.23511804319E+02  0.18970760842E+02  0.16829571164E+03  0.00000000000E+00 0. -1.
        -13    1    3    3    0    0  0.62887862481E+03  0.14424121060E+03 -0.99997738609E+02  0.65291147892E+03  0.00000000000E+00 0.  1.
         22    1    1    2    0    0 -0.79444055234E+03 -0.16775301492E+03 -0.11155790728E+03  0.81958650055E+03  0.00000000000E+00 0. -1.
<mgrwt>
<rscale>  0 0.16294524E+04</rscale>
<asrwt>0</asrwt>
<pdfrwt beam="1">  1        1 0.14102912E+00 0.16294524E+04</pdfrwt>
<pdfrwt beam="2">  1       -1 0.11140068E+00 0.16294524E+04</pdfrwt>
<totfact> 0.12503963E+01</totfact>
</mgrwt>
</event>
<event>
 6    1  0.8968082E-007  0.3196429E+04  0.7818608E-02  0.8189761E-01
         -2   -1    0    0    0  501 -0.00000000000E+00  0.00000000000E+00  0.10178341286E+04  0.10178341286E+04  0.00000000000E+00 0.  1.
          2   -1    0    0  501    0  0.00000000000E+00 -0.00000000000E+00 -0.25095334476E+04  0.25095334476E+04  0.00000000000E+00 0. -1.
         23    2    1    2    0    0  0.13080449987E+04 -0.32464882436E+03  0.19877172153E+03  0.13654076052E+04  0.91919274775E+02 0.  0.
         13    1    3    3    0    0  0.30176109208E+03 -0.68295547761E+02  0.84438413297E+02  0.32070840989E+03  0.00000000000E+00 0. -1.
        -13    1    3    3    0    0  0.10062839067E+04 -0.25635327660E+03  0.11433330823E+03  0.10446991953E+04  0.00000000000E+00 0.  1.
         22    1    1    2    0    0 -0.13080449987E+04  0.32464882436E+03 -0.16904710405E+04  0.21619599711E+04  0.00000000000E+00 0. -1.
<mgrwt>
<rscale>  0 0.31964285E+04</rscale>
<asrwt>0</asrwt>
<pdfrwt beam="1">  1        2 0.38608206E+00 0.31964285E+04</pdfrwt>
<pdfrwt beam="2">  1       -2 0.15658987E+00 0.31964285E+04</pdfrwt>
<totfact> 0.77301738E-01</totfact>
</mgrwt>
</event>
<event>
 6    1  0.8968082E-007  0.4507174E+04  0.7818608E-02  0.7909382E-01
          2   -1    0    0  501    0  0.00000000000E+00  0.00000000000E+00  0.28047087499E+04  0.28047087499E+04  0.00000000000E+00 0. -1.
         -2   -1    0    0    0  501 -0.00000000000E+00 -0.00000000000E+00 -0.18107602221E+04  0.18107602221E+04  0.00000000000E+00 0.  1.
         23    2    1    2    0    0 -0.11686041414E+04  0.13502648688E+04  0.19033589272E+04  0.26115033710E+04  0.91234839157E+02 0.  0.
         11    1    3    3    0    0 -0.85406368338E+03  0.94758482014E+03  0.14054719434E+04  0.18980761708E+04  0.00000000000E+00 0. -1.
        -11    1    3    3    0    0 -0.31454045804E+03  0.40268004864E+03  0.49788698386E+03  0.71342720022E+03  0.00000000000E+00 0.  1.
         22    1    1    2    0    0  0.11686041414E+04 -0.13502648688E+04 -0.90941039943E+03  0.20039656010E+04  0.00000000000E+00 0.  1.
<mgrwt>
<rscale>  0 0.45071743E+04</rscale>
<asrwt>0</asrwt>
<pdfrwt beam="1">  1        2 0.43149365E+00 0.45071743E+04</pdfrwt>
<pdfrwt beam="2">  1       -2 0.27857850E+00 0.45071743E+04</pdfrwt>
<totfact> 0.74721865E-02</totfact>
</mgrwt>
</event>
<event>
 6    1  0.8968082E-007  0.3322821E+04  0.7818608E-02  0.8157113E-01
          2   -1    0    0  501    0  0.00000000000E+00  0.00000000000E+00  0.18051739773E+04  0.18051739773E+04  0.00000000000E+00 0. -1.
         -2   -1    0    0    0  501 -0.00000000000E+00 -0.00000000000E+00 -0.15290959807E+04  0.15290959807E+04  0.00000000000E+00 0.  1.
         23    2    1    2    0    0  0.91464582652E+03  0.11722949828E+04  0.87905185787E+03  0.17297669221E+04  0.92243815297E+02 0.  0.
         13    1    3    3    0    0  0.76631954943E+03  0.92473438519E+03  0.71890134613E+03  0.13997137137E+04  0.00000000000E+00 0. -1.
        -13    1    3    3    0    0  0.14832627710E+03  0.24756059759E+03  0.16015051175E+03  0.33005320839E+03  0.00000000000E+00 0.  1.
         22    1    1    2    0    0 -0.91464582652E+03 -0.11722949828E+04 -0.60297386124E+03  0.16045030358E+04  0.00000000000E+00 0.  1.
<mgrwt>
<rscale>  0 0.33228207E+04</rscale>
<asrwt>0</asrwt>
<pdfrwt beam="1">  1        2 0.27771907E+00 0.33228207E+04</pdfrwt>
<pdfrwt beam="2">  1       -2 0.23524554E+00 0.33228207E+04</pdfrwt>
<totfact> 0.56662866E-01</totfact>
</mgrwt>
</event>
<event>
 6    1  0.8968082E-007  0.3341823E+04  0.7818608E-02  0.8152334E-01
         -1   -1    0    0    0  501 -0.00000000000E+00  0.00000000000E+00  0.93324928157E+03  0.93324928157E+03  0.00000000000E+00 0.  1.
          1   -1    0    0  501    0  0.00000000000E+00 -0.00000000000E+00 -0.29916393388E+04  0.29916393388E+04  0.00000000000E+00 0. -1.
         23    2    1    2    0    0  0.39980540171E+03  0.16183730177E+04 -0.11405736845E+04  0.20219008438E+04  0.90548929808E+02 0.  0.
         13    1    3    3    0    0  0.28883363597E+03  0.13070345610E+04 -0.89710847004E+03  0.16113869243E+04  0.00000000000E+00 0. -1.
        -13    1    3    3    0    0  0.11097176575E+03  0.31133845675E+03 -0.24346521446E+03  0.41051391949E+03  0.00000000000E+00 0.  1.
         22    1    1    2    0    0 -0.39980540171E+03 -0.16183730177E+04 -0.91781637275E+03  0.19029877766E+04  0.00000000000E+00 0. -1.
<mgrwt>
<rscale>  0 0.33418230E+04</rscale>
<asrwt>0</asrwt>
<pdfrwt beam="1">  1        1 0.46025222E+00 0.33418230E+04</pdfrwt>
<pdfrwt beam="2">  1       -1 0.14357681E+00 0.33418230E+04</pdfrwt>
<totfact> 0.19640240E-01</totfact>
</mgrwt>
</event>
<event>
 6    1  0.8968082E-007  0.1601457E+04  0.7818608E-02  0.8819653E-01
          2   -1    0    0  501    0  0.00000000000E+00  0.00000000000E+00  0.44475115433E+03  0.44475115433E+03  0.00000000000E+00 0. -1.
         -2   -1    0    0    0  501 -0.00000000000E+00 -0.00000000000E+00 -0.14416286929E+04  0.14416286929E+04  0.00000000000E+00 0.  1.
         23    2    1    2    0    0 -0.47606618431E+03 -0.78244814595E+02 -0.12489778075E+04  0.13420308705E+04  0.91323769504E+02 0.  0.
         11    1    3    3    0    0 -0.31364975347E+03 -0.77568111960E+01 -0.77886687253E+03  0.83968442946E+03  0.00000000000E+00 0.  1.
        -11    1    3    3    0    0 -0.16241643085E+03 -0.70488003399E+02 -0.47011093497E+03  0.50234644102E+03  0.00000000000E+00 0. -1.
         22    1    1    2    0    0  0.47606618431E+03  0.78244814595E+02  0.25210026894E+03  0.54434897672E+03  0.00000000000E+00 0. -1.
<mgrwt>
<rscale>  0 0.16014569E+04</rscale>
<asrwt>0</asrwt>
<pdfrwt beam="1">  1        2 0.68423255E-01 0.16014569E+04</pdfrwt>
<pdfrwt beam="2">  1       -2 0.22178903E+00 0.16014569E+04</pdfrwt>
<totfact> 0.65037861E+00</totfact>
</mgrwt>
</event>
<event>
 6    1  0.8968082E-007  0.2722797E+04  0.7818608E-02  0.8327646E-01
         -2   -1    0    0    0  501 -0.00000000000E+00  0.00000000000E+00  0.18289672623E+04  0.18289672623E+04  0.00000000000E+00 0.  1.
          2   -1    0    0  501    0  0.00000000000E+00 -0.00000000000E+00 -0.10133618198E+04  0.10133618198E+04  0.00000000000E+00 0. -1.
         23    2    1    2    0    0  0.11366767330E+04  0.70134965986E+03  0.14089500696E+03  0.13459469409E+04  0.88297360890E+02 0.  0.
         13    1    3    3    0    0  0.31579699620E+03  0.22977016252E+03  0.14061422079E+02  0.39079379983E+03  0.00000000000E+00 0.  1.
        -13    1    3    3    0    0  0.82087973679E+03  0.47157949734E+03  0.12683358488E+03  0.95515314104E+03  0.00000000000E+00 0. -1.
         22    1    1    2    0    0 -0.11366767330E+04 -0.70134965986E+03  0.67471043560E+03  0.14963821412E+04  0.00000000000E+00 0. -1.
<mgrwt>
<rscale>  0 0.27227968E+04</rscale>
<asrwt>0</asrwt>
<pdfrwt beam="1">  1        2 0.15590182E+00 0.27227968E+04</pdfrwt>
<pdfrwt beam="2">  1       -2 0.28137958E+00 0.27227968E+04</pdfrwt>
<totfact> 0.89320537E-01</totfact>
</mgrwt>
</event>
<event>
 6    1  0.8968082E-007  0.5444339E+03  0.7818608E-02  0.1002791E+00
          2   -1    0    0  501    0  0.00000000000E+00  0.00000000000E+00  0.86769357712E+03  0.86769357712E+03  0.00000000000E+00 0. -1.
         -2   -1    0    0    0  501 -0.00000000000E+00 -0.00000000000E+00 -0.85401196051E+02  0.85401196051E+02  0.00000000000E+00 0.  1.
         23    2    1    2    0    0 -0.14910637874E+03 -0.76902198975E+02  0.44216698279E+02  0.19619162619E+03  0.91593544478E+02 0.  0.
         11    1    3    3    0    0 -0.10919166065E+02 -0.46642168144E+02  0.23032147511E+02  0.53152609115E+02  0.00000000000E+00 0.  1.
        -11    1    3    3    0    0 -0.13818721268E+03 -0.30260030830E+02  0.21184550768E+02  0.14303901707E+03  0.00000000000E+00 0. -1.
         22    1    1    2    0    0  0.14910637874E+03  0.76902198975E+02  0.73807568279E+03  0.75690314699E+03  0.00000000000E+00 0. -1.
<mgrwt>
<rscale>  0 0.54443391E+03</rscale>
<asrwt>0</asrwt>
<pdfrwt beam="1">  1        2 0.13349131E+00 0.54443391E+03</pdfrwt>
<pdfrwt beam="2">  1       -2 0.13138646E-01 0.54443391E+03</pdfrwt>
<totfact> 0.13576485E+03</totfact>
</mgrwt>
</event>
<event>
 6    1  0.8968082E-007  0.2874234E+04  0.7818608E-02  0.8280585E-01
          2   -1    0    0  501    0  0.00000000000E+00  0.00000000000E+00  0.33574467897E+04  0.33574467897E+04  0.00000000000E+00 0. -1.
         -2   -1    0    0    0  501 -0.00000000000E+00 -0.00000000000E+00 -0.61514170624E+03  0.61514170624E+03  0.00000000000E+00 0.  1.
         23    2    1    2    0    0  0.83081022215E+02  0.12622768216E+04  0.43378745343E+03  0.13401943616E+04  0.87773238679E+02 0.  0.
         11    1    3    3    0    0  0.51679242562E+00  0.37766729343E+03  0.16346402055E+03  0.41152562206E+03  0.00000000000E+00 0. -1.
        -11    1    3    3    0    0  0.82564229790E+02  0.88460952816E+03  0.27032343288E+03  0.92866873949E+03  0.00000000000E+00 0.  1.
         22    1    1    2    0    0 -0.83081022215E+02 -0.12622768216E+04  0.23085176300E+04  0.26323941344E+04  0.00000000000E+00 0. -1.
<mgrwt>
<rscale>  0 0.28742342E+04</rscale>
<asrwt>0</asrwt>
<pdfrwt beam="1">  1        2 0.51653026E+00 0.28742342E+04</pdfrwt>
<pdfrwt beam="2">  1       -2 0.94637188E-01 0.28742342E+04</pdfrwt>
<totfact> 0.82845268E-01</totfact>
</mgrwt>
</event>
<event>
 6    1  0.8968082E-007  0.1081557E+04  0.7818608E-02  0.9223356E-01
          2   -1    0    0  501    0  0.00000000000E+00  0.00000000000E+00  0.59930223026E+03  0.59930223026E+03  0.00000000000E+00 0. -1.
         -2   -1    0    0    0  501 -0.00000000000E+00 -0.00000000000E+00 -0.48797000523E+03  0.48797000523E+03  0.00000000000E+00 0.  1.
         23    2    1    2    0    0  0.37565294384E+03 -0.71233622350E+02  0.43500329138E+03  0.58632081832E+03  0.91405007041E+02 0.  0.
         13    1    3    3    0    0  0.15164984344E+03  0.67651367542E+01  0.12940075834E+03  0.19946929175E+03  0.00000000000E+00 0.  1.
        -13    1    3    3    0    0  0.22400310040E+03 -0.77998759104E+02  0.30560253304E+03  0.38685152657E+03  0.00000000000E+00 0. -1.
         22    1    1    2    0    0 -0.37565294384E+03  0.71233622350E+02 -0.32367106635E+03  0.50095141717E+03  0.00000000000E+00 0.  1.
<mgrwt>
<rscale>  0 0.10815572E+04</rscale>
<asrwt>0</asrwt>
<pdfrwt beam="1">  1        2 0.92200343E-01 0.10815572E+04</pdfrwt>
<pdfrwt beam="2">  1       -2 0.75072308E-01 0.10815572E+04</pdfrwt>
<totfact> 0.78710993E+01</totfact>
</mgrwt>
</event>
<event>
 6    1  0.8968082E-007  0.3128409E+04  0.7818608E-02  0.8207984E-01
          2   -1    0    0  501    0  0.00000000000E+00  0.00000000000E+00  0.33316353387E+04  0.33316353387E+04  0.00000000000E+00 0. -1.
         -2   -1    0    0    0  501 -0.00000000000E+00 -0.00000000000E+00 -0.73439463415E+03  0.73439463415E+03  0.00000000000E+00 0.  1.
         23    2    1    2    0    0  0.32711945657E+03 -0.64325881752E+03 -0.50246155267E+03  0.88342991494E+03  0.84804230489E+02 0.  0.
         11    1    3    3    0    0  0.14758952719E+03 -0.30943542139E+03 -0.18840602943E+03  0.39119021009E+03  0.00000000000E+00 0.  1.
        -11    1    3    3    0    0  0.17952992938E+03 -0.33382339613E+03 -0.31405552324E+03  0.49223970484E+03  0.00000000000E+00 0. -1.
         22    1    1    2    0    0 -0.32711945657E+03  0.64325881752E+03  0.30997022572E+04  0.31826000579E+04  0.00000000000E+00 0. -1.
<mgrwt>
<rscale>  0 0.31284086E+04</rscale>
<asrwt>0</asrwt>
<pdfrwt beam="1">  1        2 0.51255928E+00 0.31284086E+04</pdfrwt>
<pdfrwt beam="2">  1       -2 0.11298379E+00 0.31284086E+04</pdfrwt>
<totfact> 0.55262766E-01</totfact>
</mgrwt>
</event>
<event>
 6    1  0.8968082E-007  0.1713023E+04  0.7818608E-02  0.8753972E-01
          2   -1    0    0  501    0  0.00000000000E+00  0.00000000000E+00  0.50946658479E+03  0.50946658479E+03  0.00000000000E+00 0. -1.
         -2   -1    0    0    0  501 -0.00000000000E+00 -0.00000000000E+00 -0.14399602669E+04  0.14399602669E+04  0.00000000000E+00 0.  1.
         23    2    1    2    0    0 -0.74649014673E+03 -0.40317245893E+03 -0.57835278058E+03  0.10308416431E+04  0.91361827849E+02 0.  0.
         11    1    3    3    0    0 -0.47536198487E+03 -0.21308694205E+03 -0.38061991333E+03  0.64517174455E+03  0.00000000000E+00 0.  1.
        -11    1    3    3    0    0 -0.27112816186E+03 -0.19008551688E+03 -0.19773286725E+03  0.38566989858E+03  0.00000000000E+00 0. -1.
         22    1    1    2    0    0  0.74649014673E+03  0.40317245893E+03 -0.35214090148E+03  0.91858520852E+03  0.00000000000E+00 0. -1.
<mgrwt>
<rscale>  0 0.17130226E+04</rscale>
<asrwt>0</asrwt>
<pdfrwt beam="1">  1        2 0.78379476E-01 0.17130226E+04</pdfrwt>
<pdfrwt beam="2">  1       -2 0.22153234E+00 0.17130226E+04</pdfrwt>
<totfact> 0.55314222E+00</totfact>
</mgrwt>
</event>
<event>
 6    1  0.8968082E-007  0.2259374E+04  0.7818608E-02  0.8494114E-01
         -1   -1    0    0    0  501 -0.00000000000E+00  0.00000000000E+00  0.12123449609E+04  0.12123449609E+04  0.00000000000E+00 0.  1.
          1   -1    0    0  501    0  0.00000000000E+00 -0.00000000000E+00 -0.10526650464E+04  0.10526650464E+04  0.00000000000E+00 0. -1.
         23    2    1    2    0    0 -0.34498821094E+03  0.48003307078E+03 -0.88306542296E+03  0.10663580755E+04  0.88692667217E+02 0.  0.
         11    1    3    3    0    0 -0.19828784186E+03  0.31414028168E+03 -0.48605897512E+03  0.61176426187E+03  0.00000000000E+00 0. -1.
        -11    1    3    3    0    0 -0.14670036908E+03  0.16589278910E+03 -0.39700644783E+03  0.45459381362E+03  0.00000000000E+00 0.  1.
         22    1    1    2    0    0  0.34498821094E+03 -0.48003307078E+03  0.10427453375E+04  0.11986519318E+04  0.00000000000E+00 0.  1.
<mgrwt>
<rscale>  0 0.22593744E+04</rscale>
<asrwt>0</asrwt>
<pdfrwt beam="1">  1        1 0.16194847E+00 0.22593744E+04</pdfrwt>
<pdfrwt beam="2">  1       -1 0.18651461E+00 0.22593744E+04</pdfrwt>
<totfact> 0.23362650E+00</totfact>
</mgrwt>
</event>
<event>
 6    1  0.8968082E-007  0.3670792E+04  0.7818608E-02  0.8074466E-01
          1   -1    0    0  501    0  0.00000000000E+00  0.00000000000E+00  0.14348213931E+04  0.14348213931E+04  0.00000000000E+00 0. -1.
         -1   -1    0    0    0  501 -0.00000000000E+00 -0.00000000000E+00 -0.23478037662E+04  0.23478037662E+04  0.00000000000E+00 0.  1.
         23    2    1    2    0    0 -0.13872522394E+04  0.11770705278E+04 -0.21624660043E+03  0.18344453575E+04  0.91996600177E+02 0.  0.
         13    1    3    3    0    0 -0.61050599802E+03  0.47114527899E+03 -0.63310575704E+02  0.77375944358E+03  0.00000000000E+00 0.  1.
        -13    1    3    3    0    0 -0.77674624142E+03  0.70592524878E+03 -0.15293602473E+03  0.10606859140E+04  0.00000000000E+00 0. -1.
         22    1    1    2    0    0  0.13872522394E+04 -0.11770705278E+04 -0.69673577261E+03  0.19481798018E+04  0.00000000000E+00 0. -1.
<mgrwt>
<rscale>  0 0.36707923E+04</rscale>
<asrwt>0</asrwt>
<pdfrwt beam="1">  1        1 0.22074175E+00 0.36707923E+04</pdfrwt>
<pdfrwt beam="2">  1       -1 0.36120058E+00 0.36707923E+04</pdfrwt>
<totfact> 0.76403711E-02</totfact>
</mgrwt>
</event>
<event>
 6    1  0.8968082E-007  0.8654434E+03  0.7818608E-02  0.9469841E-01
         -1   -1    0    0    0  501 -0.00000000000E+00  0.00000000000E+00  0.20091262314E+03  0.20091262314E+03  0.00000000000E+00 0.  1.
          1   -1    0    0  501    0  0.00000000000E+00 -0.00000000000E+00 -0.93198758197E+03  0.93198758197E+03  0.00000000000E+00 0. -1.
         23    2    1    2    0    0  0.24208203306E+03  0.65413130525E+02  0.83989136166E+02  0.28013290547E+03  0.92399574433E+02 0.  0.
         11    1    3    3    0    0  0.20159366887E+03  0.48258812365E+02  0.28355732164E+02  0.20921990308E+03  0.00000000000E+00 0.  1.
        -11    1    3    3    0    0  0.40488364193E+02  0.17154318160E+02  0.55633404002E+02  0.70913002386E+02  0.00000000000E+00 0. -1.
         22    1    1    2    0    0 -0.24208203306E+03 -0.65413130525E+02 -0.81506409501E+03  0.85276729964E+03  0.00000000000E+00 0. -1.
<mgrwt>
<rscale>  0 0.86544340E+03</rscale>
<asrwt>0</asrwt>
<pdfrwt beam="1">  1        1 0.14338270E+00 0.86544340E+03</pdfrwt>
<pdfrwt beam="2">  1       -1 0.30909634E-01 0.86544340E+03</pdfrwt>
<totfact> 0.16715966E+02</totfact>
</mgrwt>
</event>
<event>
 6    1  0.8968082E-007  0.1216726E+04  0.7818608E-02  0.9098341E-01
         -1   -1    0    0    0  501 -0.00000000000E+00  0.00000000000E+00  0.18574278528E+04  0.18574278528E+04  0.00000000000E+00 0.  1.
          1   -1    0    0  501    0  0.00000000000E+00 -0.00000000000E+00 -0.19925687120E+03  0.19925687120E+03  0.00000000000E+00 0. -1.
         23    2    1    2    0    0  0.17198131772E+03  0.17287601862E+03  0.17691704696E+04  0.17887582830E+04  0.10113532033E+03 0.  0.
         11    1    3    3    0    0  0.98108463575E+02  0.88977822749E+02  0.61017544526E+03  0.62438481529E+03  0.00000000000E+00 0.  1.
        -11    1    3    3    0    0  0.73872854147E+02  0.83898195875E+02  0.11589950244E+04  0.11643734677E+04  0.00000000000E+00 0. -1.
         22    1    1    2    0    0 -0.17198131772E+03 -0.17287601862E+03 -0.11099948799E+03  0.26792644102E+03  0.00000000000E+00 0. -1.
<mgrwt>
<rscale>  0 0.12167255E+04</rscale>
<asrwt>0</asrwt>
<pdfrwt beam="1">  1        1 0.30654905E-01 0.12167255E+04</pdfrwt>
<pdfrwt beam="2">  1       -1 0.28575812E+00 0.12167255E+04</pdfrwt>
<totfact> 0.60663820E+00</totfact>
</mgrwt>
</event>
<event>
 6    1  0.8968082E-007  0.1743203E+04  0.7818608E-02  0.8737101E-01
          2   -1    0    0  501    0  0.00000000000E+00  0.00000000000E+00  0.16086032398E+04  0.16086032398E+04  0.00000000000E+00 0. -1.
         -2   -1    0    0    0  501 -0.00000000000E+00 -0.00000000000E+00 -0.47226610806E+03  0.47226610806E+03  0.00000000000E+00 0.  1.
         23    2    1    2    0    0 -0.52297305655E+03 -0.21038685900E+03 -0.21999658398E+03  0.61205874173E+03  0.91945407949E+02 0.  0.
         13    1    3    3    0    0 -0.31436112077E+03 -0.13256728974E+03 -0.84721362036E+02  0.35153194698E+03  0.00000000000E+00 0. -1.
        -13    1    3    3    0    0 -0.20861193578E+03 -0.77819569264E+02 -0.13527522195E+03  0.26052679475E+03  0.00000000000E+00 0.  1.
         22    1    1    2    0    0  0.52297305655E+03  0.21038685900E+03  0.13563337158E+04  0.14688106062E+04  0.00000000000E+00 0. -1.
<mgrwt>
<rscale>  0 0.17432026E+04</rscale>
<asrwt>0</asrwt>
<pdfrwt beam="1">  1        2 0.24747742E+00 0.17432026E+04</pdfrwt>
<pdfrwt beam="2">  1       -2 0.72656325E-01 0.17432026E+04</pdfrwt>
<totfact> 0.17914539E+01</totfact>
</mgrwt>
</event>
<event>
 6    1  0.8968082E-007  0.2276343E+04  0.7818608E-02  0.8487307E-01
         -1   -1    0    0    0  501 -0.00000000000E+00  0.00000000000E+00  0.69226283555E+03  0.69226283555E+03  0.00000000000E+00 0.  1.
          1   -1    0    0  501    0  0.00000000000E+00 -0.00000000000E+00 -0.18713048452E+04  0.18713048452E+04  0.00000000000E+00 0. -1.
         23    2    1    2    0    0 -0.76689884380E+03 -0.31115268721E+03  0.28659163090E+03  0.88040642891E+03  0.89615209524E+02 0.  0.
         11    1    3    3    0    0 -0.54626586846E+03 -0.25977526050E+03  0.18883830652E+03  0.63367932823E+03  0.00000000000E+00 0. -1.
        -11    1    3    3    0    0 -0.22063297534E+03 -0.51377426712E+02  0.97753324379E+02  0.24672710068E+03  0.00000000000E+00 0.  1.
         22    1    1    2    0    0  0.76689884380E+03  0.31115268721E+03 -0.14656336405E+04  0.16831612518E+04  0.00000000000E+00 0. -1.
<mgrwt>
<rscale>  0 0.22763434E+04</rscale>
<asrwt>0</asrwt>
<pdfrwt beam="1">  1        1 0.28789306E+00 0.22763434E+04</pdfrwt>
<pdfrwt beam="2">  1       -1 0.10650197E+00 0.22763434E+04</pdfrwt>
<totfact> 0.27176615E+00</totfact>
</mgrwt>
</event>
<event>
 6    1  0.8968082E-007  0.4288190E+04  0.7818608E-02  0.7948806E-01
          2   -1    0    0  501    0  0.00000000000E+00  0.00000000000E+00  0.15417855885E+04  0.15417855885E+04  0.00000000000E+00 0. -1.
         -2   -1    0    0    0  501 -0.00000000000E+00 -0.00000000000E+00 -0.29817007131E+04  0.29817007131E+04  0.00000000000E+00 0.  1.
         23    2    1    2    0    0 -0.13076755730E+04 -0.67456154566E+03  0.92343059437E+03  0.17395229989E+04  0.90374320594E+02 0.  0.
         11    1    3    3    0    0 -0.97567231968E+03 -0.48955079564E+03  0.72860257366E+03  0.13124245377E+04  0.00000000000E+00 0.  1.
        -11    1    3    3    0    0 -0.33200325334E+03 -0.18501075002E+03  0.19482802071E+03  0.42709846114E+03  0.00000000000E+00 0. -1.
         22    1    1    2    0    0  0.13076755730E+04  0.67456154566E+03 -0.23633457190E+04  0.27839633027E+04  0.00000000000E+00 0.  1.
<mgrwt>
<rscale>  0 0.42881899E+04</rscale>
<asrwt>0</asrwt>
<pdfrwt beam="1">  1        2 0.23719778E+00 0.42881899E+04</pdfrwt>
<pdfrwt beam="2">  1       -2 0.45872319E+00 0.42881899E+04</pdfrwt>
<totfact> 0.28200191E-02</totfact>
</mgrwt>
</event>
<event>
 6    1  0.8968082E-007  0.3008477E+04  0.7818608E-02  0.8241315E-01
          2   -1    0    0  501    0  0.00000000000E+00  0.00000000000E+00  0.24752692692E+04  0.24752692692E+04  0.00000000000E+00 0. -1.
         -2   -1    0    0    0  501 -0.00000000000E+00 -0.00000000000E+00 -0.91413600525E+03  0.91413600525E+03  0.00000000000E+00 0.  1.
         23    2    1    2    0    0  0.75349764298E+03 -0.89944735639E+03  0.18392773114E+04  0.21835328285E+04  0.90057425885E+02 0.  0.
         11    1    3    3    0    0  0.45071168816E+03 -0.60278266123E+03  0.11546619266E+04  0.13783077041E+04  0.00000000000E+00 0. -1.
        -11    1    3    3    0    0  0.30278595482E+03 -0.29666469516E+03  0.68461538485E+03  0.80522512440E+03  0.00000000000E+00 0.  1.
         22    1    1    2    0    0 -0.75349764298E+03  0.89944735639E+03 -0.27814404742E+03  0.12058724460E+04  0.00000000000E+00 0.  1.
<mgrwt>
<rscale>  0 0.30084765E+04</rscale>
<asrwt>0</asrwt>
<pdfrwt beam="1">  1        2 0.38081065E+00 0.30084765E+04</pdfrwt>
<pdfrwt beam="2">  1       -2 0.14063631E+00 0.30084765E+04</pdfrwt>
<totfact> 0.10922026E+00</totfact>
</mgrwt>
</event>
<event>
 6    1  0.8968082E-007  0.2407871E+04  0.7818608E-02  0.8436563E-01
          1   -1    0    0  501    0  0.00000000000E+00  0.00000000000E+00  0.15689699767E+04  0.15689699767E+04  0.00000000000E+00 0. -1.
         -1   -1    0    0    0  501 -0.00000000000E+00 -0.00000000000E+00 -0.92382965730E+03  0.92382965730E+03  0.00000000000E+00 0.  1.
         23    2    1    2    0    0 -0.35535406549E+02  0.35820469901E+03  0.15104332843E+04  0.15556202026E+04  0.94721364187E+02 0.  0.
         13    1    3    3    0    0 -0.58028845409E+02  0.14099453894E+03  0.68776581976E+03  0.70446336296E+03  0.00000000000E+00 0. -1.
        -13    1    3    3    0    0  0.22493438860E+02  0.21721016007E+03  0.82266746456E+03  0.85115683965E+03  0.00000000000E+00 0.  1.
         22    1    1    2    0    0  0.35535406549E+02 -0.35820469901E+03 -0.86529296492E+03  0.93717943141E+03  0.00000000000E+00 0.  1.
<mgrwt>
<rscale>  0 0.24078713E+04</rscale>
<asrwt>0</asrwt>
<pdfrwt beam="1">  1        1 0.24138000E+00 0.24078713E+04</pdfrwt>
<pdfrwt beam="2">  1       -1 0.14212764E+00 0.24078713E+04</pdfrwt>
<totfact> 0.21146630E+00</totfact>
</mgrwt>
</event>
<event>
 6    1  0.8968082E-007  0.3861675E+04  0.7818608E-02  0.8033048E-01
         -1   -1    0    0    0  501 -0.00000000000E+00  0.00000000000E+00  0.33874889954E+04  0.33874889954E+04  0.00000000000E+00 0.  1.
          1   -1    0    0  501    0  0.00000000000E+00 -0.00000000000E+00 -0.11005598207E+04  0.11005598207E+04  0.00000000000E+00 0. -1.
         23    2    1    2    0    0 -0.12632846051E+04 -0.70702224090E+03 -0.33879475209E+03  0.14896834978E+04  0.92771746455E+02 0.  0.
         11    1    3    3    0    0 -0.72961377212E+03 -0.45708489555E+03 -0.18433916884E+03  0.88047929412E+03  0.00000000000E+00 0. -1.
        -11    1    3    3    0    0 -0.53367083296E+03 -0.24993734535E+03 -0.15445558325E+03  0.60920420365E+03  0.00000000000E+00 0.  1.
         22    1    1    2    0    0  0.12632846051E+04  0.70702224090E+03  0.26257239268E+04  0.29983653184E+04  0.00000000000E+00 0.  1.
<mgrwt>
<rscale>  0 0.38616754E+04</rscale>
<asrwt>0</asrwt>
<pdfrwt beam="1">  1        1 0.16931690E+00 0.38616754E+04</pdfrwt>
<pdfrwt beam="2">  1       -1 0.52115215E+00 0.38616754E+04</pdfrwt>
<totfact> 0.11012432E-02</totfact>
</mgrwt>
</event>
<event>
 6    1  0.8968082E-007  0.1363678E+04  0.7818608E-02  0.8980538E-01
         -1   -1    0    0    0  501 -0.00000000000E+00  0.00000000000E+00  0.11885198280E+04  0.11885198280E+04  0.00000000000E+00 0.  1.
          1   -1    0    0  501    0  0.00000000000E+00 -0.00000000000E+00 -0.39116243762E+03  0.39116243762E+03  0.00000000000E+00 0. -1.
         23    2    1    2    0    0 -0.37814253355E+03  0.48250890129E+03  0.63312883375E+02  0.62332043358E+03  0.93344663561E+02 0.  0.
         13    1    3    3    0    0 -0.10753882120E+03  0.17821956541E+03 -0.14844892926E+02  0.20867961665E+03  0.00000000000E+00 0.  1.
        -13    1    3    3    0    0 -0.27060371235E+03  0.30428933588E+03  0.78157776301E+02  0.41464081693E+03  0.00000000000E+00 0. -1.
         22    1    1    2    0    0  0.37814253355E+03 -0.48250890129E+03  0.73404450696E+03  0.95636183200E+03  0.00000000000E+00 0.  1.
<mgrwt>
<rscale>  0 0.13636778E+04</rscale>
<asrwt>0</asrwt>
<pdfrwt beam="1">  1        1 0.60178837E-01 0.13636778E+04</pdfrwt>
<pdfrwt beam="2">  1       -1 0.18284920E+00 0.13636778E+04</pdfrwt>
<totfact> 0.11999011E+01</totfact>
</mgrwt>
</event>
<event>
 6    1  0.8968082E-007  0.4303796E+04  0.7818608E-02  0.7945917E-01
         -2   -1    0    0    0  501 -0.00000000000E+00  0.00000000000E+00  0.14709647211E+04  0.14709647211E+04  0.00000000000E+00 0.  1.
          2   -1    0    0  501    0  0.00000000000E+00 -0.00000000000E+00 -0.31480461643E+04  0.31480461643E+04  0.00000000000E+00 0. -1.
         23    2    1    2    0    0 -0.19734916020E+04 -0.74889036223E+03 -0.39396574339E+03  0.21488101291E+04  0.81670594802E+02 0.  0.
         11    1    3    3    0    0 -0.15963921294E+04 -0.58446211127E+03 -0.29117956059E+03  0.17247751526E+04  0.00000000000E+00 0.  1.
        -11    1    3    3    0    0 -0.37709947254E+03 -0.16442825096E+03 -0.10278618280E+03  0.42403497648E+03  0.00000000000E+00 0. -1.
         22    1    1    2    0    0  0.19734916020E+04  0.74889036223E+03 -0.12831156998E+04  0.24702007564E+04  0.00000000000E+00 0. -1.
<mgrwt>
<rscale>  0 0.43037959E+04</rscale>
<asrwt>0</asrwt>
<pdfrwt beam="1">  1        2 0.48431479E+00 0.43037959E+04</pdfrwt>
<pdfrwt beam="2">  1       -2 0.22630227E+00 0.43037959E+04</pdfrwt>
<totfact> 0.97219894E-02</totfact>
</mgrwt>
</event>
<event>
 6    1  0.8968082E-007  0.4559524E+04  0.7818608E-02  0.7900298E-01
         -1   -1    0    0    0  501 -0.00000000000E+00  0.00000000000E+00  0.31316286389E+04  0.31316286389E+04  0.00000000000E+00 0.  1.
          1   -1    0    0  501    0  0.00000000000E+00 -0.00000000000E+00 -0.16596200728E+04  0.16596200728E+04  0.00000000000E+00 0. -1.
         23    2    1    2    0    0 -0.16697785292E+04 -0.55596058755E+03  0.22575843968E+04  0.28639755351E+04  0.91739008424E+02 0.  0.
         11    1    3    3    0    0 -0.10165742429E+04 -0.35045008799E+03  0.14489156894E+04  0.18043267804E+04  0.00000000000E+00 0.  1.
        -11    1    3    3    0    0 -0.65320428625E+03 -0.20551049956E+03  0.80866870742E+03  0.10596487547E+04  0.00000000000E+00 0. -1.
         22    1    1    2    0    0  0.16697785292E+04  0.55596058755E+03 -0.78557583065E+03  0.19272731766E+04  0.00000000000E+00 0.  1.
<mgrwt>
<rscale>  0 0.45595235E+04</rscale>
<asrwt>0</asrwt>
<pdfrwt beam="1">  1        1 0.25532617E+00 0.45595235E+04</pdfrwt>
<pdfrwt beam="2">  1       -1 0.48178902E+00 0.45595235E+04</pdfrwt>
<totfact> 0.74809165E-03</totfact>
</mgrwt>
</event>
<event>
 6    1  0.8968082E-007  0.1997062E+04  0.7818608E-02  0.8607995E-01
         -2   -1    0    0    0  501 -0.00000000000E+00  0.00000000000E+00  0.36847432077E+03  0.36847432077E+03  0.00000000000E+00 0.  1.
          2   -1    0    0  501    0  0.00000000000E+00 -0.00000000000E+00 -0.27059258979E+04  0.27059258979E+04  0.00000000000E+00 0. -1.
         23    2    1    2    0    0 -0.47241196476E+03 -0.54702600096E+03 -0.22272405204E+04  0.23432661768E+04  0.88800502257E+02 0.  0.
         13    1    3    3    0    0 -0.23615939552E+03 -0.20718695948E+03 -0.98556792535E+03  0.10344282632E+04  0.00000000000E+00 0. -1.
        -13    1    3    3    0    0 -0.23625256923E+03 -0.33983904148E+03 -0.12416725951E+04  0.13088379136E+04  0.00000000000E+00 0.  1.
         22    1    1    2    0    0  0.47241196476E+03  0.54702600096E+03 -0.11021105669E+03  0.73113404188E+03  0.00000000000E+00 0.  1.
<mgrwt>
<rscale>  0 0.19970620E+04</rscale>
<asrwt>0</asrwt>
<pdfrwt beam="1">  1        2 0.41629628E+00 0.19970620E+04</pdfrwt>
<pdfrwt beam="2">  1       -2 0.56688359E-01 0.19970620E+04</pdfrwt>
<totfact> 0.71526896E+00</totfact>
</mgrwt>
</event>
<event>
 6    1  0.8968082E-007  0.9538950E+03  0.7818608E-02  0.9360609E-01
         -2   -1    0    0    0  501 -0.00000000000E+00  0.00000000000E+00  0.16775242364E+03  0.16775242364E+03  0.00000000000E+00 0.  1.
          2   -1    0    0  501    0  0.00000000000E+00 -0.00000000000E+00 -0.13560394819E+04  0.13560394819E+04  0.00000000000E+00 0. -1.
         23    2    1    2    0    0 -0.12112877984E+03  0.44722409927E+03 -0.45119378199E+03  0.65316680012E+03  0.91484772522E+02 0.  0.
         11    1    3    3    0    0 -0.47427502766E+02  0.22429531140E+03 -0.28370231624E+03  0.36475301092E+03  0.00000000000E+00 0.  1.
        -11    1    3    3    0    0 -0.73701277076E+02  0.22292878787E+03 -0.16749146574E+03  0.28841378920E+03  0.00000000000E+00 0. -1.
         22    1    1    2    0    0  0.12112877984E+03 -0.44722409927E+03 -0.73709327629E+03  0.87062510544E+03  0.00000000000E+00 0.  1.
<mgrwt>
<rscale>  0 0.95389498E+03</rscale>
<asrwt>0</asrwt>
<pdfrwt beam="1">  1        2 0.20862147E+00 0.95389498E+03</pdfrwt>
<pdfrwt beam="2">  1       -2 0.25808064E-01 0.95389498E+03</pdfrwt>
<totfact> 0.20750748E+02</totfact>
</mgrwt>
</event>
<event>
 6    1  0.8968082E-007  0.1413575E+04  0.7818608E-02  0.8944050E-01
         -1   -1    0    0    0  501 -0.00000000000E+00  0.00000000000E+00  0.20963777599E+03  0.20963777599E+03  0.00000000000E+00 0.  1.
          1   -1    0    0  501    0  0.00000000000E+00 -0.00000000000E+00 -0.23829142716E+04  0.23829142716E+04  0.00000000000E+00 0. -1.
         23    2    1    2    0    0 -0.63008981950E+03  0.17147829641E+02 -0.50927995413E+03  0.81317245942E+03  0.67647234954E+02 0.  0.
         13    1    3    3    0    0 -0.44727660501E+03  0.23456990690E+02 -0.32389072818E+03  0.55273121461E+03  0.00000000000E+00 0. -1.
        -13    1    3    3    0    0 -0.18281321449E+03 -0.63091610489E+01 -0.18538922595E+03  0.26044124482E+03  0.00000000000E+00 0.  1.
         22    1    1    2    0    0  0.63008981950E+03 -0.17147829641E+02 -0.16639965415E+04  0.17793795882E+04  0.00000000000E+00 0.  1.
<mgrwt>
<rscale>  0 0.14135754E+04</rscale>
<asrwt>0</asrwt>
<pdfrwt beam="1">  1        1 0.36660221E+00 0.14135754E+04</pdfrwt>
<pdfrwt beam="2">  1       -1 0.32251964E-01 0.14135754E+04</pdfrwt>
<totfact> 0.14314517E+01</totfact>
</mgrwt>
</event>
<event>
 6    1  0.8968082E-007  0.4752279E+04  0.7818608E-02  0.7867900E-01
         -2   -1    0    0    0  501 -0.00000000000E+00  0.00000000000E+00  0.29735401488E+04  0.29735401488E+04  0.00000000000E+00 0.  1.
          2   -1    0    0  501    0  0.00000000000E+00 -0.00000000000E+00 -0.18987598577E+04  0.18987598577E+04  0.00000000000E+00 0. -1.
         23    2    1    2    0    0  0.22946592112E+04 -0.42533694683E+03  0.99101526907E+03  0.25370507708E+04  0.90238219478E+02 0.  0.
         13    1    3    3    0    0  0.11980261765E+04 -0.19304349953E+03  0.55304245252E+03  0.13335623220E+04  0.00000000000E+00 0. -1.
        -13    1    3    3    0    0  0.10966330347E+04 -0.23229344730E+03  0.43797281655E+03  0.12034884489E+04  0.00000000000E+00 0.  1.
         22    1    1    2    0    0 -0.22946592112E+04  0.42533694683E+03  0.83765021992E+02  0.23352492357E+04  0.00000000000E+00 0. -1.
<mgrwt>
<rscale>  0 0.47522789E+04</rscale>
<asrwt>0</asrwt>
<pdfrwt beam="1">  1        2 0.29211690E+00 0.47522789E+04</pdfrwt>
<pdfrwt beam="2">  1       -2 0.45746772E+00 0.47522789E+04</pdfrwt>
<totfact> 0.17538866E-02</totfact>
</mgrwt>
</event>
<event>
 6    1  0.8968082E-007  0.1137792E+04  0.7818608E-02  0.9169120E-01
          1   -1    0    0  501    0  0.00000000000E+00  0.00000000000E+00  0.11138338258E+04  0.11138338258E+04  0.00000000000E+00 0. -1.
         -1   -1    0    0    0  501 -0.00000000000E+00 -0.00000000000E+00 -0.29056642905E+03  0.29056642905E+03  0.00000000000E+00 0.  1.
         23    2    1    2    0    0  0.15388887533E+03 -0.68068753406E+02  0.10802476069E+04  0.10972293422E+04  0.93070920059E+02 0.  0.
         13    1    3    3    0    0  0.22758108059E+02 -0.48737119375E+02  0.44937588759E+03  0.45258361287E+03  0.00000000000E+00 0.  1.
        -13    1    3    3    0    0  0.13113076727E+03 -0.19331634030E+02  0.63087171927E+03  0.64464572935E+03  0.00000000000E+00 0. -1.
         22    1    1    2    0    0 -0.15388887533E+03  0.68068753406E+02 -0.25698021014E+03  0.30717091259E+03  0.00000000000E+00 0.  1.
<mgrwt>
<rscale>  0 0.11377921E+04</rscale>
<asrwt>0</asrwt>
<pdfrwt beam="1">  1        1 0.17135905E+00 0.11377921E+04</pdfrwt>
<pdfrwt beam="2">  1       -1 0.44702528E-01 0.11377921E+04</pdfrwt>
<totfact> 0.60978568E+01</totfact>
</mgrwt>
</event>
<event>
 6    1  0.8968082E-007  0.2455211E+04  0.7818608E-02  0.8419118E-01
         -2   -1    0    0    0  501 -0.00000000000E+00  0.00000000000E+00  0.66608406973E+03  0.66608406973E+03  0.00000000000E+00 0.  1.
          2   -1    0    0  501    0  0.00000000000E+00 -0.00000000000E+00 -0.22625000317E+04  0.22625000317E+04  0.00000000000E+00 0. -1.
         23    2    1    2    0    0  0.42508253887E+03 -0.10571285714E+04 -0.25983940509E+03  0.11722661138E+04  0.92061630466E+02 0.  0.
         13    1    3    3    0    0  0.23891242328E+03 -0.64790559328E+03 -0.11593075029E+03  0.70021478323E+03  0.00000000000E+00 0.  1.
        -13    1    3    3    0    0  0.18617011560E+03 -0.40922297812E+03 -0.14390865479E+03  0.47205133056E+03  0.00000000000E+00 0. -1.
         22    1    1    2    0    0 -0.42508253887E+03  0.10571285714E+04 -0.13365765569E+04  0.17563179877E+04  0.00000000000E+00 0. -1.
<mgrwt>
<rscale>  0 0.24552110E+04</rscale>
<asrwt>0</asrwt>
<pdfrwt beam="1">  1        2 0.34807693E+00 0.24552110E+04</pdfrwt>
<pdfrwt beam="2">  1       -2 0.10247447E+00 0.24552110E+04</pdfrwt>
<totfact> 0.33206202E+00</totfact>
</mgrwt>
</event>
<event>
 6    1  0.8968082E-007  0.2098445E+04  0.7818608E-02  0.8561929E-01
          1   -1    0    0  501    0  0.00000000000E+00  0.00000000000E+00  0.12876926383E+04  0.12876926383E+04  0.00000000000E+00 0. -1.
         -1   -1    0    0    0  501 -0.00000000000E+00 -0.00000000000E+00 -0.85491533987E+03  0.85491533987E+03  0.00000000000E+00 0.  1.
         23    2    1    2    0    0 -0.16223170325E+03  0.90518741431E+03 -0.29484902368E+03  0.96995140220E+03  0.90478700717E+02 0.  0.
         13    1    3    3    0    0 -0.77356568675E+02  0.63084952825E+03 -0.22682947416E+03  0.67483833350E+03  0.00000000000E+00 0. -1.
        -13    1    3    3    0    0 -0.84875134578E+02  0.27433788606E+03 -0.68019549527E+02  0.29511306869E+03  0.00000000000E+00 0.  1.
         22    1    1    2    0    0  0.16223170325E+03 -0.90518741431E+03  0.72762632216E+03  0.11726565760E+04  0.00000000000E+00 0. -1.
<mgrwt>
<rscale>  0 0.20984453E+04</rscale>
<asrwt>0</asrwt>
<pdfrwt beam="1">  1        1 0.19810656E+00 0.20984453E+04</pdfrwt>
<pdfrwt beam="2">  1       -1 0.13152544E+00 0.20984453E+04</pdfrwt>
<totfact> 0.41809040E+00</totfact>
</mgrwt>
</event>
<event>
 6    1  0.8968082E-007  0.3059049E+04  0.7818608E-02  0.8227067E-01
         -2   -1    0    0    0  501 -0.00000000000E+00  0.00000000000E+00  0.10458119954E+04  0.10458119954E+04  0.00000000000E+00 0.  1.
          2   -1    0    0  501    0  0.00000000000E+00 -0.00000000000E+00 -0.22369654773E+04  0.22369654773E+04  0.00000000000E+00 0. -1.
         23    2    1    2    0    0  0.60038814702E+03 -0.93331099541E+03 -0.17234939141E+04  0.20519559271E+04  0.92501425177E+02 0.  0.
         13    1    3    3    0    0 -0.20742807644E+01 -0.14132604569E+02 -0.27822676395E+02  0.31275141476E+02  0.00000000000E+00 0. -1.
        -13    1    3    3    0    0  0.60246242779E+03 -0.91917839084E+03 -0.16956712377E+04  0.20206807856E+04  0.00000000000E+00 0.  1.
         22    1    1    2    0    0 -0.60038814702E+03  0.93331099541E+03  0.53234043221E+03  0.12308215456E+04  0.00000000000E+00 0.  1.
<mgrwt>
<rscale>  0 0.30590491E+04</rscale>
<asrwt>0</asrwt>
<pdfrwt beam="1">  1        2 0.34414853E+00 0.30590491E+04</pdfrwt>
<pdfrwt beam="2">  1       -2 0.16089415E+00 0.30590491E+04</pdfrwt>
<totfact> 0.10401700E+00</totfact>
</mgrwt>
</event>
<event>
 6    1  0.8968082E-007  0.2064656E+04  0.7818608E-02  0.8576974E-01
         -1   -1    0    0    0  501 -0.00000000000E+00  0.00000000000E+00  0.66236108278E+03  0.66236108278E+03  0.00000000000E+00 0.  1.
          1   -1    0    0  501    0  0.00000000000E+00 -0.00000000000E+00 -0.16089428772E+04  0.16089428772E+04  0.00000000000E+00 0. -1.
         23    2    1    2    0    0 -0.78167763592E+03 -0.13995059516E+03 -0.11962505242E+04  0.14388734402E+04  0.93463173552E+02 0.  0.
         11    1    3    3    0    0 -0.34662399824E+03 -0.10628359824E+03 -0.51339898889E+03  0.62850848936E+03  0.00000000000E+00 0. -1.
        -11    1    3    3    0    0 -0.43505363768E+03 -0.33666996925E+02 -0.68285153530E+03  0.81036495088E+03  0.00000000000E+00 0.  1.
         22    1    1    2    0    0  0.78167763592E+03  0.13995059516E+03  0.24966872977E+03  0.83243051975E+03  0.00000000000E+00 0.  1.
<mgrwt>
<rscale>  0 0.20646560E+04</rscale>
<asrwt>0</asrwt>
<pdfrwt beam="1">  1        1 0.24752967E+00 0.20646560E+04</pdfrwt>
<pdfrwt beam="2">  1       -1 0.10190170E+00 0.20646560E+04</pdfrwt>
<totfact> 0.46317304E+00</totfact>
</mgrwt>
</event>
<event>
 6    1  0.8968082E-007  0.1225356E+04  0.7818608E-02  0.9090948E-01
         -2   -1    0    0    0  501 -0.00000000000E+00  0.00000000000E+00  0.63948628867E+03  0.63948628867E+03  0.00000000000E+00 0.  1.
          2   -1    0    0  501    0  0.00000000000E+00 -0.00000000000E+00 -0.58699354290E+03  0.58699354290E+03  0.00000000000E+00 0. -1.
         23    2    1    2    0    0  0.59904837876E+02 -0.17145567363E+03 -0.55570347298E+03  0.59174502229E+03  0.91488709169E+02 0.  0.
         11    1    3    3    0    0  0.45060962370E+02 -0.21984262141E+02 -0.98954434876E+02  0.11093141256E+03  0.00000000000E+00 0.  1.
        -11    1    3    3    0    0  0.14843875506E+02 -0.14947141149E+03 -0.45674903810E+03  0.48081360973E+03  0.00000000000E+00 0. -1.
         22    1    1    2    0    0 -0.59904837876E+02  0.17145567363E+03  0.60819621874E+03  0.63473480928E+03  0.00000000000E+00 0.  1.
<mgrwt>
<rscale>  0 0.12253560E+04</rscale>
<asrwt>0</asrwt>
<pdfrwt beam="1">  1        2 0.90306699E-01 0.12253560E+04</pdfrwt>
<pdfrwt beam="2">  1       -2 0.98382506E-01 0.12253560E+04</pdfrwt>
<totfact> 0.43081263E+01</totfact>
</mgrwt>
</event>
<event>
 6    1  0.8968082E-007  0.1332860E+04  0.7818608E-02  0.9003905E-01
          1   -1    0    0  501    0  0.00000000000E+00  0.00000000000E+00  0.49099139973E+03  0.49099139973E+03  0.00000000000E+00 0. -1.
         -1   -1    0    0    0  501 -0.00000000000E+00 -0.00000000000E+00 -0.90455557538E+03  0.90455557538E+03  0.00000000000E+00 0.  1.
         23    2    1    2    0    0 -0.57861507324E+03  0.32237603304E+03 -0.24533329214E+03  0.71215591588E+03  0.90862063759E+02 0.  0.
         13    1    3    3    0    0 -0.16639339727E+03  0.13099908636E+03 -0.50721727889E+02  0.21776183542E+03  0.00000000000E+00 0. -1.
        -13    1    3    3    0    0 -0.41222167597E+03  0.19137694668E+03 -0.19461156425E+03  0.49439408046E+03  0.00000000000E+00 0.  1.
         22    1    1    2    0    0  0.57861507324E+03 -0.32237603304E+03 -0.16823088351E+03  0.68339105922E+03  0.00000000000E+00 0.  1.
<mgrwt>
<rscale>  0 0.13328601E+04</rscale>
<asrwt>0</asrwt>
<pdfrwt beam="1">  1        1 0.75537139E-01 0.13328601E+04</pdfrwt>
<pdfrwt beam="2">  1       -1 0.13916240E+00 0.13328601E+04</pdfrwt>
<totfact> 0.18970381E+01</totfact>
</mgrwt>
</event>
<event>
 6    1  0.8968082E-007  0.1740156E+04  0.7818608E-02  0.8738788E-01
          2   -1    0    0  501    0  0.00000000000E+00  0.00000000000E+00  0.10401370944E+04  0.10401370944E+04  0.00000000000E+00 0. -1.
         -2   -1    0    0    0  501 -0.00000000000E+00 -0.00000000000E+00 -0.72782316585E+03  0.72782316585E+03  0.00000000000E+00 0.  1.
         23    2    1    2    0    0 -0.53931338719E+03  0.64569370590E+03 -0.59479934487E+02  0.84817225860E+03  0.89883403392E+02 0.  0.
         13    1    3    3    0    0 -0.42526148165E+03  0.44932846312E+03 -0.54116038989E+02  0.62102491192E+03  0.00000000000E+00 0.  1.
        -13    1    3    3    0    0 -0.11405190554E+03  0.19636524278E+03 -0.53638954983E+01  0.22714734668E+03  0.00000000000E+00 0. -1.
         22    1    1    2    0    0  0.53931338719E+03 -0.64569370590E+03  0.37179386308E+03  0.91978800170E+03  0.00000000000E+00 0. -1.
<mgrwt>
<rscale>  0 0.17401562E+04</rscale>
<asrwt>0</asrwt>
<pdfrwt beam="1">  1        2 0.16002109E+00 0.17401562E+04</pdfrwt>
<pdfrwt beam="2">  1       -2 0.11197280E+00 0.17401562E+04</pdfrwt>
<totfact> 0.14175977E+01</totfact>
</mgrwt>
</event>
<event>
 6    1  0.8968082E-007  0.1887290E+04  0.7818608E-02  0.8661209E-01
         -1   -1    0    0    0  501 -0.00000000000E+00  0.00000000000E+00  0.55095432040E+03  0.55095432040E+03  0.00000000000E+00 0.  1.
          1   -1    0    0  501    0  0.00000000000E+00 -0.00000000000E+00 -0.16162239841E+04  0.16162239841E+04  0.00000000000E+00 0. -1.
         23    2    1    2    0    0 -0.78328502496E+03 -0.32900388766E+02 -0.11324374994E+04  0.13803305530E+04  0.90993843340E+02 0.  0.
         11    1    3    3    0    0 -0.51545203963E+03 -0.59531215830E+02 -0.70891396937E+03  0.87851794904E+03  0.00000000000E+00 0. -1.
        -11    1    3    3    0    0 -0.26783298533E+03  0.26630827064E+02 -0.42352353003E+03  0.50181260393E+03  0.00000000000E+00 0.  1.
         22    1    1    2    0    0  0.78328502496E+03  0.32900388766E+02  0.67167835709E+02  0.78684775151E+03  0.00000000000E+00 0.  1.
<mgrwt>
<rscale>  0 0.18872897E+04</rscale>
<asrwt>0</asrwt>
<pdfrwt beam="1">  1        1 0.24864984E+00 0.18872897E+04</pdfrwt>
<pdfrwt beam="2">  1       -1 0.84762204E-01 0.18872897E+04</pdfrwt>
<totfact> 0.70162592E+00</totfact>
</mgrwt>
</event>
<event>
 6    1  0.8968082E-007  0.3279517E+04  0.7818608E-02  0.8168127E-01
         -1   -1    0    0    0  501 -0.00000000000E+00  0.00000000000E+00  0.10749562342E+04  0.10749562342E+04  0.00000000000E+00 0.  1.
          1   -1    0    0  501    0  0.00000000000E+00 -0.00000000000E+00 -0.25013189660E+04  0.25013189660E+04  0.00000000000E+00 0. -1.
         23    2    1    2    0    0 -0.14611388613E+04  0.52154829347E+03 -0.13918883210E+03  0.15603992015E+04  0.92372845390E+02 0.  0.
         11    1    3    3    0    0 -0.91502110005E+03  0.36014968032E+03 -0.56615819965E+02  0.98497551078E+03  0.00000000000E+00 0.  1.
        -11    1    3    3    0    0 -0.54611776124E+03  0.16139861315E+03 -0.82573012136E+02  0.57542369069E+03  0.00000000000E+00 0. -1.
         22    1    1    2    0    0  0.14611388613E+04 -0.52154829347E+03 -0.12871738997E+04  0.20158759988E+04  0.00000000000E+00 0. -1.
<mgrwt>
<rscale>  0 0.32795173E+04</rscale>
<asrwt>0</asrwt>
<pdfrwt beam="1">  1        1 0.38481830E+00 0.32795173E+04</pdfrwt>
<pdfrwt beam="2">  1       -1 0.16537788E+00 0.32795173E+04</pdfrwt>
<totfact> 0.29904191E-01</totfact>
</mgrwt>
</event>
<event>
 6    1  0.8968082E-007  0.1685922E+04  0.7818608E-02  0.8769435E-01
         -1   -1    0    0    0  501 -0.00000000000E+00  0.00000000000E+00  0.36826295314E+03  0.36826295314E+03  0.00000000000E+00 0.  1.
          1   -1    0    0  501    0  0.00000000000E+00 -0.00000000000E+00 -0.19295537868E+04  0.19295537868E+04  0.00000000000E+00 0. -1.
         23    2    1    2    0    0 -0.42212400022E+03  0.34868159563E+03 -0.16520742227E+04  0.17428310190E+04  0.91341101181E+02 0.  0.
         11    1    3    3    0    0 -0.47063662346E+02  0.25334498422E+02 -0.96193156294E+02  0.11004521090E+03  0.00000000000E+00 0. -1.
        -11    1    3    3    0    0 -0.37506033787E+03  0.32334709720E+03 -0.15558810665E+04  0.16327858081E+04  0.00000000000E+00 0.  1.
         22    1    1    2    0    0  0.42212400022E+03 -0.34868159563E+03  0.90783389070E+02  0.55498572091E+03  0.00000000000E+00 0.  1.
<mgrwt>
<rscale>  0 0.16859219E+04</rscale>
<asrwt>0</asrwt>
<pdfrwt beam="1">  1        1 0.29685443E+00 0.16859219E+04</pdfrwt>
<pdfrwt beam="2">  1       -1 0.56655839E-01 0.16859219E+04</pdfrwt>
<totfact> 0.99966596E+00</totfact>
</mgrwt>
</event>
<event>
 6    1  0.8968082E-007  0.1423396E+04  0.7818608E-02  0.8937055E-01
          1   -1    0    0  501    0  0.00000000000E+00  0.00000000000E+00  0.17722503849E+04  0.17722503849E+04  0.00000000000E+00 0. -1.
         -1   -1    0    0    0  501 -0.00000000000E+00 -0.00000000000E+00 -0.28580285102E+03  0.28580285102E+03  0.00000000000E+00 0.  1.
         23    2    1    2    0    0 -0.65039021929E+03 -0.27032102591E+03  0.63039065618E+03  0.94948917721E+03  0.89757583646E+02 0.  0.
         11    1    3    3    0    0 -0.32871150910E+03 -0.10094276261E+03  0.34720507369E+03  0.48866354554E+03  0.00000000000E+00 0. -1.
        -11    1    3    3    0    0 -0.32167871019E+03 -0.16937826331E+03  0.28318558249E+03  0.46082563167E+03  0.00000000000E+00 0.  1.
         22    1    1    2    0    0  0.65039021929E+03  0.27032102591E+03  0.85605687770E+03  0.11085640587E+04  0.00000000000E+00 0.  1.
<mgrwt>
<rscale>  0 0.14233962E+04</rscale>
<asrwt>0</asrwt>
<pdfrwt beam="1">  1        1 0.27265390E+00 0.14233962E+04</pdfrwt>
<pdfrwt beam="2">  1       -1 0.43969671E-01 0.14233962E+04</pdfrwt>
<totfact> 0.21183158E+01</totfact>
</mgrwt>
</event>
<event>
 6    1  0.8968082E-007  0.3016282E+04  0.7818608E-02  0.8239097E-01
          2   -1    0    0  501    0  0.00000000000E+00  0.00000000000E+00  0.17872638754E+04  0.17872638754E+04  0.00000000000E+00 0. -1.
         -2   -1    0    0    0  501 -0.00000000000E+00 -0.00000000000E+00 -0.12726097739E+04  0.12726097739E+04  0.00000000000E+00 0.  1.
         23    2    1    2    0    0 -0.12496965548E+04  0.37708928687E+03  0.10204874224E+04  0.16599432375E+04  0.10039503526E+03 0.  0.
         11    1    3    3    0    0 -0.49603060983E+03  0.19784713571E+03  0.39426122115E+03  0.66380099841E+03  0.00000000000E+00 0.  1.
        -11    1    3    3    0    0 -0.75366594502E+03  0.17924215117E+03  0.62622620123E+03  0.99614223911E+03  0.00000000000E+00 0. -1.
         22    1    1    2    0    0  0.12496965548E+04 -0.37708928687E+03 -0.50583332084E+03  0.13999304118E+04  0.00000000000E+00 0.  1.
<mgrwt>
<rscale>  0 0.30162821E+04</rscale>
<asrwt>0</asrwt>
<pdfrwt beam="1">  1        2 0.27496367E+00 0.30162821E+04</pdfrwt>
<pdfrwt beam="2">  1       -2 0.19578612E+00 0.30162821E+04</pdfrwt>
<totfact> 0.10633060E+00</totfact>
</mgrwt>
</event>
<event>
 6    1  0.8968082E-007  0.1457593E+04  0.7818608E-02  0.8913154E-01
          2   -1    0    0  501    0  0.00000000000E+00  0.00000000000E+00  0.15123883014E+04  0.15123883014E+04  0.00000000000E+00 0. -1.
         -2   -1    0    0    0  501 -0.00000000000E+00 -0.00000000000E+00 -0.35119552045E+03  0.35119552045E+03  0.00000000000E+00 0.  1.
         23    2    1    2    0    0 -0.80180640903E+02  0.45410290827E+03 -0.13382732996E+03  0.48891459830E+03  0.92137634610E+02 0.  0.
         11    1    3    3    0    0 -0.71645332164E+02  0.15225946950E+03 -0.48918446820E+02  0.17523987592E+03  0.00000000000E+00 0. -1.
        -11    1    3    3    0    0 -0.85353087382E+01  0.30184343877E+03 -0.84908883144E+02  0.31367472238E+03  0.00000000000E+00 0.  1.
         22    1    1    2    0    0  0.80180640903E+02 -0.45410290827E+03  0.12950201110E+04  0.13746692236E+04  0.00000000000E+00 0. -1.
<mgrwt>
<rscale>  0 0.14575925E+04</rscale>
<asrwt>0</asrwt>
<pdfrwt beam="1">  1        2 0.23267512E+00 0.14575925E+04</pdfrwt>
<pdfrwt beam="2">  1       -2 0.54030081E-01 0.14575925E+04</pdfrwt>
<totfact> 0.39049992E+01</totfact>
</mgrwt>
</event>
<event>
 6    1  0.8968082E-007  0.5011598E+03  0.7818608E-02  0.1013477E+00
          1   -1    0    0  501    0  0.00000000000E+00  0.00000000000E+00  0.79700882447E+03  0.79700882447E+03  0.00000000000E+00 0. -1.
         -1   -1    0    0    0  501 -0.00000000000E+00 -0.00000000000E+00 -0.78782425309E+02  0.78782425309E+02  0.00000000000E+00 0.  1.
         23    2    1    2    0    0  0.49042277872E+02  0.15343394131E+03  0.51005139305E+02  0.18940117922E+03  0.85581324411E+02 0.  0.
         13    1    3    3    0    0  0.39744196036E+01  0.32104414753E+02  0.50497596077E+02  0.59970798456E+02  0.00000000000E+00 0. -1.
        -13    1    3    3    0    0  0.45067858268E+02  0.12132952656E+03  0.50754322728E+00  0.12943038076E+03  0.00000000000E+00 0.  1.
         22    1    1    2    0    0 -0.49042277872E+02 -0.15343394131E+03  0.66722125985E+03  0.68639007056E+03  0.00000000000E+00 0. -1.
<mgrwt>
<rscale>  0 0.50115981E+03</rscale>
<asrwt>0</asrwt>
<pdfrwt beam="1">  1        1 0.12261674E+00 0.50115981E+03</pdfrwt>
<pdfrwt beam="2">  1       -1 0.12120374E-01 0.50115981E+03</pdfrwt>
<totfact> 0.10423364E+03</totfact>
</mgrwt>
</event>
<event>
 6    1  0.8968082E-007  0.2701534E+04  0.7818608E-02  0.8334508E-01
          2   -1    0    0  501    0  0.00000000000E+00  0.00000000000E+00  0.12569018205E+04  0.12569018205E+04  0.00000000000E+00 0. -1.
         -2   -1    0    0    0  501 -0.00000000000E+00 -0.00000000000E+00 -0.14516417083E+04  0.14516417083E+04  0.00000000000E+00 0.  1.
         23    2    1    2    0    0 -0.43226104520E+03  0.34242902126E+03  0.11363232669E+04  0.12677672215E+04  0.10906839770E+03 0.  0.
         13    1    3    3    0    0 -0.19307552800E+03  0.12124968528E+03  0.57815118035E+03  0.62148083883E+03  0.00000000000E+00 0. -1.
        -13    1    3    3    0    0 -0.23918551720E+03  0.22117933598E+03  0.55817208652E+03  0.64628638271E+03  0.00000000000E+00 0.  1.
         22    1    1    2    0    0  0.43226104520E+03 -0.34242902126E+03 -0.13310631547E+04  0.14407763073E+04  0.00000000000E+00 0.  1.
<mgrwt>
<rscale>  0 0.27015337E+04</rscale>
<asrwt>0</asrwt>
<pdfrwt beam="1">  1        2 0.19336951E+00 0.27015337E+04</pdfrwt>
<pdfrwt beam="2">  1       -2 0.22332949E+00 0.27015337E+04</pdfrwt>
<totfact> 0.14472693E+00</totfact>
</mgrwt>
</event>
<event>
 6    1  0.8968082E-007  0.2261247E+04  0.7818608E-02  0.8493360E-01
         -2   -1    0    0    0  501 -0.00000000000E+00  0.00000000000E+00  0.60646582928E+03  0.60646582928E+03  0.00000000000E+00 0.  1.
          2   -1    0    0  501    0  0.00000000000E+00 -0.00000000000E+00 -0.21078009752E+04  0.21078009752E+04  0.00000000000E+00 0. -1.
         23    2    1    2    0    0 -0.40920659067E+03 -0.43592343290E+03 -0.19010274113E+04  0.19950775524E+04  0.94604167472E+02 0.  0.
         13    1    3    3    0    0 -0.52704314651E+02 -0.72876167944E+02 -0.40579016067E+03  0.41563726389E+03  0.00000000000E+00 0. -1.
        -13    1    3    3    0    0 -0.35650227601E+03 -0.36304726496E+03 -0.14952372507E+04  0.15794402886E+04  0.00000000000E+00 0.  1.
         22    1    1    2    0    0  0.40920659067E+03  0.43592343290E+03  0.39969226541E+03  0.71918925202E+03  0.00000000000E+00 0.  1.
<mgrwt>
<rscale>  0 0.22612468E+04</rscale>
<asrwt>0</asrwt>
<pdfrwt beam="1">  1        2 0.32427708E+00 0.22612468E+04</pdfrwt>
<pdfrwt beam="2">  1       -2 0.93302435E-01 0.22612468E+04</pdfrwt>
<totfact> 0.51422163E+00</totfact>
</mgrwt>
</event>
<event>
 6    1  0.8968082E-007  0.3225964E+04  0.7818608E-02  0.8181994E-01
         -2   -1    0    0    0  501 -0.00000000000E+00  0.00000000000E+00  0.29435453075E+04  0.29435453075E+04  0.00000000000E+00 0.  1.
          2   -1    0    0  501    0  0.00000000000E+00 -0.00000000000E+00 -0.88386994971E+03  0.88386994971E+03  0.00000000000E+00 0. -1.
         23    2    1    2    0    0  0.96229561348E+02 -0.15757373309E+04  0.64543218105E+03  0.17079124789E+04  0.90410566603E+02 0.  0.
         13    1    3    3    0    0  0.23065604182E+01 -0.77668062010E+03  0.32109522457E+03  0.84044050896E+03  0.00000000000E+00 0. -1.
        -13    1    3    3    0    0  0.93923000930E+02 -0.79905671083E+03  0.32433695648E+03  0.86747196990E+03  0.00000000000E+00 0.  1.
         22    1    1    2    0    0 -0.96229561348E+02  0.15757373309E+04  0.14142431768E+04  0.21195027784E+04  0.00000000000E+00 0.  1.
<mgrwt>
<rscale>  0 0.32259642E+04</rscale>
<asrwt>0</asrwt>
<pdfrwt beam="1">  1        2 0.13597999E+00 0.32259642E+04</pdfrwt>
<pdfrwt beam="2">  1       -2 0.45285312E+00 0.32259642E+04</pdfrwt>
<totfact> 0.83852505E-02</totfact>
</mgrwt>
</event>
<event>
 6    1  0.8968082E-007  0.1541727E+04  0.7818608E-02  0.8857170E-01
         -2   -1    0    0    0  501 -0.00000000000E+00  0.00000000000E+00  0.36487622811E+03  0.36487622811E+03  0.00000000000E+00 0.  1.
          2   -1    0    0  501    0  0.00000000000E+00 -0.00000000000E+00 -0.16285804930E+04  0.16285804930E+04  0.00000000000E+00 0. -1.
         23    2    1    2    0    0  0.47832651461E+03 -0.58836508676E+03 -0.47567590892E+03  0.89985788257E+03  0.92232904126E+02 0.  0.
         11    1    3    3    0    0  0.21205451578E+03 -0.28042286721E+03 -0.16847478758E+03  0.38985619935E+03  0.00000000000E+00 0.  1.
        -11    1    3    3    0    0  0.26627199883E+03 -0.30794221954E+03 -0.30720112134E+03  0.51000168322E+03  0.00000000000E+00 0. -1.
         22    1    1    2    0    0 -0.47832651461E+03  0.58836508676E+03 -0.78802835601E+03  0.10935988386E+04  0.00000000000E+00 0. -1.
<mgrwt>
<rscale>  0 0.15417267E+04</rscale>
<asrwt>0</asrwt>
<pdfrwt beam="1">  1        2 0.25055084E+00 0.15417267E+04</pdfrwt>
<pdfrwt beam="2">  1       -2 0.56134805E-01 0.15417267E+04</pdfrwt>
<totfact> 0.30840319E+01</totfact>
</mgrwt>
</event>
<event>
 6    1  0.8968082E-007  0.4379138E+04  0.7818608E-02  0.7932145E-01
         -2   -1    0    0    0  501 -0.00000000000E+00  0.00000000000E+00  0.19244725295E+04  0.19244725295E+04  0.00000000000E+00 0.  1.
          2   -1    0    0  501    0  0.00000000000E+00 -0.00000000000E+00 -0.24911825731E+04  0.24911825731E+04  0.00000000000E+00 0. -1.
         23    2    1    2    0    0  0.11426143040E+04  0.71076792982E+03 -0.20239176969E+04  0.24321701285E+04  0.91924927558E+02 0.  0.
         13    1    3    3    0    0  0.52512585476E+03  0.28449869220E+03 -0.94832592765E+03  0.11207224162E+04  0.00000000000E+00 0. -1.
        -13    1    3    3    0    0  0.61748844925E+03  0.42626923761E+03 -0.10755917692E+04  0.13114477122E+04  0.00000000000E+00 0.  1.
         22    1    1    2    0    0 -0.11426143040E+04 -0.71076792982E+03  0.14572076533E+04  0.19834849741E+04  0.00000000000E+00 0.  1.
<mgrwt>
<rscale>  0 0.43791380E+04</rscale>
<asrwt>0</asrwt>
<pdfrwt beam="1">  1        2 0.38325886E+00 0.43791380E+04</pdfrwt>
<pdfrwt beam="2">  1       -2 0.29607270E+00 0.43791380E+04</pdfrwt>
<totfact> 0.90533526E-02</totfact>
</mgrwt>
</event>
<event>
 6    1  0.8968082E-007  0.2299258E+04  0.7818608E-02  0.8478214E-01
         -1   -1    0    0    0  501 -0.00000000000E+00  0.00000000000E+00  0.49578973524E+03  0.49578973524E+03  0.00000000000E+00 0.  1.
          1   -1    0    0  501    0  0.00000000000E+00 -0.00000000000E+00 -0.26657412412E+04  0.26657412412E+04  0.00000000000E+00 0. -1.
         23    2    1    2    0    0 -0.58398967359E+03 -0.46035112007E+03  0.11551065973E+03  0.75813662607E+03  0.91985535151E+02 0.  0.
         13    1    3    3    0    0 -0.25064828251E+03 -0.25427365603E+03  0.43598971705E+02  0.35969504307E+03  0.00000000000E+00 0. -1.
        -13    1    3    3    0    0 -0.33334139108E+03 -0.20607746404E+03  0.71911688022E+02  0.39844158300E+03  0.00000000000E+00 0.  1.
         22    1    1    2    0    0  0.58398967359E+03  0.46035112007E+03 -0.22854621657E+04  0.24033943504E+04  0.00000000000E+00 0. -1.
<mgrwt>
<rscale>  0 0.22992583E+04</rscale>
<asrwt>0</asrwt>
<pdfrwt beam="1">  1        1 0.41011405E+00 0.22992583E+04</pdfrwt>
<pdfrwt beam="2">  1       -1 0.76275342E-01 0.22992583E+04</pdfrwt>
<totfact> 0.16185314E+00</totfact>
</mgrwt>
</event>
<event>
 6    1  0.8968082E-007  0.1389267E+04  0.7818608E-02  0.8961624E-01
          2   -1    0    0  501    0  0.00000000000E+00  0.00000000000E+00  0.15908375006E+04  0.15908375006E+04  0.00000000000E+00 0. -1.
         -2   -1    0    0    0  501 -0.00000000000E+00 -0.00000000000E+00 -0.30330924612E+03  0.30330924612E+03  0.00000000000E+00 0.  1.
         23    2    1    2    0    0 -0.22050932855E+02  0.29245287483E+03 -0.20580195109E+03  0.37228931894E+03  0.10114329582E+03 0.  0.
         11    1    3    3    0    0 -0.35259487914E+02  0.67833097874E+02 -0.93613826640E+02  0.12086401116E+03  0.00000000000E+00 0.  1.
        -11    1    3    3    0    0  0.13208555059E+02  0.22461977696E+03 -0.11218812445E+03  0.25142530778E+03  0.00000000000E+00 0. -1.
         22    1    1    2    0    0  0.22050932855E+02 -0.29245287483E+03  0.14933302055E+04  0.15218574277E+04  0.00000000000E+00 0. -1.
<mgrwt>
<rscale>  0 0.13892670E+04</rscale>
<asrwt>0</asrwt>
<pdfrwt beam="1">  1        2 0.24474423E+00 0.13892670E+04</pdfrwt>
<pdfrwt beam="2">  1       -2 0.46662962E-01 0.13892670E+04</pdfrwt>
<totfact> 0.47845102E+01</totfact>
</mgrwt>
</event>
<event>
 6    1  0.1441571E-006  0.2445989E+04  0.7818608E-02  0.8422484E-01
         -1   -1    0    0    0  501 -0.00000000000E+00  0.00000000000E+00  0.83507273818E+03  0.83507273818E+03  0.00000000000E+00 0.  1.
          1   -1    0    0  501    0  0.00000000000E+00 -0.00000000000E+00 -0.17911204437E+04  0.17911204437E+04  0.00000000000E+00 0. -1.
         23    2    1    2    0    0 -0.18628010760E+03  0.35334549569E+03  0.76029036789E+03  0.86398726313E+03  0.94229663756E+02 0.  0.
         11    1    3    3    0    0 -0.11483180328E+03  0.16694619366E+03  0.46856191955E+03  0.51049745061E+03  0.00000000000E+00 0. -1.
        -11    1    3    3    0    0 -0.71448304316E+02  0.18639930203E+03  0.29172844834E+03  0.35348981252E+03  0.00000000000E+00 0.  1.
         22    1    1    2    0    0  0.18628010760E+03 -0.35334549569E+03 -0.17163380734E+04  0.17622059187E+04  0.00000000000E+00 0. -1.
<mgrwt>
<rscale>  0 0.24459893E+04</rscale>
<asrwt>0</asrwt>
<pdfrwt beam="1">  1        1 0.27555699E+00 0.24459893E+04</pdfrwt>
<pdfrwt beam="2">  1       -1 0.12847273E+00 0.24459893E+04</pdfrwt>
<totfact> 0.19264264E+00</totfact>
</mgrwt>
</event>
<event>
 6    1  0.8968082E-007  0.1028557E+04  0.7818608E-02  0.9277767E-01
         -2   -1    0    0    0  501 -0.00000000000E+00  0.00000000000E+00  0.13373059334E+03  0.13373059334E+03  0.00000000000E+00 0.  1.
          2   -1    0    0  501    0  0.00000000000E+00 -0.00000000000E+00 -0.19777257796E+04  0.19777257796E+04  0.00000000000E+00 0. -1.
         23    2    1    2    0    0 -0.48788788032E+02  0.15765147900E+03 -0.19203960470E+04  0.19296008639E+04  0.90576941134E+02 0.  0.
         13    1    3    3    0    0 -0.36553523127E+02  0.12793732047E+03 -0.10213302181E+04  0.10299609373E+04  0.00000000000E+00 0.  1.
        -13    1    3    3    0    0 -0.12235264905E+02  0.29714158531E+02 -0.89906582886E+03  0.89963992661E+03  0.00000000000E+00 0. -1.
         22    1    1    2    0    0  0.48788788032E+02 -0.15765147900E+03  0.76400860646E+02  0.18185550906E+03  0.00000000000E+00 0.  1.
<mgrwt>
<rscale>  0 0.10285571E+04</rscale>
<asrwt>0</asrwt>
<pdfrwt beam="1">  1        2 0.30426550E+00 0.10285571E+04</pdfrwt>
<pdfrwt beam="2">  1       -2 0.20573938E-01 0.10285571E+04</pdfrwt>
<totfact> 0.13976430E+02</totfact>
</mgrwt>
</event>
<event>
 6    1  0.8968082E-007  0.1318453E+04  0.7818608E-02  0.9015058E-01
          2   -1    0    0  501    0  0.00000000000E+00  0.00000000000E+00  0.20248174938E+04  0.20248174938E+04  0.00000000000E+00 0. -1.
         -2   -1    0    0    0  501 -0.00000000000E+00 -0.00000000000E+00 -0.21462651614E+03  0.21462651614E+03  0.00000000000E+00 0.  1.
         23    2    1    2    0    0  0.43911695540E+02 -0.59145293711E+03  0.13859591931E+04  0.15102544455E+04  0.90778804553E+02 0.  0.
         11    1    3    3    0    0  0.73974694506E+00 -0.47634655235E+03  0.10711182458E+04  0.11722631452E+04  0.00000000000E+00 0.  1.
        -11    1    3    3    0    0  0.43171948595E+02 -0.11510638476E+03  0.31484094734E+03  0.33799130031E+03  0.00000000000E+00 0. -1.
         22    1    1    2    0    0 -0.43911695540E+02  0.59145293711E+03  0.42423178449E+03  0.72918956438E+03  0.00000000000E+00 0.  1.
<mgrwt>
<rscale>  0 0.13184529E+04</rscale>
<asrwt>0</asrwt>
<pdfrwt beam="1">  1        2 0.31151037E+00 0.13184529E+04</pdfrwt>
<pdfrwt beam="2">  1       -2 0.33019465E-01 0.13184529E+04</pdfrwt>
<totfact> 0.54288225E+01</totfact>
</mgrwt>
</event>
<event>
 6    1  0.8968082E-007  0.3065620E+04  0.7818608E-02  0.8225237E-01
          2   -1    0    0  501    0  0.00000000000E+00  0.00000000000E+00  0.14061478079E+04  0.14061478079E+04  0.00000000000E+00 0. -1.
         -2   -1    0    0    0  501 -0.00000000000E+00 -0.00000000000E+00 -0.16708812018E+04  0.16708812018E+04  0.00000000000E+00 0.  1.
         23    2    1    2    0    0 -0.83276042125E+03  0.11363621439E+04 -0.73506827332E+03  0.15917600980E+04  0.92552698148E+02 0.  0.
         11    1    3    3    0    0 -0.42704872709E+03  0.54566466332E+03 -0.40731822783E+03  0.80375909253E+03  0.00000000000E+00 0.  1.
        -11    1    3    3    0    0 -0.40571169416E+03  0.59069748053E+03 -0.32775004549E+03  0.78800100546E+03  0.00000000000E+00 0. -1.
         22    1    1    2    0    0  0.83276042125E+03 -0.11363621439E+04  0.47033487949E+03  0.14852689117E+04  0.00000000000E+00 0.  1.
<mgrwt>
<rscale>  0 0.30656196E+04</rscale>
<asrwt>0</asrwt>
<pdfrwt beam="1">  1        2 0.21633043E+00 0.30656196E+04</pdfrwt>
<pdfrwt beam="2">  1       -2 0.25705865E+00 0.30656196E+04</pdfrwt>
<totfact> 0.71073448E-01</totfact>
</mgrwt>
</event>
<event>
 6    1  0.8968082E-007  0.4207135E+04  0.7818608E-02  0.7964016E-01
         -1   -1    0    0    0  501 -0.00000000000E+00  0.00000000000E+00  0.95614047264E+03  0.95614047264E+03  0.00000000000E+00 0.  1.
          1   -1    0    0  501    0  0.00000000000E+00 -0.00000000000E+00 -0.46279765709E+04  0.46279765709E+04  0.00000000000E+00 0. -1.
         23    2    1    2    0    0  0.10323719172E+04 -0.12294328587E+04 -0.36389037111E+04  0.39783831080E+04  0.92817056672E+02 0.  0.
         13    1    3    3    0    0  0.25534320146E+03 -0.35614298089E+03 -0.10531193197E+04  0.11406569488E+04  0.00000000000E+00 0. -1.
        -13    1    3    3    0    0  0.77702871573E+03 -0.87328987778E+03 -0.25857843915E+04  0.28377261592E+04  0.00000000000E+00 0.  1.
         22    1    1    2    0    0 -0.10323719172E+04  0.12294328587E+04 -0.32932387089E+02  0.16057339355E+04  0.00000000000E+00 0.  1.
<mgrwt>
<rscale>  0 0.42071348E+04</rscale>
<asrwt>0</asrwt>
<pdfrwt beam="1">  1        1 0.71199640E+00 0.42071348E+04</pdfrwt>
<pdfrwt beam="2">  1       -1 0.14709853E+00 0.42071348E+04</pdfrwt>
<totfact> 0.66341428E-03</totfact>
</mgrwt>
</event>
<event>
 6    1  0.8968082E-007  0.1847010E+04  0.7818608E-02  0.8681692E-01
          2   -1    0    0  501    0  0.00000000000E+00  0.00000000000E+00  0.10627276834E+04  0.10627276834E+04  0.00000000000E+00 0. -1.
         -2   -1    0    0    0  501 -0.00000000000E+00 -0.00000000000E+00 -0.80252108031E+03  0.80252108031E+03  0.00000000000E+00 0.  1.
         23    2    1    2    0    0  0.36396916320E+03  0.48411378660E+03  0.83114891753E+03  0.10328937694E+04  0.96027629022E+02 0.  0.
         13    1    3    3    0    0  0.90226604219E+02  0.19020855255E+03  0.25725700837E+03  0.33241736105E+03  0.00000000000E+00 0. -1.
        -13    1    3    3    0    0  0.27374255898E+03  0.29390523405E+03  0.57389190916E+03  0.70047640831E+03  0.00000000000E+00 0.  1.
         22    1    1    2    0    0 -0.36396916320E+03 -0.48411378660E+03 -0.57094231446E+03  0.83235499432E+03  0.00000000000E+00 0.  1.
<mgrwt>
<rscale>  0 0.18470099E+04</rscale>
<asrwt>0</asrwt>
<pdfrwt beam="1">  1        2 0.16349657E+00 0.18470099E+04</pdfrwt>
<pdfrwt beam="2">  1       -2 0.12346478E+00 0.18470099E+04</pdfrwt>
<totfact> 0.10691049E+01</totfact>
</mgrwt>
</event>
<event>
 6    1  0.8968082E-007  0.8989315E+03  0.7818608E-02  0.9426918E-01
         -2   -1    0    0    0  501 -0.00000000000E+00  0.00000000000E+00  0.18417349973E+03  0.18417349973E+03  0.00000000000E+00 0.  1.
          2   -1    0    0  501    0  0.00000000000E+00 -0.00000000000E+00 -0.10968974359E+04  0.10968974359E+04  0.00000000000E+00 0. -1.
         23    2    1    2    0    0  0.13443495447E+03 -0.33825049989E+03 -0.97038430478E+02  0.38785819397E+03  0.92365383057E+02 0.  0.
         11    1    3    3    0    0  0.94993858567E+01 -0.13338374219E+03 -0.53274256909E+02  0.14394307021E+03  0.00000000000E+00 0. -1.
        -11    1    3    3    0    0  0.12493556861E+03 -0.20486675770E+03 -0.43764173570E+02  0.24391512377E+03  0.00000000000E+00 0.  1.
         22    1    1    2    0    0 -0.13443495447E+03  0.33825049989E+03 -0.81568550568E+03  0.89321274164E+03  0.00000000000E+00 0. -1.
<mgrwt>
<rscale>  0 0.89893145E+03</rscale>
<asrwt>0</asrwt>
<pdfrwt beam="1">  1        2 0.16875345E+00 0.89893145E+03</pdfrwt>
<pdfrwt beam="2">  1       -2 0.28334385E-01 0.89893145E+03</pdfrwt>
<totfact> 0.24981284E+02</totfact>
</mgrwt>
</event>
<event>
 6    1  0.8968082E-007  0.3938662E+04  0.7818608E-02  0.8017036E-01
         -1   -1    0    0    0  501 -0.00000000000E+00  0.00000000000E+00  0.13080707943E+04  0.13080707943E+04  0.00000000000E+00 0.  1.
          1   -1    0    0  501    0  0.00000000000E+00 -0.00000000000E+00 -0.29648743233E+04  0.29648743233E+04  0.00000000000E+00 0. -1.
         23    2    1    2    0    0  0.61121913769E+03 -0.59466210274E+03 -0.27533546386E+04  0.28838316641E+04  0.91167156738E+02 0.  0.
         13    1    3    3    0    0  0.29819663154E+03 -0.29036574832E+03 -0.11909772818E+04  0.12616102348E+04  0.00000000000E+00 0.  1.
        -13    1    3    3    0    0  0.31302250615E+03 -0.30429635441E+03 -0.15623773567E+04  0.16222214293E+04  0.00000000000E+00 0. -1.
         22    1    1    2    0    0 -0.61121913769E+03  0.59466210274E+03  0.10965511096E+04  0.13891134535E+04  0.00000000000E+00 0.  1.
<mgrwt>
<rscale>  0 0.39386625E+04</rscale>
<asrwt>0</asrwt>
<pdfrwt beam="1">  1        1 0.45613451E+00 0.39386625E+04</pdfrwt>
<pdfrwt beam="2">  1       -1 0.20124166E+00 0.39386625E+04</pdfrwt>
<totfact> 0.73556655E-02</totfact>
</mgrwt>
</event>
<event>
 6    1  0.8968082E-007  0.6075850E+03  0.7818608E-02  0.9889793E-01
         -1   -1    0    0    0  501 -0.00000000000E+00  0.00000000000E+00  0.94583981623E+03  0.94583981623E+03  0.00000000000E+00 0.  1.
          1   -1    0    0  501    0  0.00000000000E+00 -0.00000000000E+00 -0.97574530745E+02  0.97574530745E+02  0.00000000000E+00 0. -1.
         23    2    1    2    0    0  0.61792531262E+02 -0.56121518420E+02  0.92311307292E+03  0.93129774234E+03  0.90607934158E+02 0.  0.
         13    1    3    3    0    0  0.56188494852E+02 -0.95275979357E+01  0.24408924119E+03  0.25065410378E+03  0.00000000000E+00 0. -1.
        -13    1    3    3    0    0  0.56040364101E+01 -0.46593920484E+02  0.67902383173E+03  0.68064363856E+03  0.00000000000E+00 0.  1.
         22    1    1    2    0    0 -0.61792531262E+02  0.56121518420E+02 -0.74847787442E+02  0.11211660463E+03  0.00000000000E+00 0. -1.
<mgrwt>
<rscale>  0 0.60758498E+03</rscale>
<asrwt>0</asrwt>
<pdfrwt beam="1">  1        1 0.15011467E-01 0.60758498E+03</pdfrwt>
<pdfrwt beam="2">  1       -1 0.14551381E+00 0.60758498E+03</pdfrwt>
<totfact> 0.14917012E+02</totfact>
</mgrwt>
</event>
<event>
 6    1  0.8968082E-007  0.2111543E+04  0.7818608E-02  0.8556176E-01
          2   -1    0    0  501    0  0.00000000000E+00  0.00000000000E+00  0.99101342324E+03  0.99101342324E+03  0.00000000000E+00 0. -1.
         -2   -1    0    0    0  501 -0.00000000000E+00 -0.00000000000E+00 -0.11247608482E+04  0.11247608482E+04  0.00000000000E+00 0.  1.
         23    2    1    2    0    0  0.87822487329E+03  0.44355468092E+03  0.31110211230E+03  0.10360007796E+04  0.92159687064E+02 0.  0.
         13    1    3    3    0    0  0.19628148399E+03  0.14308394800E+03  0.82322125781E+02  0.25646904204E+03  0.00000000000E+00 0. -1.
        -13    1    3    3    0    0  0.68194338930E+03  0.30047073292E+03  0.22877998652E+03  0.77953173751E+03  0.00000000000E+00 0.  1.
         22    1    1    2    0    0 -0.87822487329E+03 -0.44355468092E+03 -0.44484953730E+03  0.10797734919E+04  0.00000000000E+00 0.  1.
<mgrwt>
<rscale>  0 0.21115427E+04</rscale>
<asrwt>0</asrwt>
<pdfrwt beam="1">  1        2 0.15246360E+00 0.21115427E+04</pdfrwt>
<pdfrwt beam="2">  1       -2 0.17304013E+00 0.21115427E+04</pdfrwt>
<totfact> 0.47658059E+00</totfact>
</mgrwt>
</event>
<event>
 6    1  0.8968082E-007  0.6715472E+03  0.7818608E-02  0.9767167E-01
         -2   -1    0    0    0  501 -0.00000000000E+00  0.00000000000E+00  0.13104662141E+03  0.13104662141E+03  0.00000000000E+00 0.  1.
          2   -1    0    0  501    0  0.00000000000E+00 -0.00000000000E+00 -0.86033423004E+03  0.86033423004E+03  0.00000000000E+00 0. -1.
         23    2    1    2    0    0  0.64767058095E+02 -0.95219298711E+02 -0.82740310742E+03  0.84009259095E+03  0.88871663287E+02 0.  0.
         11    1    3    3    0    0  0.71376282688E+02 -0.65968555161E+02 -0.39999874656E+03  0.41163748766E+03  0.00000000000E+00 0. -1.
        -11    1    3    3    0    0 -0.66092245931E+01 -0.29250743550E+02 -0.42740436086E+03  0.42845510328E+03  0.00000000000E+00 0.  1.
         22    1    1    2    0    0 -0.64767058095E+02  0.95219298711E+02  0.98115498791E+02  0.15128826050E+03  0.00000000000E+00 0.  1.
<mgrwt>
<rscale>  0 0.67154715E+03</rscale>
<asrwt>0</asrwt>
<pdfrwt beam="1">  1        2 0.13235912E+00 0.67154715E+03</pdfrwt>
<pdfrwt beam="2">  1       -2 0.20161018E-01 0.67154715E+03</pdfrwt>
<totfact> 0.66094268E+02</totfact>
</mgrwt>
</event>
<event>
 6    1  0.8968082E-007  0.9781885E+03  0.7818608E-02  0.9332796E-01
          2   -1    0    0  501    0  0.00000000000E+00  0.00000000000E+00  0.12269779096E+04  0.12269779096E+04  0.00000000000E+00 0. -1.
         -2   -1    0    0    0  501 -0.00000000000E+00 -0.00000000000E+00 -0.19496126738E+03  0.19496126738E+03  0.00000000000E+00 0.  1.
         23    2    1    2    0    0  0.20517397409E+03  0.38227806904E+03  0.20425268054E+03  0.48736651636E+03  0.87029202292E+02 0.  0.
         13    1    3    3    0    0  0.95565720320E+02  0.11660952675E+03  0.38510914379E+02  0.15560745212E+03  0.00000000000E+00 0.  1.
        -13    1    3    3    0    0  0.10960825377E+03  0.26566854229E+03  0.16574176616E+03  0.33175906424E+03  0.00000000000E+00 0. -1.
         22    1    1    2    0    0 -0.20517397409E+03 -0.38227806904E+03  0.82776396171E+03  0.93457266064E+03  0.00000000000E+00 0. -1.
<mgrwt>
<rscale>  0 0.97818847E+03</rscale>
<asrwt>0</asrwt>
<pdfrwt beam="1">  1        2 0.18876583E+00 0.97818847E+03</pdfrwt>
<pdfrwt beam="2">  1       -2 0.29994042E-01 0.97818847E+03</pdfrwt>
<totfact> 0.18684928E+02</totfact>
</mgrwt>
</event>
<event>
 6    1  0.8968082E-007  0.1382707E+04  0.7818608E-02  0.8966432E-01
          1   -1    0    0  501    0  0.00000000000E+00  0.00000000000E+00  0.55724608633E+03  0.55724608633E+03  0.00000000000E+00 0. -1.
         -1   -1    0    0    0  501 -0.00000000000E+00 -0.00000000000E+00 -0.85773593593E+03  0.85773593593E+03  0.00000000000E+00 0.  1.
         23    2    1    2    0    0  0.41028026327E+02 -0.57250455365E+03 -0.53987536666E+03  0.79308959693E+03  0.89894017187E+02 0.  0.
         11    1    3    3    0    0  0.28783067031E+02 -0.30979472741E+03 -0.23155239495E+03  0.38783727217E+03  0.00000000000E+00 0.  1.
        -11    1    3    3    0    0  0.12244959296E+02 -0.26270982625E+03 -0.30832297172E+03  0.40525232476E+03  0.00000000000E+00 0. -1.
         22    1    1    2    0    0 -0.41028026327E+02  0.57250455365E+03  0.23938551707E+03  0.62189242533E+03  0.00000000000E+00 0. -1.
<mgrwt>
<rscale>  0 0.13827075E+04</rscale>
<asrwt>0</asrwt>
<pdfrwt beam="1">  1        1 0.85730168E-01 0.13827075E+04</pdfrwt>
<pdfrwt beam="2">  1       -1 0.13195937E+00 0.13827075E+04</pdfrwt>
<totfact> 0.18157108E+01</totfact>
</mgrwt>
</event>
<event>
 6    1  0.8968082E-007  0.8398762E+03  0.7818608E-02  0.9504026E-01
         -1   -1    0    0    0  501 -0.00000000000E+00  0.00000000000E+00  0.20889355450E+03  0.20889355450E+03  0.00000000000E+00 0.  1.
          1   -1    0    0  501    0  0.00000000000E+00 -0.00000000000E+00 -0.84420040035E+03  0.84420040035E+03  0.00000000000E+00 0. -1.
         23    2    1    2    0    0 -0.25429278604E+03  0.18835815417E+03 -0.65799533438E+03  0.73582690206E+03  0.91322256088E+02 0.  0.
         11    1    3    3    0    0 -0.22288155729E+03  0.19408826830E+03 -0.56717998776E+03  0.63956202435E+03  0.00000000000E+00 0. -1.
        -11    1    3    3    0    0 -0.31411228750E+02 -0.57301141314E+01 -0.90815346620E+02  0.96264877713E+02  0.00000000000E+00 0.  1.
         22    1    1    2    0    0  0.25429278604E+03 -0.18835815417E+03  0.22688488523E+02  0.31726705279E+03  0.00000000000E+00 0.  1.
<mgrwt>
<rscale>  0 0.83987623E+03</rscale>
<asrwt>0</asrwt>
<pdfrwt beam="1">  1        1 0.12987699E+00 0.83987623E+03</pdfrwt>
<pdfrwt beam="2">  1       -1 0.32137470E-01 0.83987623E+03</pdfrwt>
<totfact> 0.18459833E+02</totfact>
</mgrwt>
</event>
<event>
 6    1  0.8968082E-007  0.1356905E+04  0.7818608E-02  0.8985617E-01
          2   -1    0    0  501    0  0.00000000000E+00  0.00000000000E+00  0.22730097221E+04  0.22730097221E+04  0.00000000000E+00 0. -1.
         -2   -1    0    0    0  501 -0.00000000000E+00 -0.00000000000E+00 -0.20250596066E+03  0.20250596066E+03  0.00000000000E+00 0.  1.
         23    2    1    2    0    0 -0.35748290690E+02  0.65561648224E+03  0.75228106740E+03  0.10028235958E+04  0.92830209305E+02 0.  0.
         13    1    3    3    0    0 -0.46876385024E+02  0.49665322483E+03  0.61959654978E+03  0.79546320198E+03  0.00000000000E+00 0.  1.
        -13    1    3    3    0    0  0.11128094334E+02  0.15896325740E+03  0.13268451762E+03  0.20736039377E+03  0.00000000000E+00 0. -1.
         22    1    1    2    0    0  0.35748290690E+02 -0.65561648224E+03  0.13182226940E+04  0.14726920870E+04  0.00000000000E+00 0. -1.
<mgrwt>
<rscale>  0 0.13569053E+04</rscale>
<asrwt>0</asrwt>
<pdfrwt beam="1">  1        2 0.34969379E+00 0.13569053E+04</pdfrwt>
<pdfrwt beam="2">  1       -2 0.31154765E-01 0.13569053E+04</pdfrwt>
<totfact> 0.43902445E+01</totfact>
</mgrwt>
</event>
<event>
 6    1  0.8968082E-007  0.2146266E+04  0.7818608E-02  0.8541132E-01
          2   -1    0    0  501    0  0.00000000000E+00  0.00000000000E+00  0.17566979201E+04  0.17566979201E+04  0.00000000000E+00 0. -1.
         -2   -1    0    0    0  501 -0.00000000000E+00 -0.00000000000E+00 -0.65555653306E+03  0.65555653306E+03  0.00000000000E+00 0.  1.
         23    2    1    2    0    0 -0.62689601048E+03 -0.82645579977E+03  0.25129348977E+03  0.10712588359E+04  0.91756627137E+02 0.  0.
         13    1    3    3    0    0 -0.10368196545E+03 -0.19888279449E+03  0.56344522059E+02  0.23125531577E+03  0.00000000000E+00 0.  1.
        -13    1    3    3    0    0 -0.52321404503E+03 -0.62757300527E+03  0.19494896772E+03  0.84000352016E+03  0.00000000000E+00 0. -1.
         22    1    1    2    0    0  0.62689601048E+03  0.82645579977E+03  0.84984789723E+03  0.13409956172E+04  0.00000000000E+00 0. -1.
<mgrwt>
<rscale>  0 0.21462663E+04</rscale>
<asrwt>0</asrwt>
<pdfrwt beam="1">  1        2 0.27026122E+00 0.21462663E+04</pdfrwt>
<pdfrwt beam="2">  1       -2 0.10085485E+00 0.21462663E+04</pdfrwt>
<totfact> 0.67776791E+00</totfact>
</mgrwt>
</event>
<event>
 6    1  0.8968082E-007  0.2666588E+04  0.7818608E-02  0.8345928E-01
         -2   -1    0    0    0  501 -0.00000000000E+00  0.00000000000E+00  0.13902528549E+04  0.13902528549E+04  0.00000000000E+00 0.  1.
          2   -1    0    0  501    0  0.00000000000E+00 -0.00000000000E+00 -0.12786692292E+04  0.12786692292E+04  0.00000000000E+00 0. -1.
         23    2    1    2    0    0  0.28879341212E+02 -0.90342302725E+03 -0.92315265860E+03  0.12949910958E+04  0.88226552974E+02 0.  0.
         13    1    3    3    0    0  0.44577277455E+02 -0.53157785979E+03 -0.59111920281E+03  0.79623116405E+03  0.00000000000E+00 0.  1.
        -13    1    3    3    0    0 -0.15697936243E+02 -0.37184516746E+03 -0.33203345579E+03  0.49875993176E+03  0.00000000000E+00 0. -1.
         22    1    1    2    0    0 -0.28879341212E+02  0.90342302725E+03  0.10347362844E+04  0.13739309883E+04  0.00000000000E+00 0.  1.
<mgrwt>
<rscale>  0 0.26665885E+04</rscale>
<asrwt>0</asrwt>
<pdfrwt beam="1">  1        2 0.19671834E+00 0.26665885E+04</pdfrwt>
<pdfrwt beam="2">  1       -2 0.21388505E+00 0.26665885E+04</pdfrwt>
<totfact> 0.16181421E+00</totfact>
</mgrwt>
</event>
<event>
 6    1  0.8968082E-007  0.1578013E+04  0.7818608E-02  0.8834170E-01
         -2   -1    0    0    0  501 -0.00000000000E+00  0.00000000000E+00  0.18698853496E+03  0.18698853496E+03  0.00000000000E+00 0.  1.
          2   -1    0    0  501    0  0.00000000000E+00 -0.00000000000E+00 -0.33292502498E+04  0.33292502498E+04  0.00000000000E+00 0. -1.
         23    2    1    2    0    0 -0.16035083671E+03 -0.64566534740E+03 -0.25104705791E+04  0.25987660763E+04  0.92338826947E+02 0.  0.
         11    1    3    3    0    0 -0.12184028086E+03 -0.51683137639E+03 -0.18473982751E+04  0.19221966894E+04  0.00000000000E+00 0.  1.
        -11    1    3    3    0    0 -0.38510555852E+02 -0.12883397101E+03 -0.66307230395E+03  0.67656938688E+03  0.00000000000E+00 0. -1.
         22    1    1    2    0    0  0.16035083671E+03  0.64566534740E+03 -0.63179113577E+03  0.91747270853E+03  0.00000000000E+00 0. -1.
<mgrwt>
<rscale>  0 0.15780135E+04</rscale>
<asrwt>0</asrwt>
<pdfrwt beam="1">  1        2 0.51219227E+00 0.15780135E+04</pdfrwt>
<pdfrwt beam="2">  1       -2 0.28767471E-01 0.15780135E+04</pdfrwt>
<totfact> 0.11453328E+01</totfact>
</mgrwt>
</event>
<event>
 6    1  0.8968082E-007  0.4000381E+04  0.7818608E-02  0.8004470E-01
          2   -1    0    0  501    0  0.00000000000E+00  0.00000000000E+00  0.16188830081E+04  0.16188830081E+04  0.00000000000E+00 0. -1.
         -2   -1    0    0    0  501 -0.00000000000E+00 -0.00000000000E+00 -0.24713096199E+04  0.24713096199E+04  0.00000000000E+00 0.  1.
         23    2    1    2    0    0  0.58472265958E+03  0.13555619029E+04  0.95192189602E+03  0.17588577745E+04  0.89312450141E+02 0.  0.
         11    1    3    3    0    0  0.14206095281E+03  0.42576329158E+03  0.30696357475E+03  0.54376679836E+03  0.00000000000E+00 0. -1.
        -11    1    3    3    0    0  0.44266170677E+03  0.92979861131E+03  0.64495832127E+03  0.12150909762E+04  0.00000000000E+00 0.  1.
         22    1    1    2    0    0 -0.58472265958E+03 -0.13555619029E+04 -0.18043485078E+04  0.23313348534E+04  0.00000000000E+00 0.  1.
<mgrwt>
<rscale>  0 0.40003806E+04</rscale>
<asrwt>0</asrwt>
<pdfrwt beam="1">  1        2 0.24905892E+00 0.40003806E+04</pdfrwt>
<pdfrwt beam="2">  1       -2 0.38020148E+00 0.40003806E+04</pdfrwt>
<totfact> 0.85669286E-02</totfact>
</mgrwt>
</event>
<event>
 6    1  0.8968082E-007  0.1649328E+04  0.7818608E-02  0.8790804E-01
          1   -1    0    0  501    0  0.00000000000E+00  0.00000000000E+00  0.50410940192E+03  0.50410940192E+03  0.00000000000E+00 0. -1.
         -1   -1    0    0    0  501 -0.00000000000E+00 -0.00000000000E+00 -0.13490542000E+04  0.13490542000E+04  0.00000000000E+00 0.  1.
         23    2    1    2    0    0  0.24508483835E+03 -0.70906209705E+03 -0.48551315656E+02  0.75905290629E+03  0.10473036246E+03 0.  0.
         11    1    3    3    0    0  0.68373681228E+02 -0.27703202257E+03  0.25339610336E+02  0.28646779516E+03  0.00000000000E+00 0. -1.
        -11    1    3    3    0    0  0.17671115713E+03 -0.43203007448E+03 -0.73890925992E+02  0.47258511112E+03  0.00000000000E+00 0.  1.
         22    1    1    2    0    0 -0.24508483835E+03  0.70906209705E+03 -0.79639348245E+03  0.10941106957E+04  0.00000000000E+00 0.  1.
<mgrwt>
<rscale>  0 0.16493282E+04</rscale>
<asrwt>0</asrwt>
<pdfrwt beam="1">  1        1 0.77555294E-01 0.16493282E+04</pdfrwt>
<pdfrwt beam="2">  1       -1 0.20754680E+00 0.16493282E+04</pdfrwt>
<totfact> 0.55937970E+00</totfact>
</mgrwt>
</event>
<event>
 6    1  0.8968082E-007  0.2861998E+04  0.7818608E-02  0.8284275E-01
         -1   -1    0    0    0  501 -0.00000000000E+00  0.00000000000E+00  0.15674903830E+04  0.15674903830E+04  0.00000000000E+00 0.  1.
          1   -1    0    0  501    0  0.00000000000E+00 -0.00000000000E+00 -0.13063929151E+04  0.13063929151E+04  0.00000000000E+00 0. -1.
         23    2    1    2    0    0 -0.97613378608E+03  0.87701680165E+03 -0.43889927843E+03  0.13866069003E+04  0.89724470296E+02 0.  0.
         11    1    3    3    0    0 -0.79320532558E+03  0.66328244423E+03 -0.34620728919E+03  0.10904025754E+04  0.00000000000E+00 0.  1.
        -11    1    3    3    0    0 -0.18292846050E+03  0.21373435742E+03 -0.92691989243E+02  0.29620432487E+03  0.00000000000E+00 0. -1.
         22    1    1    2    0    0  0.97613378608E+03 -0.87701680165E+03  0.69999674638E+03  0.14872763979E+04  0.00000000000E+00 0.  1.
<mgrwt>
<rscale>  0 0.28619981E+04</rscale>
<asrwt>0</asrwt>
<pdfrwt beam="1">  1        1 0.20098353E+00 0.28619981E+04</pdfrwt>
<pdfrwt beam="2">  1       -1 0.24115237E+00 0.28619981E+04</pdfrwt>
<totfact> 0.61411260E-01</totfact>
</mgrwt>
</event>
<event>
 6    1  0.8968082E-007  0.4390152E+04  0.7818608E-02  0.7930155E-01
         -2   -1    0    0    0  501 -0.00000000000E+00  0.00000000000E+00  0.22785679771E+04  0.22785679771E+04  0.00000000000E+00 0.  1.
          2   -1    0    0  501    0  0.00000000000E+00 -0.00000000000E+00 -0.21146429305E+04  0.21146429305E+04  0.00000000000E+00 0. -1.
         23    2    1    2    0    0  0.74589824219E+03 -0.17996848455E+04 -0.92771170023E+03  0.21600739843E+04  0.10020423101E+03 0.  0.
         13    1    3    3    0    0  0.35217457974E+03 -0.87441587830E+03 -0.50337492137E+03  0.10686516618E+04  0.00000000000E+00 0.  1.
        -13    1    3    3    0    0  0.39372366245E+03 -0.92526896723E+03 -0.42433677886E+03  0.10914223225E+04  0.00000000000E+00 0. -1.
         22    1    1    2    0    0 -0.74589824219E+03  0.17996848455E+04  0.10916367468E+04  0.22331369232E+04  0.00000000000E+00 0.  1.
<mgrwt>
<rscale>  0 0.43901516E+04</rscale>
<asrwt>0</asrwt>
<pdfrwt beam="1">  1        2 0.32532968E+00 0.43901516E+04</pdfrwt>
<pdfrwt beam="2">  1       -2 0.35054892E+00 0.43901516E+04</pdfrwt>
<totfact> 0.68029575E-02</totfact>
</mgrwt>
</event>
<event>
 6    1  0.8968082E-007  0.2166523E+04  0.7818608E-02  0.8532493E-01
         -1   -1    0    0    0  501 -0.00000000000E+00  0.00000000000E+00  0.49672511535E+03  0.49672511535E+03  0.00000000000E+00 0.  1.
          1   -1    0    0  501    0  0.00000000000E+00 -0.00000000000E+00 -0.23623837919E+04  0.23623837919E+04  0.00000000000E+00 0. -1.
         23    2    1    2    0    0 -0.51554235069E+03 -0.87436884364E+03 -0.14271828502E+04  0.17534119142E+04  0.85426359739E+02 0.  0.
         11    1    3    3    0    0 -0.41508494288E+03 -0.69131245414E+03 -0.11892737308E+04  0.14368647904E+04  0.00000000000E+00 0. -1.
        -11    1    3    3    0    0 -0.10045740781E+03 -0.18305638950E+03 -0.23790911944E+03  0.31654712388E+03  0.00000000000E+00 0.  1.
         22    1    1    2    0    0  0.51554235069E+03  0.87436884364E+03 -0.43847582633E+03  0.11056969930E+04  0.00000000000E+00 0. -1.
<mgrwt>
<rscale>  0 0.21665229E+04</rscale>
<asrwt>0</asrwt>
<pdfrwt beam="1">  1        1 0.36344366E+00 0.21665229E+04</pdfrwt>
<pdfrwt beam="2">  1       -1 0.76419248E-01 0.21665229E+04</pdfrwt>
<totfact> 0.26503600E+00</totfact>
</mgrwt>
</event>
<event>
 6    1  0.8968082E-007  0.1686264E+04  0.7818608E-02  0.8769237E-01
          1   -1    0    0  501    0  0.00000000000E+00  0.00000000000E+00  0.81002579805E+03  0.81002579805E+03  0.00000000000E+00 0. -1.
         -1   -1    0    0    0  501 -0.00000000000E+00 -0.00000000000E+00 -0.87759143471E+03  0.87759143471E+03  0.00000000000E+00 0.  1.
         23    2    1    2    0    0 -0.24789622162E+03 -0.46911657769E+03  0.61870096569E+03  0.82015844432E+03  0.91356930107E+02 0.  0.
         13    1    3    3    0    0 -0.51957378372E+02 -0.18147943678E+03  0.18801991803E+03  0.26643168865E+03  0.00000000000E+00 0. -1.
        -13    1    3    3    0    0 -0.19593884325E+03 -0.28763714091E+03  0.43068104767E+03  0.55372675567E+03  0.00000000000E+00 0.  1.
         22    1    1    2    0    0  0.24789622162E+03  0.46911657769E+03 -0.68626660235E+03  0.86745878845E+03  0.00000000000E+00 0.  1.
<mgrwt>
<rscale>  0 0.16862642E+04</rscale>
<asrwt>0</asrwt>
<pdfrwt beam="1">  1        1 0.12461935E+00 0.16862642E+04</pdfrwt>
<pdfrwt beam="2">  1       -1 0.13501407E+00 0.16862642E+04</pdfrwt>
<totfact> 0.95089174E+00</totfact>
</mgrwt>
</event>
<event>
 6    1  0.8968082E-007  0.3303867E+04  0.7818608E-02  0.8161912E-01
         -1   -1    0    0    0  501 -0.00000000000E+00  0.00000000000E+00  0.27088993410E+04  0.27088993410E+04  0.00000000000E+00 0.  1.
          1   -1    0    0  501    0  0.00000000000E+00 -0.00000000000E+00 -0.10073777012E+04  0.10073777012E+04  0.00000000000E+00 0. -1.
         23    2    1    2    0    0  0.87632600492E+02  0.11136529248E+04 -0.51575508999E+03  0.12334926362E+04  0.87169152426E+02 0.  0.
         13    1    3    3    0    0  0.77969890351E+02  0.64865143798E+03 -0.33804302577E+03  0.73559573072E+03  0.00000000000E+00 0.  1.
        -13    1    3    3    0    0  0.96627101417E+01  0.46500148685E+03 -0.17771206423E+03  0.49789690550E+03  0.00000000000E+00 0. -1.
         22    1    1    2    0    0 -0.87632600492E+02 -0.11136529248E+04  0.22172767299E+04  0.24827844060E+04  0.00000000000E+00 0.  1.
<mgrwt>
<rscale>  0 0.33038673E+04</rscale>
<asrwt>0</asrwt>
<pdfrwt beam="1">  1        1 0.15498119E+00 0.33038673E+04</pdfrwt>
<pdfrwt beam="2">  1       -1 0.41675374E+00 0.33038673E+04</pdfrwt>
<totfact> 0.67912744E-02</totfact>
</mgrwt>
</event>
<event>
 6    1  0.8968082E-007  0.1047690E+04  0.7818608E-02  0.9257732E-01
         -2   -1    0    0    0  501 -0.00000000000E+00  0.00000000000E+00  0.86750061218E+03  0.86750061218E+03  0.00000000000E+00 0.  1.
          2   -1    0    0  501    0  0.00000000000E+00 -0.00000000000E+00 -0.31632695728E+03  0.31632695728E+03  0.00000000000E+00 0. -1.
         23    2    1    2    0    0 -0.18884542763E+03 -0.49933029902E+02  0.82202481479E+03  0.84988707501E+03  0.91800550752E+02 0.  0.
         11    1    3    3    0    0 -0.12592685476E+03 -0.82726669747E+01  0.35408510603E+03  0.37590194476E+03  0.00000000000E+00 0. -1.
        -11    1    3    3    0    0 -0.62918572875E+02 -0.41660362927E+02  0.46793970877E+03  0.47398513024E+03  0.00000000000E+00 0.  1.
         22    1    1    2    0    0  0.18884542763E+03  0.49933029902E+02 -0.27085115989E+03  0.33394049444E+03  0.00000000000E+00 0. -1.
<mgrwt>
<rscale>  0 0.10476905E+04</rscale>
<asrwt>0</asrwt>
<pdfrwt beam="1">  1        2 0.48665686E-01 0.10476905E+04</pdfrwt>
<pdfrwt beam="2">  1       -2 0.13346163E+00 0.10476905E+04</pdfrwt>
<totfact> 0.41830559E+01</totfact>
</mgrwt>
</event>
<event>
 6    1  0.8968082E-007  0.7310607E+03  0.7818608E-02  0.9665541E-01
          2   -1    0    0  501    0  0.00000000000E+00  0.00000000000E+00  0.17931207595E+03  0.17931207595E+03  0.00000000000E+00 0. -1.
         -2   -1    0    0    0  501 -0.00000000000E+00 -0.00000000000E+00 -0.74513905624E+03  0.74513905624E+03  0.00000000000E+00 0.  1.
         23    2    1    2    0    0  0.72568806323E+02  0.21629923340E+03  0.64649685721E+02  0.25396443106E+03  0.90921726551E+02 0.  0.
         11    1    3    3    0    0  0.28626454928E+02  0.97460434376E+02  0.75843035642E+02  0.12676819887E+03  0.00000000000E+00 0. -1.
        -11    1    3    3    0    0  0.43942351395E+02  0.11883879902E+03 -0.11193349921E+02  0.12719623218E+03  0.00000000000E+00 0.  1.
         22    1    1    2    0    0 -0.72568806323E+02 -0.21629923340E+03 -0.63047666600E+03  0.67048670113E+03  0.00000000000E+00 0.  1.
<mgrwt>
<rscale>  0 0.73106068E+03</rscale>
<asrwt>0</asrwt>
<pdfrwt beam="1">  1        2 0.27586473E-01 0.73106068E+03</pdfrwt>
<pdfrwt beam="2">  1       -2 0.11463678E+00 0.73106068E+03</pdfrwt>
<totfact> 0.11746908E+02</totfact>
</mgrwt>
</event>
<event>
 6    1  0.8968082E-007  0.1848280E+04  0.7818608E-02  0.8681038E-01
          1   -1    0    0  501    0  0.00000000000E+00  0.00000000000E+00  0.72456804316E+03  0.72456804316E+03  0.00000000000E+00 0. -1.
         -1   -1    0    0    0  501 -0.00000000000E+00 -0.00000000000E+00 -0.11786818089E+04  0.11786818089E+04  0.00000000000E+00 0.  1.
         23    2    1    2    0    0 -0.56922555336E+03  0.46572851246E+03 -0.79995785217E+03  0.10905205552E+04  0.91551833372E+02 0.  0.
         11    1    3    3    0    0 -0.41844460846E+03  0.36806012857E+03 -0.55264043893E+03  0.78484113254E+03  0.00000000000E+00 0.  1.
        -11    1    3    3    0    0 -0.15078094490E+03  0.97668383892E+02 -0.24731741324E+03  0.30567942268E+03  0.00000000000E+00 0. -1.
         22    1    1    2    0    0  0.56922555336E+03 -0.46572851246E+03  0.34584408639E+03  0.81272929688E+03  0.00000000000E+00 0. -1.
<mgrwt>
<rscale>  0 0.18482805E+04</rscale>
<asrwt>0</asrwt>
<pdfrwt beam="1">  1        1 0.11147201E+00 0.18482805E+04</pdfrwt>
<pdfrwt beam="2">  1       -1 0.18133566E+00 0.18482805E+04</pdfrwt>
<totfact> 0.49428129E+00</totfact>
</mgrwt>
</event>
<event>
 6    1  0.8968082E-007  0.3621617E+04  0.7818608E-02  0.8085558E-01
          1   -1    0    0  501    0  0.00000000000E+00  0.00000000000E+00  0.23190019809E+04  0.23190019809E+04  0.00000000000E+00 0. -1.
         -1   -1    0    0    0  501 -0.00000000000E+00 -0.00000000000E+00 -0.14139822416E+04  0.14139822416E+04  0.00000000000E+00 0.  1.
         23    2    1    2    0    0  0.60636963459E+03 -0.14157437398E+03  0.22042268615E+04  0.22922668374E+04  0.90242780560E+02 0.  0.
         11    1    3    3    0    0  0.55688684568E+03 -0.11197131592E+03  0.19206601563E+04  0.20028968946E+04  0.00000000000E+00 0.  1.
        -11    1    3    3    0    0  0.49482788908E+02 -0.29603058060E+02  0.28356670528E+03  0.28936994279E+03  0.00000000000E+00 0. -1.
         22    1    1    2    0    0 -0.60636963459E+03  0.14157437398E+03 -0.12992071223E+04  0.14407173851E+04  0.00000000000E+00 0.  1.
<mgrwt>
<rscale>  0 0.36216171E+04</rscale>
<asrwt>0</asrwt>
<pdfrwt beam="1">  1        1 0.35676954E+00 0.36216171E+04</pdfrwt>
<pdfrwt beam="2">  1       -1 0.21753573E+00 0.36216171E+04</pdfrwt>
<totfact> 0.16676059E-01</totfact>
</mgrwt>
</event>
<event>
 6    1  0.8968082E-007  0.1070903E+04  0.7818608E-02  0.9234025E-01
          1   -1    0    0  501    0  0.00000000000E+00  0.00000000000E+00  0.10236568673E+04  0.10236568673E+04  0.00000000000E+00 0. -1.
         -1   -1    0    0    0  501 -0.00000000000E+00 -0.00000000000E+00 -0.28008250832E+03  0.28008250832E+03  0.00000000000E+00 0.  1.
         23    2    1    2    0    0  0.52629343680E+03 -0.99629630887E+01  0.46456913533E+03  0.70798107139E+03  0.91261567452E+02 0.  0.
         11    1    3    3    0    0  0.86318838101E+02 -0.26967945729E+01  0.35467621419E+02  0.93360412816E+02  0.00000000000E+00 0. -1.
        -11    1    3    3    0    0  0.43997459870E+03 -0.72661685158E+01  0.42910151391E+03  0.61462065857E+03  0.00000000000E+00 0.  1.
         22    1    1    2    0    0 -0.52629343680E+03  0.99629630887E+01  0.27900522369E+03  0.59575830426E+03  0.00000000000E+00 0.  1.
<mgrwt>
<rscale>  0 0.10709031E+04</rscale>
<asrwt>0</asrwt>
<pdfrwt beam="1">  1        1 0.15748567E+00 0.10709031E+04</pdfrwt>
<pdfrwt beam="2">  1       -1 0.43089617E-01 0.10709031E+04</pdfrwt>
<totfact> 0.76822327E+01</totfact>
</mgrwt>
</event>
<event>
 6    1  0.1180633E-006  0.2150529E+04  0.7818608E-02  0.8539306E-01
         -1   -1    0    0    0  501 -0.00000000000E+00  0.00000000000E+00  0.11587322243E+04  0.11587322243E+04  0.00000000000E+00 0.  1.
          1   -1    0    0  501    0  0.00000000000E+00 -0.00000000000E+00 -0.99780959398E+03  0.99780959398E+03  0.00000000000E+00 0. -1.
         23    2    1    2    0    0 -0.37332213002E+03  0.26439895460E+03  0.10542651725E+04  0.11528799640E+04  0.91547460406E+02 0.  0.
         13    1    3    3    0    0 -0.21771433139E+03  0.10198319681E+03  0.58575831414E+03  0.63317683557E+03  0.00000000000E+00 0. -1.
        -13    1    3    3    0    0 -0.15560779863E+03  0.16241575779E+03  0.46850685840E+03  0.51970312847E+03  0.00000000000E+00 0.  1.
         22    1    1    2    0    0  0.37332213002E+03 -0.26439895460E+03 -0.89334254220E+03  0.10036618542E+04  0.00000000000E+00 0. -1.
<mgrwt>
<rscale>  0 0.21505294E+04</rscale>
<asrwt>0</asrwt>
<pdfrwt beam="1">  1        1 0.15350917E+00 0.21505294E+04</pdfrwt>
<pdfrwt beam="2">  1       -1 0.17826650E+00 0.21505294E+04</pdfrwt>
<totfact> 0.29792448E+00</totfact>
</mgrwt>
</event>
<event>
 6    1  0.8968082E-007  0.1336400E+04  0.7818608E-02  0.9001187E-01
         -1   -1    0    0    0  501 -0.00000000000E+00  0.00000000000E+00  0.89065570405E+03  0.89065570405E+03  0.00000000000E+00 0.  1.
          1   -1    0    0  501    0  0.00000000000E+00 -0.00000000000E+00 -0.50130649326E+03  0.50130649326E+03  0.00000000000E+00 0. -1.
         23    2    1    2    0    0  0.12612960806E+03 -0.58810040668E+03  0.49142320707E+03  0.78188854022E+03  0.89900803725E+02 0.  0.
         13    1    3    3    0    0  0.56070595129E+02 -0.22552551785E+03  0.24646240947E+03  0.33874679352E+03  0.00000000000E+00 0.  1.
        -13    1    3    3    0    0  0.70059012926E+02 -0.36257488883E+03  0.24496079759E+03  0.44314174669E+03  0.00000000000E+00 0. -1.
         22    1    1    2    0    0 -0.12612960806E+03  0.58810040668E+03 -0.10207399627E+03  0.61007365710E+03  0.00000000000E+00 0. -1.
<mgrwt>
<rscale>  0 0.13364004E+04</rscale>
<asrwt>0</asrwt>
<pdfrwt beam="1">  1        1 0.77124076E-01 0.13364004E+04</pdfrwt>
<pdfrwt beam="2">  1       -1 0.13702395E+00 0.13364004E+04</pdfrwt>
<totfact> 0.19186907E+01</totfact>
</mgrwt>
</event>
<event>
 6    1  0.8968082E-007  0.3730363E+04  0.7818608E-02  0.8061266E-01
          2   -1    0    0  501    0  0.00000000000E+00  0.00000000000E+00  0.20642519125E+04  0.20642519125E+04  0.00000000000E+00 0. -1.
         -2   -1    0    0    0  501 -0.00000000000E+00 -0.00000000000E+00 -0.16853091193E+04  0.16853091193E+04  0.00000000000E+00 0.  1.
         23    2    1    2    0    0 -0.18429593260E+03 -0.12020610807E+04  0.16096603303E+04  0.20193640809E+04  0.88933008054E+02 0.  0.
         11    1    3    3    0    0 -0.11585984882E+03 -0.49228993936E+03  0.69797257777E+03  0.86193886574E+03  0.00000000000E+00 0. -1.
        -11    1    3    3    0    0 -0.68436083780E+02 -0.70977114135E+03  0.91168775252E+03  0.11574252152E+04  0.00000000000E+00 0.  1.
         22    1    1    2    0    0  0.18429593260E+03  0.12020610807E+04 -0.12307175371E+04  0.17301969508E+04  0.00000000000E+00 0.  1.
<mgrwt>
<rscale>  0 0.37303633E+04</rscale>
<asrwt>0</asrwt>
<pdfrwt beam="1">  1        2 0.31757722E+00 0.37303633E+04</pdfrwt>
<pdfrwt beam="2">  1       -2 0.25927833E+00 0.37303633E+04</pdfrwt>
<totfact> 0.27965240E-01</totfact>
</mgrwt>
</event>
<event>
 6    1  0.8968082E-007  0.1568911E+04  0.7818608E-02  0.8839878E-01
         -1   -1    0    0    0  501 -0.00000000000E+00  0.00000000000E+00  0.80942280657E+03  0.80942280657E+03  0.00000000000E+00 0.  1.
          1   -1    0    0  501    0  0.00000000000E+00 -0.00000000000E+00 -0.76025856703E+03  0.76025856703E+03  0.00000000000E+00 0. -1.
         23    2    1    2    0    0  0.73661973905E+03  0.61348189380E+02 -0.23073457975E+03  0.77929185613E+03  0.87664761747E+02 0.  0.
         13    1    3    3    0    0  0.31499426623E+03  0.31605731947E+01 -0.59842386530E+02  0.32064386507E+03  0.00000000000E+00 0.  1.
        -13    1    3    3    0    0  0.42162547281E+03  0.58187616185E+02 -0.17089219322E+03  0.45864799106E+03  0.00000000000E+00 0. -1.
         22    1    1    2    0    0 -0.73661973905E+03 -0.61348189380E+02  0.27989881929E+03  0.79038951747E+03  0.00000000000E+00 0. -1.
<mgrwt>
<rscale>  0 0.15689112E+04</rscale>
<asrwt>0</asrwt>
<pdfrwt beam="1">  1        1 0.11696286E+00 0.15689112E+04</pdfrwt>
<pdfrwt beam="2">  1       -1 0.12452659E+00 0.15689112E+04</pdfrwt>
<totfact> 0.13033507E+01</totfact>
</mgrwt>
</event>
<event>
 6    1  0.8968082E-007  0.2504221E+04  0.7818608E-02  0.8401483E-01
          1   -1    0    0  501    0  0.00000000000E+00  0.00000000000E+00  0.39765435464E+04  0.39765435464E+04  0.00000000000E+00 0. -1.
         -1   -1    0    0    0  501 -0.00000000000E+00 -0.00000000000E+00 -0.39425710883E+03  0.39425710883E+03  0.00000000000E+00 0.  1.
         23    2    1    2    0    0 -0.29955803079E+03 -0.61853458139E+03 -0.29719276974E+02  0.69399425238E+03  0.91786408167E+02 0.  0.
         13    1    3    3    0    0 -0.27839797317E+03 -0.49426533734E+03 -0.26462899386E+02  0.56789430372E+03  0.00000000000E+00 0.  1.
        -13    1    3    3    0    0 -0.21160057623E+02 -0.12426924405E+03 -0.32563775883E+01  0.12609994865E+03  0.00000000000E+00 0. -1.
         22    1    1    2    0    0  0.29955803079E+03  0.61853458139E+03  0.36120057145E+04  0.36768064028E+04  0.00000000000E+00 0. -1.
<mgrwt>
<rscale>  0 0.25042209E+04</rscale>
<asrwt>0</asrwt>
<pdfrwt beam="1">  1        1 0.61177590E+00 0.25042209E+04</pdfrwt>
<pdfrwt beam="2">  1       -1 0.60654942E-01 0.25042209E+04</pdfrwt>
<totfact> 0.24690405E-01</totfact>
</mgrwt>
</event>
<event>
 6    1  0.8968082E-007  0.5482664E+03  0.7818608E-02  0.1001896E+00
          2   -1    0    0  501    0  0.00000000000E+00  0.00000000000E+00  0.29033061914E+03  0.29033061914E+03  0.00000000000E+00 0. -1.
         -2   -1    0    0    0  501 -0.00000000000E+00 -0.00000000000E+00 -0.25883942613E+03  0.25883942613E+03  0.00000000000E+00 0.  1.
         23    2    1    2    0    0 -0.20532476292E+03 -0.13081775949E+03  0.11809342400E+03  0.29076824404E+03  0.10643575754E+03 0.  0.
         13    1    3    3    0    0 -0.71039301142E+02 -0.10833833473E+03  0.57891307935E+02  0.14189848700E+03  0.00000000000E+00 0. -1.
        -13    1    3    3    0    0 -0.13428546178E+03 -0.22479424765E+02  0.60202116067E+02  0.14886975704E+03  0.00000000000E+00 0.  1.
         22    1    1    2    0    0  0.20532476292E+03  0.13081775949E+03 -0.86602230994E+02  0.25840180123E+03  0.00000000000E+00 0.  1.
<mgrwt>
<rscale>  0 0.54826640E+03</rscale>
<asrwt>0</asrwt>
<pdfrwt beam="1">  1        2 0.44666249E-01 0.54826640E+03</pdfrwt>
<pdfrwt beam="2">  1       -2 0.39821450E-01 0.54826640E+03</pdfrwt>
<totfact> 0.68343601E+02</totfact>
</mgrwt>
</event>
<event>
 6    1  0.8968082E-007  0.2215495E+04  0.7818608E-02  0.8512006E-01
          2   -1    0    0  501    0  0.00000000000E+00  0.00000000000E+00  0.64229681637E+03  0.64229681637E+03  0.00000000000E+00 0. -1.
         -2   -1    0    0    0  501 -0.00000000000E+00 -0.00000000000E+00 -0.19104946395E+04  0.19104946395E+04  0.00000000000E+00 0.  1.
         23    2    1    2    0    0  0.68837158281E+03  0.85129776440E+03 -0.81528535236E+03  0.13680159388E+04  0.90631579700E+02 0.  0.
         11    1    3    3    0    0  0.38847165109E+02  0.78806230934E+02 -0.47341952934E+02  0.99803731286E+02  0.00000000000E+00 0. -1.
        -11    1    3    3    0    0  0.64952441770E+03  0.77249153346E+03 -0.76794339943E+03  0.12682122075E+04  0.00000000000E+00 0.  1.
         22    1    1    2    0    0 -0.68837158281E+03 -0.85129776440E+03 -0.45291247074E+03  0.11847755171E+04  0.00000000000E+00 0. -1.
<mgrwt>
<rscale>  0 0.22154951E+04</rscale>
<asrwt>0</asrwt>
<pdfrwt beam="1">  1        2 0.98814894E-01 0.22154951E+04</pdfrwt>
<pdfrwt beam="2">  1       -2 0.29392225E+00 0.22154951E+04</pdfrwt>
<totfact> 0.14429051E+00</totfact>
</mgrwt>
</event>
<event>
 6    1  0.8968082E-007  0.2776629E+04  0.7818608E-02  0.8310561E-01
          1   -1    0    0  501    0  0.00000000000E+00  0.00000000000E+00  0.11564512159E+04  0.11564512159E+04  0.00000000000E+00 0. -1.
         -1   -1    0    0    0  501 -0.00000000000E+00 -0.00000000000E+00 -0.16666652624E+04  0.16666652624E+04  0.00000000000E+00 0.  1.
         23    2    1    2    0    0 -0.86780794720E+03 -0.59251121477E+03 -0.11754786541E+04  0.15794375925E+04  0.93342752256E+02 0.  0.
         11    1    3    3    0    0 -0.46972742110E+03 -0.33562434373E+03 -0.71226529198E+03  0.91684753170E+03  0.00000000000E+00 0.  1.
        -11    1    3    3    0    0 -0.39808052611E+03 -0.25688687104E+03 -0.46321336217E+03  0.66259006080E+03  0.00000000000E+00 0. -1.
         22    1    1    2    0    0  0.86780794720E+03  0.59251121477E+03  0.66526460762E+03  0.12436788858E+04  0.00000000000E+00 0. -1.
<mgrwt>
<rscale>  0 0.27766289E+04</rscale>
<asrwt>0</asrwt>
<pdfrwt beam="1">  1        1 0.17791557E+00 0.27766289E+04</pdfrwt>
<pdfrwt beam="2">  1       -1 0.25641004E+00 0.27766289E+04</pdfrwt>
<totfact> 0.63187730E-01</totfact>
</mgrwt>
</event>
<event>
 6    1  0.8968082E-007  0.2632420E+04  0.7818608E-02  0.8357271E-01
          2   -1    0    0  501    0  0.00000000000E+00  0.00000000000E+00  0.24897999686E+04  0.24897999686E+04  0.00000000000E+00 0. -1.
         -2   -1    0    0    0  501 -0.00000000000E+00 -0.00000000000E+00 -0.69580257004E+03  0.69580257004E+03  0.00000000000E+00 0.  1.
         23    2    1    2    0    0  0.63329974191E+03 -0.10888749466E+04  0.44332715467E+03  0.13387058658E+04  0.94218982744E+02 0.  0.
         13    1    3    3    0    0  0.43236517339E+03 -0.66347658147E+03  0.30078260958E+03  0.84711923337E+03  0.00000000000E+00 0.  1.
        -13    1    3    3    0    0  0.20093456852E+03 -0.42539836511E+03  0.14254454508E+03  0.49158663244E+03  0.00000000000E+00 0. -1.
         22    1    1    2    0    0 -0.63329974191E+03  0.10888749466E+04  0.13506702439E+04  0.18468966729E+04  0.00000000000E+00 0. -1.
<mgrwt>
<rscale>  0 0.26324203E+04</rscale>
<asrwt>0</asrwt>
<pdfrwt beam="1">  1        2 0.38304615E+00 0.26324203E+04</pdfrwt>
<pdfrwt beam="2">  1       -2 0.10704655E+00 0.26324203E+04</pdfrwt>
<totfact> 0.21840122E+00</totfact>
</mgrwt>
</event>
<event>
 6    1  0.8968082E-007  0.2030866E+04  0.7818608E-02  0.8592324E-01
          2   -1    0    0  501    0  0.00000000000E+00  0.00000000000E+00  0.10634962216E+04  0.10634962216E+04  0.00000000000E+00 0. -1.
         -2   -1    0    0    0  501 -0.00000000000E+00 -0.00000000000E+00 -0.96954215980E+03  0.96954215980E+03  0.00000000000E+00 0.  1.
         23    2    1    2    0    0 -0.27254231743E+03  0.73470891307E+03  0.68912279324E+03  0.10490148447E+04  0.10707669495E+03 0.  0.
         11    1    3    3    0    0 -0.90910258221E+02  0.37055840040E+03  0.37460076842E+03  0.53469985867E+03  0.00000000000E+00 0. -1.
        -11    1    3    3    0    0 -0.18163205921E+03  0.36415051267E+03  0.31452202482E+03  0.51431498608E+03  0.00000000000E+00 0.  1.
         22    1    1    2    0    0  0.27254231743E+03 -0.73470891307E+03 -0.59516873146E+03  0.98402353663E+03  0.00000000000E+00 0.  1.
<mgrwt>
<rscale>  0 0.20308662E+04</rscale>
<asrwt>0</asrwt>
<pdfrwt beam="1">  1        2 0.16361480E+00 0.20308662E+04</pdfrwt>
<pdfrwt beam="2">  1       -2 0.14916033E+00 0.20308662E+04</pdfrwt>
<totfact> 0.64694931E+00</totfact>
</mgrwt>
</event>
<event>
 6    1  0.8968082E-007  0.1229144E+04  0.7818608E-02  0.9087723E-01
          1   -1    0    0  501    0  0.00000000000E+00  0.00000000000E+00  0.16481045841E+04  0.16481045841E+04  0.00000000000E+00 0. -1.
         -1   -1    0    0    0  501 -0.00000000000E+00 -0.00000000000E+00 -0.22917157189E+03  0.22917157189E+03  0.00000000000E+00 0.  1.
         23    2    1    2    0    0  0.45851208694E+03 -0.11579647687E+03  0.12212169655E+03  0.49692774115E+03  0.91549512454E+02 0.  0.
         13    1    3    3    0    0  0.28903474631E+03 -0.31094589973E+02  0.54567045295E+02  0.29577951337E+03  0.00000000000E+00 0.  1.
        -13    1    3    3    0    0  0.16947734063E+03 -0.84701886898E+02  0.67554651257E+02  0.20114822778E+03  0.00000000000E+00 0. -1.
         22    1    1    2    0    0 -0.45851208694E+03  0.11579647687E+03  0.12968113157E+04  0.13803484149E+04  0.00000000000E+00 0. -1.
<mgrwt>
<rscale>  0 0.12291440E+04</rscale>
<asrwt>0</asrwt>
<pdfrwt beam="1">  1        1 0.25355454E+00 0.12291440E+04</pdfrwt>
<pdfrwt beam="2">  1       -1 0.35257166E-01 0.12291440E+04</pdfrwt>
<totfact> 0.39123592E+01</totfact>
</mgrwt>
</event>
<event>
 6    1  0.8968082E-007  0.2456770E+04  0.7818608E-02  0.8418550E-01
          1   -1    0    0  501    0  0.00000000000E+00  0.00000000000E+00  0.62076625345E+03  0.62076625345E+03  0.00000000000E+00 0. -1.
         -1   -1    0    0    0  501 -0.00000000000E+00 -0.00000000000E+00 -0.24307531499E+04  0.24307531499E+04  0.00000000000E+00 0.  1.
         23    2    1    2    0    0 -0.11228369255E+04  0.41388481433E+03 -0.57345653959E+03  0.13307432051E+04  0.99808188088E+02 0.  0.
         13    1    3    3    0    0 -0.72665328806E+03  0.22733442353E+03 -0.33129549599E+03  0.83033887470E+03  0.00000000000E+00 0. -1.
        -13    1    3    3    0    0 -0.39618363745E+03  0.18655039079E+03 -0.24216104360E+03  0.50040433044E+03  0.00000000000E+00 0.  1.
         22    1    1    2    0    0  0.11228369255E+04 -0.41388481433E+03 -0.12365303568E+04  0.17207761982E+04  0.00000000000E+00 0.  1.
<mgrwt>
<rscale>  0 0.24567699E+04</rscale>
<asrwt>0</asrwt>
<pdfrwt beam="1">  1        1 0.95502498E-01 0.24567699E+04</pdfrwt>
<pdfrwt beam="2">  1       -1 0.37396203E+00 0.24567699E+04</pdfrwt>
<totfact> 0.31244679E-01</totfact>
</mgrwt>
</event>
<event>
 6    1  0.8968082E-007  0.4218341E+04  0.7818608E-02  0.7961892E-01
          1   -1    0    0  501    0  0.00000000000E+00  0.00000000000E+00  0.29100396002E+04  0.29100396002E+04  0.00000000000E+00 0. -1.
         -1   -1    0    0    0  501 -0.00000000000E+00 -0.00000000000E+00 -0.15287080528E+04  0.15287080528E+04  0.00000000000E+00 0.  1.
         23    2    1    2    0    0  0.84801768405E+03 -0.17630128172E+03 -0.13314412715E+04  0.15910551659E+04  0.92220099891E+02 0.  0.
         11    1    3    3    0    0  0.28405766349E+03 -0.84504593476E+02 -0.39065475923E+03  0.49034775763E+03  0.00000000000E+00 0. -1.
        -11    1    3    3    0    0  0.56396002056E+03 -0.91796688240E+02 -0.94078651232E+03  0.11007074082E+04  0.00000000000E+00 0.  1.
         22    1    1    2    0    0 -0.84801768405E+03  0.17630128172E+03  0.27127728189E+04  0.28476924872E+04  0.00000000000E+00 0. -1.
<mgrwt>
<rscale>  0 0.42183414E+04</rscale>
<asrwt>0</asrwt>
<pdfrwt beam="1">  1        1 0.44769840E+00 0.42183414E+04</pdfrwt>
<pdfrwt beam="2">  1       -1 0.23518585E+00 0.42183414E+04</pdfrwt>
<totfact> 0.46577391E-02</totfact>
</mgrwt>
</event>
<event>
 6    1  0.8968082E-007  0.7215824E+03  0.7818608E-02  0.9681019E-01
          1   -1    0    0  501    0  0.00000000000E+00  0.00000000000E+00  0.59139060226E+03  0.59139060226E+03  0.00000000000E+00 0. -1.
         -1   -1    0    0    0  501 -0.00000000000E+00 -0.00000000000E+00 -0.22010883184E+03  0.22010883184E+03  0.00000000000E+00 0.  1.
         23    2    1    2    0    0  0.12033203348E+03 -0.16043545438E+03  0.51831822255E+03  0.56282484441E+03  0.88874587773E+02 0.  0.
         11    1    3    3    0    0  0.70801535155E+01 -0.16750758986E+02  0.15479885483E+03  0.15586340801E+03  0.00000000000E+00 0.  1.
        -11    1    3    3    0    0  0.11325187996E+03 -0.14368469540E+03  0.36351936772E+03  0.40696143640E+03  0.00000000000E+00 0. -1.
         22    1    1    2    0    0 -0.12033203348E+03  0.16043545438E+03 -0.14703645214E+03  0.24867458970E+03  0.00000000000E+00 0.  1.
<mgrwt>
<rscale>  0 0.72158241E+03</rscale>
<asrwt>0</asrwt>
<pdfrwt beam="1">  1        1 0.90983169E-01 0.72158241E+03</pdfrwt>
<pdfrwt beam="2">  1       -1 0.33862897E-01 0.72158241E+03</pdfrwt>
<totfact> 0.29126532E+02</totfact>
</mgrwt>
</event>
<event>
 6    1  0.8968082E-007  0.2549147E+04  0.7818608E-02  0.8385683E-01
          2   -1    0    0  501    0  0.00000000000E+00  0.00000000000E+00  0.15371286743E+04  0.15371286743E+04  0.00000000000E+00 0. -1.
         -2   -1    0    0    0  501 -0.00000000000E+00 -0.00000000000E+00 -0.10568650120E+04  0.10568650120E+04  0.00000000000E+00 0.  1.
         23    2    1    2    0    0  0.67081582583E+03 -0.10811202525E+04  0.27792346291E+03  0.13056783410E+04  0.93485861788E+02 0.  0.
         11    1    3    3    0    0  0.41481716107E+03 -0.73742197334E+03  0.21011218810E+03  0.87178642767E+03  0.00000000000E+00 0. -1.
        -11    1    3    3    0    0  0.25599866476E+03 -0.34369827919E+03  0.67811274811E+02  0.43389191335E+03  0.00000000000E+00 0.  1.
         22    1    1    2    0    0 -0.67081582583E+03  0.10811202525E+04  0.20234019937E+03  0.12883153453E+04  0.00000000000E+00 0. -1.
<mgrwt>
<rscale>  0 0.25491469E+04</rscale>
<asrwt>0</asrwt>
<pdfrwt beam="1">  1        2 0.23648133E+00 0.25491469E+04</pdfrwt>
<pdfrwt beam="2">  1       -2 0.16259462E+00 0.25491469E+04</pdfrwt>
<totfact> 0.25904982E+00</totfact>
</mgrwt>
</event>
<event>
 6    1  0.8968082E-007  0.2862275E+04  0.7818608E-02  0.8284191E-01
         -1   -1    0    0    0  501 -0.00000000000E+00  0.00000000000E+00  0.17955882980E+04  0.17955882980E+04  0.00000000000E+00 0.  1.
          1   -1    0    0  501    0  0.00000000000E+00 -0.00000000000E+00 -0.11406594307E+04  0.11406594307E+04  0.00000000000E+00 0. -1.
         23    2    1    2    0    0 -0.12944348157E+04 -0.60316455117E+03  0.39703482399E+03  0.14850832634E+04  0.92014564577E+02 0.  0.
         11    1    3    3    0    0 -0.78250141489E+03 -0.31592814180E+03  0.24453680541E+03  0.87858824502E+03  0.00000000000E+00 0. -1.
        -11    1    3    3    0    0 -0.51193340077E+03 -0.28723640938E+03  0.15249801858E+03  0.60649501842E+03  0.00000000000E+00 0.  1.
         22    1    1    2    0    0  0.12944348157E+04  0.60316455117E+03  0.25789404333E+03  0.14511644653E+04  0.00000000000E+00 0.  1.
<mgrwt>
<rscale>  0 0.28622751E+04</rscale>
<asrwt>0</asrwt>
<pdfrwt beam="1">  1        1 0.17548607E+00 0.28622751E+04</pdfrwt>
<pdfrwt beam="2">  1       -1 0.27624435E+00 0.28622751E+04</pdfrwt>
<totfact> 0.47907141E-01</totfact>
</mgrwt>
</event>
<event>
 6    1  0.8968082E-007  0.4517133E+03  0.7818608E-02  0.1027212E+00
          2   -1    0    0  501    0  0.00000000000E+00  0.00000000000E+00  0.39371069310E+04  0.39371069310E+04  0.00000000000E+00 0. -1.
         -2   -1    0    0    0  501 -0.00000000000E+00 -0.00000000000E+00 -0.12956524085E+02  0.12956524085E+02  0.00000000000E+00 0.  1.
         23    2    1    2    0    0 -0.14946910881E+03  0.15634709722E+02  0.34048939607E+04  0.34094964236E+04  0.93688419908E+02 0.  0.
         13    1    3    3    0    0 -0.10360555980E+03  0.42069537380E+02  0.16394705388E+04  0.16432795275E+04  0.00000000000E+00 0. -1.
        -13    1    3    3    0    0 -0.45863549014E+02 -0.26434827658E+02  0.17654234219E+04  0.17662168961E+04  0.00000000000E+00 0.  1.
         22    1    1    2    0    0  0.14946910881E+03 -0.15634709722E+02  0.51925644626E+03  0.54056703157E+03  0.00000000000E+00 0.  1.
<mgrwt>
<rscale>  0 0.45171328E+03</rscale>
<asrwt>0</asrwt>
<pdfrwt beam="1">  1        2 0.60570781E+00 0.45171328E+03</pdfrwt>
<pdfrwt beam="2">  1       -2 0.19933145E-02 0.45171328E+03</pdfrwt>
<totfact> 0.37150381E+02</totfact>
</mgrwt>
</event>
<event>
 6    1  0.8968082E-007  0.1207579E+04  0.7818608E-02  0.9106249E-01
          2   -1    0    0  501    0  0.00000000000E+00  0.00000000000E+00  0.15454562774E+04  0.15454562774E+04  0.00000000000E+00 0. -1.
         -2   -1    0    0    0  501 -0.00000000000E+00 -0.00000000000E+00 -0.23589254224E+03  0.23589254224E+03  0.00000000000E+00 0.  1.
         23    2    1    2    0    0  0.58885563056E+03  0.93227160866E+02  0.54247110608E+03  0.80981736942E+03  0.78019316248E+02 0.  0.
         13    1    3    3    0    0  0.43730410939E+03  0.91303037658E+02  0.43877937421E+03  0.62617766489E+03  0.00000000000E+00 0. -1.
        -13    1    3    3    0    0  0.15155152118E+03  0.19241232077E+01  0.10369173187E+03  0.18363970453E+03  0.00000000000E+00 0.  1.
         22    1    1    2    0    0 -0.58885563056E+03 -0.93227160866E+02  0.76709262904E+03  0.97153145019E+03  0.00000000000E+00 0. -1.
<mgrwt>
<rscale>  0 0.12075788E+04</rscale>
<asrwt>0</asrwt>
<pdfrwt beam="1">  1        2 0.23776250E+00 0.12075788E+04</pdfrwt>
<pdfrwt beam="2">  1       -2 0.36291161E-01 0.12075788E+04</pdfrwt>
<totfact> 0.84290096E+01</totfact>
</mgrwt>
</event>
<event>
 6    1  0.8968082E-007  0.2940786E+04  0.7818608E-02  0.8260845E-01
          1   -1    0    0  501    0  0.00000000000E+00  0.00000000000E+00  0.17795712007E+04  0.17795712007E+04  0.00000000000E+00 0. -1.
         -1   -1    0    0    0  501 -0.00000000000E+00 -0.00000000000E+00 -0.12149309973E+04  0.12149309973E+04  0.00000000000E+00 0.  1.
         23    2    1    2    0    0 -0.25166941858E+02 -0.11909477042E+04 -0.59270966329E+03  0.13336444307E+04  0.91175180139E+02 0.  0.
         13    1    3    3    0    0 -0.10847565963E+02 -0.99391732318E+03 -0.45719973671E+03  0.10940845096E+04  0.00000000000E+00 0. -1.
        -13    1    3    3    0    0 -0.14319375895E+02 -0.19703038101E+03 -0.13550992659E+03  0.23955992104E+03  0.00000000000E+00 0.  1.
         22    1    1    2    0    0  0.25166941858E+02  0.11909477042E+04  0.11573498667E+04  0.16608577673E+04  0.00000000000E+00 0. -1.
<mgrwt>
<rscale>  0 0.29407864E+04</rscale>
<asrwt>0</asrwt>
<pdfrwt beam="1">  1        1 0.27378019E+00 0.29407864E+04</pdfrwt>
<pdfrwt beam="2">  1       -1 0.18691246E+00 0.29407864E+04</pdfrwt>
<totfact> 0.66849158E-01</totfact>
</mgrwt>
</event>
<event>
 6    1  0.8968082E-007  0.3884475E+04  0.7818608E-02  0.8028266E-01
          1   -1    0    0  501    0  0.00000000000E+00  0.00000000000E+00  0.26132207810E+04  0.26132207810E+04  0.00000000000E+00 0. -1.
         -1   -1    0    0    0  501 -0.00000000000E+00 -0.00000000000E+00 -0.14435388180E+04  0.14435388180E+04  0.00000000000E+00 0.  1.
         23    2    1    2    0    0  0.75206514901E+03  0.17718055265E+03 -0.12745571211E+04  0.14933049696E+04  0.92026847080E+02 0.  0.
         13    1    3    3    0    0  0.45118204866E+03  0.60557976694E+02 -0.72938815516E+03  0.85979043404E+03  0.00000000000E+00 0. -1.
        -13    1    3    3    0    0  0.30088310035E+03  0.11662257596E+03 -0.54516896595E+03  0.63351453554E+03  0.00000000000E+00 0.  1.
         22    1    1    2    0    0 -0.75206514901E+03 -0.17718055265E+03  0.24442390841E+04  0.25634546294E+04  0.00000000000E+00 0. -1.
<mgrwt>
<rscale>  0 0.38844746E+04</rscale>
<asrwt>0</asrwt>
<pdfrwt beam="1">  1        1 0.40203397E+00 0.38844746E+04</pdfrwt>
<pdfrwt beam="2">  1       -1 0.22208289E+00 0.38844746E+04</pdfrwt>
<totfact> 0.95097614E-02</totfact>
</mgrwt>
</event>
<event>
 6    1  0.8968082E-007  0.1758574E+04  0.7818608E-02  0.8728645E-01
         -1   -1    0    0    0  501 -0.00000000000E+00  0.00000000000E+00  0.48310180370E+03  0.48310180370E+03  0.00000000000E+00 0.  1.
          1   -1    0    0  501    0  0.00000000000E+00 -0.00000000000E+00 -0.16003779821E+04  0.16003779821E+04  0.00000000000E+00 0. -1.
         23    2    1    2    0    0 -0.48534808537E+03 -0.60979515141E+03 -0.83791011645E+02  0.78906699208E+03  0.90514604944E+02 0.  0.
         13    1    3    3    0    0 -0.16710880697E+03 -0.27670844846E+03 -0.50674973529E+02  0.32720157665E+03  0.00000000000E+00 0.  1.
        -13    1    3    3    0    0 -0.31823927840E+03 -0.33308670294E+03 -0.33116038116E+02  0.46186541543E+03  0.00000000000E+00 0. -1.
         22    1    1    2    0    0  0.48534808537E+03  0.60979515141E+03 -0.10334851668E+04  0.12944127937E+04  0.00000000000E+00 0. -1.
<mgrwt>
<rscale>  0 0.17585738E+04</rscale>
<asrwt>0</asrwt>
<pdfrwt beam="1">  1        1 0.24621200E+00 0.17585738E+04</pdfrwt>
<pdfrwt beam="2">  1       -1 0.74323354E-01 0.17585738E+04</pdfrwt>
<totfact> 0.96218141E+00</totfact>
</mgrwt>
</event>
<event>
 6    1  0.8968082E-007  0.1148819E+04  0.7818608E-02  0.9158874E-01
          1   -1    0    0  501    0  0.00000000000E+00  0.00000000000E+00  0.54339517126E+03  0.54339517126E+03  0.00000000000E+00 0. -1.
         -1   -1    0    0    0  501 -0.00000000000E+00 -0.00000000000E+00 -0.60719362970E+03  0.60719362970E+03  0.00000000000E+00 0.  1.
         23    2    1    2    0    0 -0.22535005075E+03  0.32102942413E+03 -0.44746363128E+03  0.60191631087E+03  0.90757960793E+02 0.  0.
         11    1    3    3    0    0 -0.37609148006E+02  0.90853446131E+02 -0.65908942295E+02  0.11837561135E+03  0.00000000000E+00 0. -1.
        -11    1    3    3    0    0 -0.18774090275E+03  0.23017597800E+03 -0.38155468898E+03  0.48354069952E+03  0.00000000000E+00 0.  1.
         22    1    1    2    0    0  0.22535005075E+03 -0.32102942413E+03  0.38366517283E+03  0.54867249008E+03  0.00000000000E+00 0. -1.
<mgrwt>
<rscale>  0 0.11488187E+04</rscale>
<asrwt>0</asrwt>
<pdfrwt beam="1">  1        1 0.83599257E-01 0.11488187E+04</pdfrwt>
<pdfrwt beam="2">  1       -1 0.93414405E-01 0.11488187E+04</pdfrwt>
<totfact> 0.43605788E+01</totfact>
</mgrwt>
</event>
<event>
 6    1  0.8968082E-007  0.8512072E+03  0.7818608E-02  0.9488718E-01
          3   -1    0    0  501    0  0.00000000000E+00  0.00000000000E+00  0.13468777964E+03  0.13468777964E+03  0.00000000000E+00 0. -1.
         -3   -1    0    0    0  501 -0.00000000000E+00 -0.00000000000E+00 -0.13448763571E+04  0.13448763571E+04  0.00000000000E+00 0.  1.
         23    2    1    2    0    0 -0.15420423167E+03  0.38271782650E+03 -0.46928628596E+03  0.63151455957E+03  0.91264127537E+02 0.  0.
         13    1    3    3    0    0 -0.12565907757E+03  0.22503673534E+03 -0.24297715528E+03  0.35421693073E+03  0.00000000000E+00 0. -1.
        -13    1    3    3    0    0 -0.28545154106E+02  0.15768109115E+03 -0.22630913068E+03  0.27729762884E+03  0.00000000000E+00 0.  1.
         22    1    1    2    0    0  0.15420423167E+03 -0.38271782650E+03 -0.74090229154E+03  0.84804957720E+03  0.00000000000E+00 0.  1.
<mgrwt>
<rscale>  0 0.85120717E+03</rscale>
<asrwt>0</asrwt>
<pdfrwt beam="1">  1        3 0.20721197E-01 0.85120717E+03</pdfrwt>
<pdfrwt beam="2">  1       -3 0.20690406E+00 0.85120717E+03</pdfrwt>
<totfact> 0.75548359E+00</totfact>
</mgrwt>
</event>
<event>
 6    1  0.8968082E-007  0.2661003E+04  0.7818608E-02  0.8347770E-01
          1   -1    0    0  501    0  0.00000000000E+00  0.00000000000E+00  0.12273156429E+04  0.12273156429E+04  0.00000000000E+00 0. -1.
         -1   -1    0    0    0  501 -0.00000000000E+00 -0.00000000000E+00 -0.14423631521E+04  0.14423631521E+04  0.00000000000E+00 0.  1.
         23    2    1    2    0    0 -0.66706238546E+03  0.11380142525E+04 -0.26926602940E+03  0.13494559679E+04  0.92079041264E+02 0.  0.
         11    1    3    3    0    0 -0.45941322803E+03  0.78083227846E+03 -0.14111316193E+03  0.91688193659E+03  0.00000000000E+00 0. -1.
        -11    1    3    3    0    0 -0.20764915743E+03  0.35718197404E+03 -0.12815286747E+03  0.43257403135E+03  0.00000000000E+00 0.  1.
         22    1    1    2    0    0  0.66706238546E+03 -0.11380142525E+04  0.54218520174E+02  0.13202228270E+04  0.00000000000E+00 0. -1.
<mgrwt>
<rscale>  0 0.26610035E+04</rscale>
<asrwt>0</asrwt>
<pdfrwt beam="1">  1        1 0.18881779E+00 0.26610035E+04</pdfrwt>
<pdfrwt beam="2">  1       -1 0.22190202E+00 0.26610035E+04</pdfrwt>
<totfact> 0.95559436E-01</totfact>
</mgrwt>
</event>
<event>
 6    1  0.8968082E-007  0.1823599E+04  0.7818608E-02  0.8693850E-01
          2   -1    0    0  501    0  0.00000000000E+00  0.00000000000E+00  0.29272407420E+04  0.29272407420E+04  0.00000000000E+00 0. -1.
         -2   -1    0    0    0  501 -0.00000000000E+00 -0.00000000000E+00 -0.28401430551E+03  0.28401430551E+03  0.00000000000E+00 0.  1.
         23    2    1    2    0    0  0.27607701989E+03 -0.76425809987E+03  0.20442077015E+04  0.22017341666E+04  0.92408058477E+02 0.  0.
         11    1    3    3    0    0  0.14727634480E+03 -0.53334243418E+03  0.14007494190E+04  0.15060688592E+04  0.00000000000E+00 0. -1.
        -11    1    3    3    0    0  0.12880067509E+03 -0.23091566569E+03  0.64345828251E+03  0.69566530738E+03  0.00000000000E+00 0.  1.
         22    1    1    2    0    0 -0.27607701989E+03  0.76425809987E+03  0.59901873495E+03  0.10095208809E+04  0.00000000000E+00 0.  1.
<mgrwt>
<rscale>  0 0.18235989E+04</rscale>
<asrwt>0</asrwt>
<pdfrwt beam="1">  1        2 0.45034471E+00 0.18235989E+04</pdfrwt>
<pdfrwt beam="2">  1       -2 0.43694511E-01 0.18235989E+04</pdfrwt>
<totfact> 0.90744059E+00</totfact>
</mgrwt>
</event>
<event>
 6    1  0.8968082E-007  0.2929020E+04  0.7818608E-02  0.8264295E-01
          2   -1    0    0  501    0  0.00000000000E+00  0.00000000000E+00  0.32986858987E+04  0.32986858987E+04  0.00000000000E+00 0. -1.
         -2   -1    0    0    0  501 -0.00000000000E+00 -0.00000000000E+00 -0.65019504296E+03  0.65019504296E+03  0.00000000000E+00 0.  1.
         23    2    1    2    0    0  0.12227365562E+04 -0.18916586506E+03  0.27300115721E+03  0.12704822189E+04  0.93418553974E+02 0.  0.
         11    1    3    3    0    0  0.65920342731E+03 -0.14005506863E+03  0.12036516088E+03  0.68458188172E+03  0.00000000000E+00 0. -1.
        -11    1    3    3    0    0  0.56353312890E+03 -0.49110796425E+02  0.15263599633E+03  0.58590033715E+03  0.00000000000E+00 0.  1.
         22    1    1    2    0    0 -0.12227365562E+04  0.18916586506E+03  0.23754896985E+04  0.26783987228E+04  0.00000000000E+00 0. -1.
<mgrwt>
<rscale>  0 0.29290198E+04</rscale>
<asrwt>0</asrwt>
<pdfrwt beam="1">  1        2 0.50749013E+00 0.29290198E+04</pdfrwt>
<pdfrwt beam="2">  1       -2 0.10003001E+00 0.29290198E+04</pdfrwt>
<totfact> 0.79273409E-01</totfact>
</mgrwt>
</event>
<event>
 6    1  0.8968082E-007  0.1070069E+04  0.7818608E-02  0.9234866E-01
         -4   -1    0    0    0  501 -0.00000000000E+00  0.00000000000E+00  0.67193087476E+03  0.67193087476E+03  0.00000000000E+00 0.  1.
          4   -1    0    0  501    0  0.00000000000E+00 -0.00000000000E+00 -0.42602849805E+03  0.42602849805E+03  0.00000000000E+00 0. -1.
         23    2    1    2    0    0  0.23298326569E+03  0.42993668216E+03  0.33677584437E+03  0.60058150852E+03  0.90296324770E+02 0.  0.
         13    1    3    3    0    0  0.16345008756E+03  0.28673064306E+03  0.17482487751E+03  0.37348913048E+03  0.00000000000E+00 0. -1.
        -13    1    3    3    0    0  0.69533178129E+02  0.14320603910E+03  0.16195096686E+03  0.22709237804E+03  0.00000000000E+00 0.  1.
         22    1    1    2    0    0 -0.23298326569E+03 -0.42993668216E+03 -0.90873467656E+02  0.49737786429E+03  0.00000000000E+00 0. -1.
<mgrwt>
<rscale>  0 0.10700686E+04</rscale>
<asrwt>0</asrwt>
<pdfrwt beam="1">  1        4 0.65542846E-01 0.10700686E+04</pdfrwt>
<pdfrwt beam="2">  1       -4 0.10337398E+00 0.10700686E+04</pdfrwt>
<totfact> 0.32658409E+00</totfact>
</mgrwt>
</event>
<event>
 6    1  0.8968082E-007  0.3240926E+04  0.7818608E-02  0.8178092E-01
          2   -1    0    0  501    0  0.00000000000E+00  0.00000000000E+00  0.26327972171E+04  0.26327972171E+04  0.00000000000E+00 0. -1.
         -2   -1    0    0    0  501 -0.00000000000E+00 -0.00000000000E+00 -0.99738054338E+03  0.99738054338E+03  0.00000000000E+00 0.  1.
         23    2    1    2    0    0  0.15763031540E+04 -0.11581264189E+03  0.12122170097E+04  0.19939497333E+04  0.90671160215E+02 0.  0.
         11    1    3    3    0    0  0.96532857731E+03 -0.69821128844E+02  0.79748025230E+03  0.12540769534E+04  0.00000000000E+00 0. -1.
        -11    1    3    3    0    0  0.61097457665E+03 -0.45991513049E+02  0.41473675738E+03  0.73987277994E+03  0.00000000000E+00 0.  1.
         22    1    1    2    0    0 -0.15763031540E+04  0.11581264189E+03  0.42319966405E+03  0.16362280272E+04  0.00000000000E+00 0.  1.
<mgrwt>
<rscale>  0 0.32409262E+04</rscale>
<asrwt>0</asrwt>
<pdfrwt beam="1">  1        2 0.40504572E+00 0.32409262E+04</pdfrwt>
<pdfrwt beam="2">  1       -2 0.15344316E+00 0.32409262E+04</pdfrwt>
<totfact> 0.68878445E-01</totfact>
</mgrwt>
</event>
<event>
 6    1  0.8968082E-007  0.2877623E+04  0.7818608E-02  0.8279566E-01
         -2   -1    0    0    0  501 -0.00000000000E+00  0.00000000000E+00  0.87534451568E+03  0.87534451568E+03  0.00000000000E+00 0.  1.
          2   -1    0    0  501    0  0.00000000000E+00 -0.00000000000E+00 -0.23649877164E+04  0.23649877164E+04  0.00000000000E+00 0. -1.
         23    2    1    2    0    0  0.11445526275E+04 -0.62904409800E+03 -0.69500556447E+02  0.13109534915E+04  0.89841723384E+02 0.  0.
         11    1    3    3    0    0  0.78557754793E+03 -0.38348693518E+03 -0.47132216740E+02  0.87545174574E+03  0.00000000000E+00 0. -1.
        -11    1    3    3    0    0  0.35897507959E+03 -0.24555716282E+03 -0.22368339707E+02  0.43550174581E+03  0.00000000000E+00 0.  1.
         22    1    1    2    0    0 -0.11445526275E+04  0.62904409800E+03 -0.14201426443E+04  0.19293787406E+04  0.00000000000E+00 0. -1.
<mgrwt>
<rscale>  0 0.28776233E+04</rscale>
<asrwt>0</asrwt>
<pdfrwt beam="1">  1        2 0.36384426E+00 0.28776233E+04</pdfrwt>
<pdfrwt beam="2">  1       -2 0.13466839E+00 0.28776233E+04</pdfrwt>
<totfact> 0.14289112E+00</totfact>
</mgrwt>
</event>
<event>
 6    1  0.8968082E-007  0.2263015E+04  0.7818608E-02  0.8492648E-01
          2   -1    0    0  501    0  0.00000000000E+00  0.00000000000E+00  0.11257254193E+04  0.11257254193E+04  0.00000000000E+00 0. -1.
         -2   -1    0    0    0  501 -0.00000000000E+00 -0.00000000000E+00 -0.11373190844E+04  0.11373190844E+04  0.00000000000E+00 0.  1.
         23    2    1    2    0    0 -0.74011649487E+03 -0.60225247270E+03  0.59899753476E+03  0.11302152666E+04  0.90044630317E+02 0.  0.
         13    1    3    3    0    0 -0.61153635542E+03 -0.46137381385E+03  0.45254996573E+03  0.88974377300E+03  0.00000000000E+00 0.  1.
        -13    1    3    3    0    0 -0.12858013945E+03 -0.14087865885E+03  0.14644756903E+03  0.24047149364E+03  0.00000000000E+00 0. -1.
         22    1    1    2    0    0  0.74011649487E+03  0.60225247270E+03 -0.61059119986E+03  0.11328292370E+04  0.00000000000E+00 0.  1.
<mgrwt>
<rscale>  0 0.22630148E+04</rscale>
<asrwt>0</asrwt>
<pdfrwt beam="1">  1        2 0.17318853E+00 0.22630148E+04</pdfrwt>
<pdfrwt beam="2">  1       -2 0.17497217E+00 0.22630148E+04</pdfrwt>
<totfact> 0.37546982E+00</totfact>
</mgrwt>
</event>
<event>
 6    1  0.8968082E-007  0.2432026E+04  0.7818608E-02  0.8427610E-01
         -2   -1    0    0    0  501 -0.00000000000E+00  0.00000000000E+00  0.12639721638E+04  0.12639721638E+04  0.00000000000E+00 0.  1.
          2   -1    0    0  501    0  0.00000000000E+00 -0.00000000000E+00 -0.11698733536E+04  0.11698733536E+04  0.00000000000E+00 0. -1.
         23    2    1    2    0    0  0.64948610983E+03  0.17163330502E+02 -0.97952483131E+03  0.11789373493E+04  0.91091116780E+02 0.  0.
         13    1    3    3    0    0  0.14018435379E+03  0.84899925296E+01 -0.28409644979E+03  0.31691406690E+03  0.00000000000E+00 0. -1.
        -13    1    3    3    0    0  0.50930175605E+03  0.86733379723E+01 -0.69542838152E+03  0.86202328236E+03  0.00000000000E+00 0.  1.
         22    1    1    2    0    0 -0.64948610983E+03 -0.17163330502E+02  0.10736236415E+04  0.12549081681E+04  0.00000000000E+00 0.  1.
<mgrwt>
<rscale>  0 0.24320258E+04</rscale>
<asrwt>0</asrwt>
<pdfrwt beam="1">  1        2 0.17998052E+00 0.24320258E+04</pdfrwt>
<pdfrwt beam="2">  1       -2 0.19445726E+00 0.24320258E+04</pdfrwt>
<totfact> 0.25629437E+00</totfact>
</mgrwt>
</event>
<event>
 6    1  0.8968082E-007  0.8998806E+03  0.7818608E-02  0.9425731E-01
         -1   -1    0    0    0  501 -0.00000000000E+00  0.00000000000E+00  0.24225211515E+03  0.24225211515E+03  0.00000000000E+00 0.  1.
          1   -1    0    0  501    0  0.00000000000E+00 -0.00000000000E+00 -0.83568415213E+03  0.83568415213E+03  0.00000000000E+00 0. -1.
         23    2    1    2    0    0  0.20015677033E+03 -0.39505140672E+03 -0.24750056572E+03  0.51597814654E+03  0.94066843326E+02 0.  0.
         13    1    3    3    0    0  0.20609064536E+03 -0.34226743505E+03 -0.21488580164E+03  0.45364772561E+03  0.00000000000E+00 0. -1.
        -13    1    3    3    0    0 -0.59338750236E+01 -0.52783971670E+02 -0.32614764076E+02  0.62330420934E+02  0.00000000000E+00 0.  1.
         22    1    1    2    0    0 -0.20015677033E+03  0.39505140672E+03 -0.34593147126E+03  0.56195812074E+03  0.00000000000E+00 0. -1.
<mgrwt>
<rscale>  0 0.89988056E+03</rscale>
<asrwt>0</asrwt>
<pdfrwt beam="1">  1        1 0.12856679E+00 0.89988056E+03</pdfrwt>
<pdfrwt beam="2">  1       -1 0.37269556E-01 0.89988056E+03</pdfrwt>
<totfact> 0.14363268E+02</totfact>
</mgrwt>
</event>
<event>
 6    1  0.1795848E-006  0.4874929E+04  0.7818608E-02  0.7848096E-01
         -2   -1    0    0    0  501 -0.00000000000E+00  0.00000000000E+00  0.23357783900E+04  0.23357783900E+04  0.00000000000E+00 0.  1.
          2   -1    0    0  501    0  0.00000000000E+00 -0.00000000000E+00 -0.25435771609E+04  0.25435771609E+04  0.00000000000E+00 0. -1.
         23    2    1    2    0    0  0.27495777649E+03  0.36778169213E+03  0.22911702575E+04  0.23385463575E+04  0.92047624466E+02 0.  0.
         11    1    3    3    0    0  0.77016104861E+02  0.13368362284E+03  0.97597141693E+03  0.98809058193E+03  0.00000000000E+00 0. -1.
        -11    1    3    3    0    0  0.19794167163E+03  0.23409806929E+03  0.13151988406E+04  0.13504557756E+04  0.00000000000E+00 0.  1.
         22    1    1    2    0    0 -0.27495777649E+03 -0.36778169213E+03 -0.24989690285E+04  0.25408091934E+04  0.00000000000E+00 0. -1.
<mgrwt>
<rscale>  0 0.48749287E+04</rscale>
<asrwt>0</asrwt>
<pdfrwt beam="1">  1        2 0.39131956E+00 0.48749287E+04</pdfrwt>
<pdfrwt beam="2">  1       -2 0.35935052E+00 0.48749287E+04</pdfrwt>
<totfact> 0.32782298E-02</totfact>
</mgrwt>
</event>
<event>
 6    1  0.9095109E-007  0.3102720E+04  0.7818608E-02  0.8214992E-01
          1   -1    0    0  501    0  0.00000000000E+00  0.00000000000E+00  0.17049159657E+04  0.17049159657E+04  0.00000000000E+00 0. -1.
         -1   -1    0    0    0  501 -0.00000000000E+00 -0.00000000000E+00 -0.14116343488E+04  0.14116343488E+04  0.00000000000E+00 0.  1.
         23    2    1    2    0    0  0.14426853259E+04  0.71742037676E+02 -0.41788666633E+03  0.15065042914E+04  0.91858829926E+02 0.  0.
         13    1    3    3    0    0  0.99773425068E+03  0.13022286627E+02 -0.31070549224E+03  0.10450746949E+04  0.00000000000E+00 0.  1.
        -13    1    3    3    0    0  0.44495107517E+03  0.58719751049E+02 -0.10718117408E+03  0.46142959652E+03  0.00000000000E+00 0. -1.
         22    1    1    2    0    0 -0.14426853259E+04 -0.71742037676E+02  0.71116828329E+03  0.16100460231E+04  0.00000000000E+00 0. -1.
<mgrwt>
<rscale>  0 0.31027201E+04</rscale>
<asrwt>0</asrwt>
<pdfrwt beam="1">  1        1 0.26229476E+00 0.31027201E+04</pdfrwt>
<pdfrwt beam="2">  1       -1 0.21717451E+00 0.31027201E+04</pdfrwt>
<totfact> 0.45871842E-01</totfact>
</mgrwt>
</event>
<event>
 6    1  0.8968082E-007  0.5065632E+04  0.7818608E-02  0.7818462E-01
          2   -1    0    0  501    0  0.00000000000E+00  0.00000000000E+00  0.15780439910E+04  0.15780439910E+04  0.00000000000E+00 0. -1.
         -2   -1    0    0    0  501 -0.00000000000E+00 -0.00000000000E+00 -0.40652579636E+04  0.40652579636E+04  0.00000000000E+00 0.  1.
         23    2    1    2    0    0  0.52741830951E+03  0.10146899311E+04  0.12726199650E+04  0.17134015782E+04  0.91747824783E+02 0.  0.
         11    1    3    3    0    0  0.19566499643E+03  0.46862240456E+03  0.58812009964E+03  0.77703088773E+03  0.00000000000E+00 0. -1.
        -11    1    3    3    0    0  0.33175331308E+03  0.54606752650E+03  0.68449986538E+03  0.93637069046E+03  0.00000000000E+00 0.  1.
         22    1    1    2    0    0 -0.52741830951E+03 -0.10146899311E+04 -0.37598339377E+04  0.39299003764E+04  0.00000000000E+00 0.  1.
<mgrwt>
<rscale>  0 0.50656316E+04</rscale>
<asrwt>0</asrwt>
<pdfrwt beam="1">  1        2 0.24277600E+00 0.50656316E+04</pdfrwt>
<pdfrwt beam="2">  1       -2 0.62542430E+00 0.50656316E+04</pdfrwt>
<totfact> 0.34286937E-03</totfact>
</mgrwt>
</event>
<event>
 6    1  0.8968082E-007  0.7192747E+03  0.7818608E-02  0.9684826E-01
          1   -1    0    0  501    0  0.00000000000E+00  0.00000000000E+00  0.24299826448E+03  0.24299826448E+03  0.00000000000E+00 0. -1.
         -1   -1    0    0    0  501 -0.00000000000E+00 -0.00000000000E+00 -0.53226315265E+03  0.53226315265E+03  0.00000000000E+00 0.  1.
         23    2    1    2    0    0  0.21091455632E+03  0.16880438689E+03  0.10061464631E+03  0.30093460731E+03  0.86362374478E+02 0.  0.
         11    1    3    3    0    0  0.20338943423E+03  0.17080231796E+03  0.77690856914E+02  0.27672470621E+03  0.00000000000E+00 0.  1.
        -11    1    3    3    0    0  0.75251220910E+01 -0.19979310773E+01  0.22923789398E+02  0.24209901103E+02  0.00000000000E+00 0. -1.
         22    1    1    2    0    0 -0.21091455632E+03 -0.16880438689E+03 -0.38987953448E+03  0.47432680982E+03  0.00000000000E+00 0.  1.
<mgrwt>
<rscale>  0 0.71927470E+03</rscale>
<asrwt>0</asrwt>
<pdfrwt beam="1">  1        1 0.37384349E-01 0.71927470E+03</pdfrwt>
<pdfrwt beam="2">  1       -1 0.81886638E-01 0.71927470E+03</pdfrwt>
<totfact> 0.17377038E+02</totfact>
</mgrwt>
</event>
<event>
 6    1  0.8968082E-007  0.2265312E+04  0.7818608E-02  0.8491725E-01
          2   -1    0    0  501    0  0.00000000000E+00  0.00000000000E+00  0.12235937734E+04  0.12235937734E+04  0.00000000000E+00 0. -1.
         -2   -1    0    0    0  501 -0.00000000000E+00 -0.00000000000E+00 -0.10484764748E+04  0.10484764748E+04  0.00000000000E+00 0.  1.
         23    2    1    2    0    0 -0.62192038501E+03 -0.49550176868E+03  0.89399274132E+03  0.12001146194E+04  0.93515292911E+02 0.  0.
         11    1    3    3    0    0 -0.34360934609E+03 -0.28032301751E+03  0.56701991358E+03  0.71983328574E+03  0.00000000000E+00 0.  1.
        -11    1    3    3    0    0 -0.27831103892E+03 -0.21517875118E+03  0.32697282775E+03  0.48028133362E+03  0.00000000000E+00 0. -1.
         22    1    1    2    0    0  0.62192038501E+03  0.49550176868E+03 -0.71887544269E+03  0.10719556288E+04  0.00000000000E+00 0.  1.
<mgrwt>
<rscale>  0 0.22653117E+04</rscale>
<asrwt>0</asrwt>
<pdfrwt beam="1">  1        2 0.18824520E+00 0.22653117E+04</pdfrwt>
<pdfrwt beam="2">  1       -2 0.16130407E+00 0.22653117E+04</pdfrwt>
<totfact> 0.41076383E+00</totfact>
</mgrwt>
</event>
<event>
 6    1  0.8968082E-007  0.1649556E+04  0.7818608E-02  0.8790669E-01
         -1   -1    0    0    0  501 -0.00000000000E+00  0.00000000000E+00  0.78528952188E+03  0.78528952188E+03  0.00000000000E+00 0.  1.
          1   -1    0    0  501    0  0.00000000000E+00 -0.00000000000E+00 -0.86625216454E+03  0.86625216454E+03  0.00000000000E+00 0. -1.
         23    2    1    2    0    0  0.39151948863E+03 -0.72274699275E+03 -0.59115028575E+02  0.82927163118E+03  0.92445260376E+02 0.  0.
         11    1    3    3    0    0  0.24225275791E+03 -0.50078019989E+03 -0.47664491771E+01  0.55631818805E+03  0.00000000000E+00 0.  1.
        -11    1    3    3    0    0  0.14926673073E+03 -0.22196679286E+03 -0.54348579397E+02  0.27295344313E+03  0.00000000000E+00 0. -1.
         22    1    1    2    0    0 -0.39151948863E+03  0.72274699275E+03 -0.21847614083E+02  0.82227005524E+03  0.00000000000E+00 0. -1.
<mgrwt>
<rscale>  0 0.16495560E+04</rscale>
<asrwt>0</asrwt>
<pdfrwt beam="1">  1        1 0.13326956E+00 0.16495560E+04</pdfrwt>
<pdfrwt beam="2">  1       -1 0.12081377E+00 0.16495560E+04</pdfrwt>
<totfact> 0.11295048E+01</totfact>
</mgrwt>
</event>
<event>
 6    1  0.8968082E-007  0.4216368E+04  0.7818608E-02  0.7962266E-01
          2   -1    0    0  501    0  0.00000000000E+00  0.00000000000E+00  0.16425947098E+04  0.16425947098E+04  0.00000000000E+00 0. -1.
         -2   -1    0    0    0  501 -0.00000000000E+00 -0.00000000000E+00 -0.27057432999E+04  0.27057432999E+04  0.00000000000E+00 0.  1.
         23    2    1    2    0    0 -0.19939081893E+04  0.56577610304E+03 -0.92446795122E+03  0.22710790500E+04  0.85945287457E+02 0.  0.
         11    1    3    3    0    0 -0.92543066416E+03  0.30556058600E+03 -0.44689624004E+03  0.10721499127E+04  0.00000000000E+00 0. -1.
        -11    1    3    3    0    0 -0.10684775251E+04  0.26021551705E+03 -0.47757171118E+03  0.11989291373E+04  0.00000000000E+00 0.  1.
         22    1    1    2    0    0  0.19939081893E+04 -0.56577610304E+03 -0.13868063885E+03  0.20772589597E+04  0.00000000000E+00 0. -1.
<mgrwt>
<rscale>  0 0.42163679E+04</rscale>
<asrwt>0</asrwt>
<pdfrwt beam="1">  1        2 0.25270688E+00 0.42163679E+04</pdfrwt>
<pdfrwt beam="2">  1       -2 0.41626819E+00 0.42163679E+04</pdfrwt>
<totfact> 0.47487168E-02</totfact>
</mgrwt>
</event>
<event>
 6    1  0.8968082E-007  0.2039631E+04  0.7818608E-02  0.8588313E-01
         -1   -1    0    0    0  501 -0.00000000000E+00  0.00000000000E+00  0.49835264253E+03  0.49835264253E+03  0.00000000000E+00 0.  1.
          1   -1    0    0  501    0  0.00000000000E+00 -0.00000000000E+00 -0.20869233575E+04  0.20869233575E+04  0.00000000000E+00 0. -1.
         23    2    1    2    0    0 -0.77649016815E+03 -0.62301454693E+03 -0.10639746137E+04  0.14599826266E+04  0.91777907405E+02 0.  0.
         11    1    3    3    0    0 -0.20064320671E+03 -0.21175547877E+03 -0.29169955940E+03  0.41253692216E+03  0.00000000000E+00 0. -1.
        -11    1    3    3    0    0 -0.57584696144E+03 -0.41125906816E+03 -0.77227505432E+03  0.10474457044E+04  0.00000000000E+00 0.  1.
         22    1    1    2    0    0  0.77649016815E+03  0.62301454693E+03 -0.52459610125E+03  0.11252933735E+04  0.00000000000E+00 0.  1.
<mgrwt>
<rscale>  0 0.20396311E+04</rscale>
<asrwt>0</asrwt>
<pdfrwt beam="1">  1        1 0.32106513E+00 0.20396311E+04</pdfrwt>
<pdfrwt beam="2">  1       -1 0.76669638E-01 0.20396311E+04</pdfrwt>
<totfact> 0.41048327E+00</totfact>
</mgrwt>
</event>
<event>
 6    1  0.8968082E-007  0.3543967E+04  0.7818608E-02  0.8103449E-01
          1   -1    0    0  501    0  0.00000000000E+00  0.00000000000E+00  0.23063379988E+04  0.23063379988E+04  0.00000000000E+00 0. -1.
         -1   -1    0    0    0  501 -0.00000000000E+00 -0.00000000000E+00 -0.13614335322E+04  0.13614335322E+04  0.00000000000E+00 0.  1.
         23    2    1    2    0    0 -0.72113789067E+03  0.15867388431E+04  0.14835900154E+03  0.17514561365E+04  0.88363968047E+02 0.  0.
         13    1    3    3    0    0 -0.35770795232E+03  0.69347885221E+03  0.45531288010E+02  0.78162714628E+03  0.00000000000E+00 0. -1.
        -13    1    3    3    0    0 -0.36342993836E+03  0.89325999094E+03  0.10282771353E+03  0.96982899017E+03  0.00000000000E+00 0.  1.
         22    1    1    2    0    0  0.72113789067E+03 -0.15867388431E+04  0.79654546502E+03  0.19163153946E+04  0.00000000000E+00 0. -1.
<mgrwt>
<rscale>  0 0.35439672E+04</rscale>
<asrwt>0</asrwt>
<pdfrwt beam="1">  1        1 0.35482123E+00 0.35439672E+04</pdfrwt>
<pdfrwt beam="2">  1       -1 0.20945131E+00 0.35439672E+04</pdfrwt>
<totfact> 0.19421355E-01</totfact>
</mgrwt>
</event>
<event>
 6    1  0.8968082E-007  0.1235532E+04  0.7818608E-02  0.9082312E-01
         -1   -1    0    0    0  501 -0.00000000000E+00  0.00000000000E+00  0.65031895706E+03  0.65031895706E+03  0.00000000000E+00 0.  1.
          1   -1    0    0  501    0  0.00000000000E+00 -0.00000000000E+00 -0.58684262561E+03  0.58684262561E+03  0.00000000000E+00 0. -1.
         23    2    1    2    0    0 -0.36054084955E+02  0.44412770321E+03 -0.39181146808E+03  0.60010876366E+03  0.89805277722E+02 0.  0.
         11    1    3    3    0    0 -0.60278529156E+02  0.19241198283E+03 -0.17761299439E+03  0.26870475989E+03  0.00000000000E+00 0.  1.
        -11    1    3    3    0    0  0.24224444201E+02  0.25171572038E+03 -0.21419847370E+03  0.33140400377E+03  0.00000000000E+00 0. -1.
         22    1    1    2    0    0  0.36054084955E+02 -0.44412770321E+03  0.45528779954E+03  0.63705281901E+03  0.00000000000E+00 0.  1.
<mgrwt>
<rscale>  0 0.12355321E+04</rscale>
<asrwt>0</asrwt>
<pdfrwt beam="1">  1        1 0.90283481E-01 0.12355321E+04</pdfrwt>
<pdfrwt beam="2">  1       -1 0.10004907E+00 0.12355321E+04</pdfrwt>
<totfact> 0.33254332E+01</totfact>
</mgrwt>
</event>
<event>
 6    1  0.8968082E-007  0.3771325E+04  0.7818608E-02  0.8052337E-01
         -2   -1    0    0    0  501 -0.00000000000E+00  0.00000000000E+00  0.25269125013E+04  0.25269125013E+04  0.00000000000E+00 0.  1.
          2   -1    0    0  501    0  0.00000000000E+00 -0.00000000000E+00 -0.14071412027E+04  0.14071412027E+04  0.00000000000E+00 0. -1.
         23    2    1    2    0    0 -0.18076903789E+03  0.16216093884E+04 -0.42347056498E+03  0.16881930887E+04  0.91510282821E+02 0.  0.
         11    1    3    3    0    0 -0.14050982832E+03  0.85032325948E+03 -0.22824134740E+03  0.89156422659E+03  0.00000000000E+00 0. -1.
        -11    1    3    3    0    0 -0.40259209566E+02  0.77128612888E+03 -0.19522921757E+03  0.79662886211E+03  0.00000000000E+00 0.  1.
         22    1    1    2    0    0  0.18076903789E+03 -0.16216093884E+04  0.15432418636E+04  0.22458606152E+04  0.00000000000E+00 0.  1.
<mgrwt>
<rscale>  0 0.37713248E+04</rscale>
<asrwt>0</asrwt>
<pdfrwt beam="1">  1        2 0.21648326E+00 0.37713248E+04</pdfrwt>
<pdfrwt beam="2">  1       -2 0.38875577E+00 0.37713248E+04</pdfrwt>
<totfact> 0.10117018E-01</totfact>
</mgrwt>
</event>
<event>
 6    1  0.8968082E-007  0.2235371E+04  0.7818608E-02  0.8503849E-01
          2   -1    0    0  501    0  0.00000000000E+00  0.00000000000E+00  0.14361340167E+04  0.14361340167E+04  0.00000000000E+00 0. -1.
         -2   -1    0    0    0  501 -0.00000000000E+00 -0.00000000000E+00 -0.86984973537E+03  0.86984973537E+03  0.00000000000E+00 0.  1.
         23    2    1    2    0    0 -0.99508714778E+02 -0.10270006964E+04 -0.15470650697E+03  0.10472303483E+04  0.90138140616E+02 0.  0.
         13    1    3    3    0    0  0.63263261452E+01 -0.36449185156E+03 -0.42764097559E+02  0.36704645522E+03  0.00000000000E+00 0. -1.
        -13    1    3    3    0    0 -0.10583504092E+03 -0.66250884485E+03 -0.11194240941E+03  0.68018389309E+03  0.00000000000E+00 0.  1.
         22    1    1    2    0    0  0.99508714778E+02  0.10270006964E+04  0.72099078833E+03  0.12587534038E+04  0.00000000000E+00 0. -1.
<mgrwt>
<rscale>  0 0.22353709E+04</rscale>
<asrwt>0</asrwt>
<pdfrwt beam="1">  1        2 0.22094370E+00 0.22353709E+04</pdfrwt>
<pdfrwt beam="2">  1       -2 0.13382304E+00 0.22353709E+04</pdfrwt>
<totfact> 0.50746217E+00</totfact>
</mgrwt>
</event>
<event>
 6    1  0.8968082E-007  0.1254133E+04  0.7818608E-02  0.9066750E-01
         -2   -1    0    0    0  501 -0.00000000000E+00  0.00000000000E+00  0.18948053889E+03  0.18948053889E+03  0.00000000000E+00 0.  1.
          2   -1    0    0  501    0  0.00000000000E+00 -0.00000000000E+00 -0.20752129323E+04  0.20752129323E+04  0.00000000000E+00 0. -1.
         23    2    1    2    0    0 -0.38897257072E+03 -0.20512825308E+03 -0.17469008470E+04  0.18035519969E+04  0.88090722739E+02 0.  0.
         11    1    3    3    0    0 -0.16346790510E+03 -0.81817600248E+02 -0.90568482072E+03  0.92394852140E+03  0.00000000000E+00 0.  1.
        -11    1    3    3    0    0 -0.22550466562E+03 -0.12331065283E+03 -0.84121602628E+03  0.87960347555E+03  0.00000000000E+00 0. -1.
         22    1    1    2    0    0  0.38897257072E+03  0.20512825308E+03 -0.13883154641E+03  0.46114147424E+03  0.00000000000E+00 0.  1.
<mgrwt>
<rscale>  0 0.12541331E+04</rscale>
<asrwt>0</asrwt>
<pdfrwt beam="1">  1        2 0.31926351E+00 0.12541331E+04</pdfrwt>
<pdfrwt beam="2">  1       -2 0.29150854E-01 0.12541331E+04</pdfrwt>
<totfact> 0.64624975E+01</totfact>
</mgrwt>
</event>
<event>
 6    1  0.8968082E-007  0.2041734E+04  0.7818608E-02  0.8587354E-01
         -1   -1    0    0    0  501 -0.00000000000E+00  0.00000000000E+00  0.80155650570E+03  0.80155650570E+03  0.00000000000E+00 0.  1.
          1   -1    0    0  501    0  0.00000000000E+00 -0.00000000000E+00 -0.13001815812E+04  0.13001815812E+04  0.00000000000E+00 0. -1.
         23    2    1    2    0    0  0.68694954684E+03 -0.19810037577E+03 -0.99695664854E+03  0.12302578545E+04  0.92023859485E+02 0.  0.
         11    1    3    3    0    0  0.39542664889E+03 -0.14555999423E+03 -0.52712867777E+03  0.67484412237E+03  0.00000000000E+00 0.  1.
        -11    1    3    3    0    0  0.29152289795E+03 -0.52540381535E+02 -0.46982797077E+03  0.55541373213E+03  0.00000000000E+00 0. -1.
         22    1    1    2    0    0 -0.68694954684E+03  0.19810037577E+03  0.49833157303E+03  0.87148023240E+03  0.00000000000E+00 0.  1.
<mgrwt>
<rscale>  0 0.20417336E+04</rscale>
<asrwt>0</asrwt>
<pdfrwt beam="1">  1        1 0.20002793E+00 0.20417336E+04</pdfrwt>
<pdfrwt beam="2">  1       -1 0.12331639E+00 0.20417336E+04</pdfrwt>
<totfact> 0.48383882E+00</totfact>
</mgrwt>
</event>
<event>
 6    1  0.8968082E-007  0.1927904E+04  0.7818608E-02  0.8641090E-01
         -1   -1    0    0    0  501 -0.00000000000E+00  0.00000000000E+00  0.48513855664E+03  0.48513855664E+03  0.00000000000E+00 0.  1.
          1   -1    0    0  501    0  0.00000000000E+00 -0.00000000000E+00 -0.19153358386E+04  0.19153358386E+04  0.00000000000E+00 0. -1.
         23    2    1    2    0    0  0.59238516617E+03  0.15413369699E+03  0.20703606955E+03  0.65255837069E+03  0.91055540246E+02 0.  0.
         13    1    3    3    0    0  0.38090815289E+03  0.12169360423E+03  0.17391892781E+03  0.43605979830E+03  0.00000000000E+00 0. -1.
        -13    1    3    3    0    0  0.21147701329E+03  0.32440092759E+02  0.33117141737E+02  0.21649857239E+03  0.00000000000E+00 0.  1.
         22    1    1    2    0    0 -0.59238516617E+03 -0.15413369699E+03 -0.16372333515E+04  0.17479160246E+04  0.00000000000E+00 0.  1.
<mgrwt>
<rscale>  0 0.19279038E+04</rscale>
<asrwt>0</asrwt>
<pdfrwt beam="1">  1        1 0.29466705E+00 0.19279038E+04</pdfrwt>
<pdfrwt beam="2">  1       -1 0.74636702E-01 0.19279038E+04</pdfrwt>
<totfact> 0.57342841E+00</totfact>
</mgrwt>
</event>
<event>
 6    1  0.8968082E-007  0.9647720E+03  0.7818608E-02  0.9348049E-01
          4   -1    0    0  501    0  0.00000000000E+00  0.00000000000E+00  0.63271915039E+03  0.63271915039E+03  0.00000000000E+00 0. -1.
         -4   -1    0    0    0  501 -0.00000000000E+00 -0.00000000000E+00 -0.36777182052E+03  0.36777182052E+03  0.00000000000E+00 0.  1.
         23    2    1    2    0    0 -0.15821683580E+03  0.30328326809E+03 -0.21289740869E+03  0.41282703464E+03  0.89930784871E+02 0.  0.
         13    1    3    3    0    0 -0.10491793865E+03  0.25258643686E+03 -0.13269372977E+03  0.30399886160E+03  0.00000000000E+00 0. -1.
        -13    1    3    3    0    0 -0.53298897145E+02  0.50696831234E+02 -0.80203678919E+02  0.10882817304E+03  0.00000000000E+00 0.  1.
         22    1    1    2    0    0  0.15821683580E+03 -0.30328326809E+03  0.47784473855E+03  0.58766393627E+03  0.00000000000E+00 0. -1.
<mgrwt>
<rscale>  0 0.96477204E+03</rscale>
<asrwt>0</asrwt>
<pdfrwt beam="1">  1        4 0.97341408E-01 0.96477204E+03</pdfrwt>
<pdfrwt beam="2">  1       -4 0.56580280E-01 0.96477204E+03</pdfrwt>
<totfact> 0.51971923E+00</totfact>
</mgrwt>
</event>
<event>
 6    1  0.8968082E-007  0.5230012E+04  0.7818608E-02  0.7793973E-01
         -2   -1    0    0    0  501 -0.00000000000E+00  0.00000000000E+00  0.19756333278E+04  0.19756333278E+04  0.00000000000E+00 0.  1.
          2   -1    0    0  501    0  0.00000000000E+00 -0.00000000000E+00 -0.34612987198E+04  0.34612987198E+04  0.00000000000E+00 0. -1.
         23    2    1    2    0    0 -0.13333417391E+04  0.21875317180E+04 -0.12850305667E+04  0.28672337105E+04  0.81427158505E+02 0.  0.
         11    1    3    3    0    0 -0.38406791320E+03  0.57303165745E+03 -0.36896777299E+03  0.78231110173E+03  0.00000000000E+00 0.  1.
        -11    1    3    3    0    0 -0.94927382593E+03  0.16145000606E+04 -0.91606279374E+03  0.20849226087E+04  0.00000000000E+00 0. -1.
         22    1    1    2    0    0  0.13333417391E+04 -0.21875317180E+04 -0.20063482533E+03  0.25696983371E+04  0.00000000000E+00 0.  1.
<mgrwt>
<rscale>  0 0.52300123E+04</rscale>
<asrwt>0</asrwt>
<pdfrwt beam="1">  1        2 0.53250749E+00 0.52300123E+04</pdfrwt>
<pdfrwt beam="2">  1       -2 0.30394359E+00 0.52300123E+04</pdfrwt>
<totfact> 0.18557785E-02</totfact>
</mgrwt>
</event>
<event>
 6    1  0.8968082E-007  0.1420858E+04  0.7818608E-02  0.8938858E-01
         -2   -1    0    0    0  501 -0.00000000000E+00  0.00000000000E+00  0.11990942780E+04  0.11990942780E+04  0.00000000000E+00 0.  1.
          2   -1    0    0  501    0  0.00000000000E+00 -0.00000000000E+00 -0.42090858358E+03  0.42090858358E+03  0.00000000000E+00 0. -1.
         23    2    1    2    0    0  0.29618732740E+03 -0.22426600573E+03  0.10774005975E+04  0.11429790336E+04  0.87102523234E+02 0.  0.
         13    1    3    3    0    0  0.21509087718E+01 -0.25827586984E+02  0.95959661527E+02  0.99397924014E+02  0.00000000000E+00 0. -1.
        -13    1    3    3    0    0  0.29403641863E+03 -0.19843841874E+03  0.98144093601E+03  0.10435811096E+04  0.00000000000E+00 0.  1.
         22    1    1    2    0    0 -0.29618732740E+03  0.22426600573E+03 -0.29921490307E+03  0.47702382797E+03  0.00000000000E+00 0. -1.
<mgrwt>
<rscale>  0 0.14208576E+04</rscale>
<asrwt>0</asrwt>
<pdfrwt beam="1">  1        2 0.64755167E-01 0.14208576E+04</pdfrwt>
<pdfrwt beam="2">  1       -2 0.18447604E+00 0.14208576E+04</pdfrwt>
<totfact> 0.12308764E+01</totfact>
</mgrwt>
</event>
<event>
 6    1  0.8968082E-007  0.6206282E+03  0.7818608E-02  0.9863510E-01
          1   -1    0    0  501    0  0.00000000000E+00  0.00000000000E+00  0.30828041584E+03  0.30828041584E+03  0.00000000000E+00 0. -1.
         -1   -1    0    0    0  501 -0.00000000000E+00 -0.00000000000E+00 -0.31236124039E+03  0.31236124039E+03  0.00000000000E+00 0.  1.
         23    2    1    2    0    0  0.21594249460E+03  0.19812785870E+02  0.21002612571E+03  0.31590325431E+03  0.93060115750E+02 0.  0.
         11    1    3    3    0    0  0.19124756050E+03  0.40491879799E+02  0.14518724744E+03  0.24350474029E+03  0.00000000000E+00 0. -1.
        -11    1    3    3    0    0  0.24694934100E+02 -0.20679093929E+02  0.64838878272E+02  0.72398514014E+02  0.00000000000E+00 0.  1.
         22    1    1    2    0    0 -0.21594249460E+03 -0.19812785870E+02 -0.21410695026E+03  0.30473840192E+03  0.00000000000E+00 0.  1.
<mgrwt>
<rscale>  0 0.62062824E+03</rscale>
<asrwt>0</asrwt>
<pdfrwt beam="1">  1        1 0.47427757E-01 0.62062824E+03</pdfrwt>
<pdfrwt beam="2">  1       -1 0.48055575E-01 0.62062824E+03</pdfrwt>
<totfact> 0.37103508E+02</totfact>
</mgrwt>
</event>
<event>
 6    1  0.8968082E-007  0.1549459E+04  0.7818608E-02  0.8852214E-01
         -1   -1    0    0    0  501 -0.00000000000E+00  0.00000000000E+00  0.41309696737E+03  0.41309696737E+03  0.00000000000E+00 0.  1.
          1   -1    0    0  501    0  0.00000000000E+00 -0.00000000000E+00 -0.14529409547E+04  0.14529409547E+04  0.00000000000E+00 0. -1.
         23    2    1    2    0    0 -0.28821208744E+03  0.60150686422E+03 -0.98985545617E+03  0.11971765251E+04  0.92418034978E+02 0.  0.
         13    1    3    3    0    0 -0.10753742573E+03  0.21372332738E+03 -0.27919795461E+03  0.36768662807E+03  0.00000000000E+00 0. -1.
        -13    1    3    3    0    0 -0.18067466170E+03  0.38778353684E+03 -0.71065750156E+03  0.82948989708E+03  0.00000000000E+00 0.  1.
         22    1    1    2    0    0  0.28821208744E+03 -0.60150686422E+03 -0.49988531165E+02  0.66886139693E+03  0.00000000000E+00 0.  1.
<mgrwt>
<rscale>  0 0.15494586E+04</rscale>
<asrwt>0</asrwt>
<pdfrwt beam="1">  1        1 0.22352938E+00 0.15494586E+04</pdfrwt>
<pdfrwt beam="2">  1       -1 0.63553380E-01 0.15494586E+04</pdfrwt>
<totfact> 0.17065031E+01</totfact>
</mgrwt>
</event>
<event>
 6    1  0.8968082E-007  0.1098057E+04  0.7818608E-02  0.9207088E-01
          1   -1    0    0  501    0  0.00000000000E+00  0.00000000000E+00  0.14183771941E+04  0.14183771941E+04  0.00000000000E+00 0. -1.
         -1   -1    0    0    0  501 -0.00000000000E+00 -0.00000000000E+00 -0.21251905337E+03  0.21251905337E+03  0.00000000000E+00 0.  1.
         23    2    1    2    0    0 -0.55804558056E+02 -0.46421210264E+03  0.10234192037E+04  0.11290088191E+04  0.93096843505E+02 0.  0.
         11    1    3    3    0    0 -0.24752304776E+02 -0.14145801690E+03  0.42179808160E+03  0.44557453785E+03  0.00000000000E+00 0. -1.
        -11    1    3    3    0    0 -0.31052253280E+02 -0.32275408574E+03  0.60162112209E+03  0.68343428129E+03  0.00000000000E+00 0.  1.
         22    1    1    2    0    0  0.55804558056E+02  0.46421210264E+03  0.18243893700E+03  0.50188742828E+03  0.00000000000E+00 0.  1.
<mgrwt>
<rscale>  0 0.10980568E+04</rscale>
<asrwt>0</asrwt>
<pdfrwt beam="1">  1        1 0.21821187E+00 0.10980568E+04</pdfrwt>
<pdfrwt beam="2">  1       -1 0.32695240E-01 0.10980568E+04</pdfrwt>
<totfact> 0.65108708E+01</totfact>
</mgrwt>
</event>
<event>
 6    1  0.8968082E-007  0.1560210E+04  0.7818608E-02  0.8845372E-01
          1   -1    0    0  501    0  0.00000000000E+00  0.00000000000E+00  0.97599804477E+03  0.97599804477E+03  0.00000000000E+00 0. -1.
         -1   -1    0    0    0  501 -0.00000000000E+00 -0.00000000000E+00 -0.62352975433E+03  0.62352975433E+03  0.00000000000E+00 0.  1.
         23    2    1    2    0    0 -0.10978581444E+03  0.62257781720E+03  0.64087783241E+03  0.90466369194E+03  0.89643381836E+02 0.  0.
         13    1    3    3    0    0 -0.12149686661E+03  0.46897956012E+03  0.48715075168E+03  0.68703651378E+03  0.00000000000E+00 0.  1.
        -13    1    3    3    0    0  0.11711052169E+02  0.15359825709E+03  0.15372708073E+03  0.21762717816E+03  0.00000000000E+00 0. -1.
         22    1    1    2    0    0  0.10978581444E+03 -0.62257781720E+03 -0.28840954196E+03  0.69486410716E+03  0.00000000000E+00 0.  1.
<mgrwt>
<rscale>  0 0.15602100E+04</rscale>
<asrwt>0</asrwt>
<pdfrwt beam="1">  1        1 0.15015355E+00 0.15602100E+04</pdfrwt>
<pdfrwt beam="2">  1       -1 0.95927655E-01 0.15602100E+04</pdfrwt>
<totfact> 0.15941194E+01</totfact>
</mgrwt>
</event>
<event>
 6    1  0.8968082E-007  0.3644301E+04  0.7818608E-02  0.8080419E-01
          1   -1    0    0  501    0  0.00000000000E+00  0.00000000000E+00  0.18453973962E+04  0.18453973962E+04  0.00000000000E+00 0. -1.
         -1   -1    0    0    0  501 -0.00000000000E+00 -0.00000000000E+00 -0.17991965038E+04  0.17991965038E+04  0.00000000000E+00 0.  1.
         23    2    1    2    0    0 -0.11527047634E+04  0.52934972218E+03 -0.12835986853E+04  0.18068490002E+04  0.90212662995E+02 0.  0.
         11    1    3    3    0    0 -0.78443829978E+03  0.40312328938E+03 -0.91089358034E+03  0.12679033667E+04  0.00000000000E+00 0. -1.
        -11    1    3    3    0    0 -0.36826646361E+03  0.12622643280E+03 -0.37270510501E+03  0.53894563349E+03  0.00000000000E+00 0.  1.
         22    1    1    2    0    0  0.11527047634E+04 -0.52934972218E+03  0.13297995778E+04  0.18377448998E+04  0.00000000000E+00 0. -1.
<mgrwt>
<rscale>  0 0.36443011E+04</rscale>
<asrwt>0</asrwt>
<pdfrwt beam="1">  1        1 0.28390729E+00 0.36443011E+04</pdfrwt>
<pdfrwt beam="2">  1       -1 0.27679946E+00 0.36443011E+04</pdfrwt>
<totfact> 0.14278910E-01</totfact>
</mgrwt>
</event>
<event>
 6    1  0.8968082E-007  0.1134119E+04  0.7818608E-02  0.9172561E-01
          2   -1    0    0  501    0  0.00000000000E+00  0.00000000000E+00  0.37599219816E+03  0.37599219816E+03  0.00000000000E+00 0. -1.
         -2   -1    0    0    0  501 -0.00000000000E+00 -0.00000000000E+00 -0.85522067979E+03  0.85522067979E+03  0.00000000000E+00 0.  1.
         23    2    1    2    0    0  0.42156967627E+03 -0.21247456220E+02 -0.64626150127E+03  0.77726081440E+03  0.91148226755E+02 0.  0.
         13    1    3    3    0    0  0.99429710499E+02 -0.42402463684E+02 -0.14094960826E+03  0.17762609134E+03  0.00000000000E+00 0. -1.
        -13    1    3    3    0    0  0.32213996577E+03  0.21155007464E+02 -0.50531189301E+03  0.59963472306E+03  0.00000000000E+00 0.  1.
         22    1    1    2    0    0 -0.42156967627E+03  0.21247456220E+02  0.16703301964E+03  0.45395206354E+03  0.00000000000E+00 0. -1.
<mgrwt>
<rscale>  0 0.11341187E+04</rscale>
<asrwt>0</asrwt>
<pdfrwt beam="1">  1        2 0.57844954E-01 0.11341187E+04</pdfrwt>
<pdfrwt beam="2">  1       -2 0.13157241E+00 0.11341187E+04</pdfrwt>
<totfact> 0.35563347E+01</totfact>
</mgrwt>
</event>
<event>
 6    1  0.8968082E-007  0.4344522E+04  0.7818608E-02  0.7938436E-01
          2   -1    0    0  501    0  0.00000000000E+00  0.00000000000E+00  0.15004505024E+04  0.15004505024E+04  0.00000000000E+00 0. -1.
         -2   -1    0    0    0  501 -0.00000000000E+00 -0.00000000000E+00 -0.31448673509E+04  0.31448673509E+04  0.00000000000E+00 0.  1.
         23    2    1    2    0    0  0.20473215832E+04 -0.61997024928E+03 -0.42473671917E+03  0.21828986378E+04  0.93575676582E+02 0.  0.
         11    1    3    3    0    0  0.14942190074E+04 -0.47790854489E+03 -0.27712827022E+03  0.15930747306E+04  0.00000000000E+00 0. -1.
        -11    1    3    3    0    0  0.55310257581E+03 -0.14206170439E+03 -0.14760844895E+03  0.58982390713E+03  0.00000000000E+00 0.  1.
         22    1    1    2    0    0 -0.20473215832E+04  0.61997024928E+03 -0.12196801293E+04  0.24624192155E+04  0.00000000000E+00 0.  1.
<mgrwt>
<rscale>  0 0.43445220E+04</rscale>
<asrwt>0</asrwt>
<pdfrwt beam="1">  1        2 0.23083854E+00 0.43445220E+04</pdfrwt>
<pdfrwt beam="2">  1       -2 0.48382574E+00 0.43445220E+04</pdfrwt>
<totfact> 0.20359061E-02</totfact>
</mgrwt>
</event>
<event>
 6    1  0.8968082E-007  0.1815083E+04  0.7818608E-02  0.8698319E-01
          1   -1    0    0  501    0  0.00000000000E+00  0.00000000000E+00  0.18588395350E+04  0.18588395350E+04  0.00000000000E+00 0. -1.
         -1   -1    0    0    0  501 -0.00000000000E+00 -0.00000000000E+00 -0.44308922226E+03  0.44308922226E+03  0.00000000000E+00 0.  1.
         23    2    1    2    0    0  0.41573728002E+03  0.45998861028E+03  0.15462256960E+04  0.16683272791E+04  0.89861001998E+02 0.  0.
         11    1    3    3    0    0  0.35755126115E+03  0.40536734268E+03  0.12569112433E+04  0.13682073894E+04  0.00000000000E+00 0. -1.
        -11    1    3    3    0    0  0.58186018871E+02  0.54621267606E+02  0.28931445262E+03  0.30011988965E+03  0.00000000000E+00 0.  1.
         22    1    1    2    0    0 -0.41573728002E+03 -0.45998861028E+03 -0.13047538319E+03  0.63360147822E+03  0.00000000000E+00 0.  1.
<mgrwt>
<rscale>  0 0.18150832E+04</rscale>
<asrwt>0</asrwt>
<pdfrwt beam="1">  1        1 0.28597531E+00 0.18150832E+04</pdfrwt>
<pdfrwt beam="2">  1       -1 0.68167574E-01 0.18150832E+04</pdfrwt>
<totfact> 0.76283884E+00</totfact>
</mgrwt>
</event>
<event>
 6    1  0.8968082E-007  0.4788247E+04  0.7818608E-02  0.7862029E-01
         -1   -1    0    0    0  501 -0.00000000000E+00  0.00000000000E+00  0.23489317132E+04  0.23489317132E+04  0.00000000000E+00 0.  1.
          1   -1    0    0  501    0  0.00000000000E+00 -0.00000000000E+00 -0.24401842973E+04  0.24401842973E+04  0.00000000000E+00 0. -1.
         23    2    1    2    0    0  0.10324195570E+03  0.16518492322E+04 -0.17746511920E+04  0.24283755207E+04  0.91411318749E+02 0.  0.
         13    1    3    3    0    0  0.63492711956E+02  0.68121476135E+03 -0.79214977207E+03  0.10467025064E+04  0.00000000000E+00 0.  1.
        -13    1    3    3    0    0  0.39749243746E+02  0.97063447083E+03 -0.98250141993E+03  0.13816730143E+04  0.00000000000E+00 0. -1.
         22    1    1    2    0    0 -0.10324195570E+03 -0.16518492322E+04  0.16833986079E+04  0.23607404898E+04  0.00000000000E+00 0.  1.
<mgrwt>
<rscale>  0 0.47882466E+04</rscale>
<asrwt>0</asrwt>
<pdfrwt beam="1">  1        1 0.37541297E+00 0.47882466E+04</pdfrwt>
<pdfrwt beam="2">  1       -1 0.36137411E+00 0.47882466E+04</pdfrwt>
<totfact> 0.14282545E-02</totfact>
</mgrwt>
</event>
<event>
 6    1  0.8968082E-007  0.2295727E+04  0.7818608E-02  0.8479608E-01
          2   -1    0    0  501    0  0.00000000000E+00  0.00000000000E+00  0.15589555508E+04  0.15589555508E+04  0.00000000000E+00 0. -1.
         -2   -1    0    0    0  501 -0.00000000000E+00 -0.00000000000E+00 -0.84517559576E+03  0.84517559576E+03  0.00000000000E+00 0.  1.
         23    2    1    2    0    0  0.52275625030E+03  0.91850264426E+03  0.82168245366E+03  0.13417921451E+04  0.91229936166E+02 0.  0.
         11    1    3    3    0    0  0.19849111383E+03  0.33631375024E+03  0.24921265877E+03  0.46326300323E+03  0.00000000000E+00 0.  1.
        -11    1    3    3    0    0  0.32426513647E+03  0.58218889403E+03  0.57246979489E+03  0.87852914187E+03  0.00000000000E+00 0. -1.
         22    1    1    2    0    0 -0.52275625030E+03 -0.91850264426E+03 -0.10790249864E+03  0.10623390014E+04  0.00000000000E+00 0.  1.
<mgrwt>
<rscale>  0 0.22957275E+04</rscale>
<asrwt>0</asrwt>
<pdfrwt beam="1">  1        2 0.23983931E+00 0.22957275E+04</pdfrwt>
<pdfrwt beam="2">  1       -2 0.13002702E+00 0.22957275E+04</pdfrwt>
<totfact> 0.46299852E+00</totfact>
</mgrwt>
</event>
<event>
 6    1  0.8968082E-007  0.1315354E+04  0.7818608E-02  0.9017477E-01
         -2   -1    0    0    0  501 -0.00000000000E+00  0.00000000000E+00  0.96240559892E+03  0.96240559892E+03  0.00000000000E+00 0.  1.
          2   -1    0    0  501    0  0.00000000000E+00 -0.00000000000E+00 -0.44943553524E+03  0.44943553524E+03  0.00000000000E+00 0. -1.
         23    2    1    2    0    0  0.27493121136E+03  0.34337469215E+03  0.77813285759E+03  0.89822195864E+03  0.88422806678E+02 0.  0.
         13    1    3    3    0    0  0.16943635098E+03  0.26942669360E+03  0.58680592225E+03  0.66756318850E+03  0.00000000000E+00 0. -1.
        -13    1    3    3    0    0  0.10549486038E+03  0.73947998553E+02  0.19132693534E+03  0.23065877014E+03  0.00000000000E+00 0.  1.
         22    1    1    2    0    0 -0.27493121136E+03 -0.34337469215E+03 -0.26516279391E+03  0.51361917552E+03  0.00000000000E+00 0. -1.
<mgrwt>
<rscale>  0 0.13153544E+04</rscale>
<asrwt>0</asrwt>
<pdfrwt beam="1">  1        2 0.69143929E-01 0.13153544E+04</pdfrwt>
<pdfrwt beam="2">  1       -2 0.14806240E+00 0.13153544E+04</pdfrwt>
<totfact> 0.21128532E+01</totfact>
</mgrwt>
</event>
<event>
 6    1  0.8968082E-007  0.4117142E+04  0.7818608E-02  0.7981323E-01
          2   -1    0    0  501    0  0.00000000000E+00  0.00000000000E+00  0.44582887028E+04  0.44582887028E+04  0.00000000000E+00 0. -1.
         -2   -1    0    0    0  501 -0.00000000000E+00 -0.00000000000E+00 -0.95052473872E+03  0.95052473872E+03  0.00000000000E+00 0.  1.
         23    2    1    2    0    0 -0.69910895059E+03  0.12132160330E+04  0.37353462428E+04  0.39902084362E+04  0.91133658816E+02 0.  0.
         13    1    3    3    0    0 -0.31087743861E+03  0.62305305046E+03  0.18021397337E+04  0.19319802032E+04  0.00000000000E+00 0.  1.
        -13    1    3    3    0    0 -0.38823151197E+03  0.59016298251E+03  0.19332065090E+04  0.20582282331E+04  0.00000000000E+00 0. -1.
         22    1    1    2    0    0  0.69910895059E+03 -0.12132160330E+04 -0.22758227868E+03  0.14186050053E+04  0.00000000000E+00 0.  1.
<mgrwt>
<rscale>  0 0.41171416E+04</rscale>
<asrwt>0</asrwt>
<pdfrwt beam="1">  1        2 0.68589056E+00 0.41171416E+04</pdfrwt>
<pdfrwt beam="2">  1       -2 0.14623458E+00 0.41171416E+04</pdfrwt>
<totfact> 0.33591245E-02</totfact>
</mgrwt>
</event>
<event>
 6    1  0.8968082E-007  0.3174456E+04  0.7818608E-02  0.8195596E-01
          1   -1    0    0  501    0  0.00000000000E+00  0.00000000000E+00  0.20100135466E+04  0.20100135466E+04  0.00000000000E+00 0. -1.
         -1   -1    0    0    0  501 -0.00000000000E+00 -0.00000000000E+00 -0.12533711128E+04  0.12533711128E+04  0.00000000000E+00 0.  1.
         23    2    1    2    0    0 -0.58690318666E+03  0.20469224813E+03 -0.11212620948E+04  0.12852846404E+04  0.91507674798E+02 0.  0.
         13    1    3    3    0    0 -0.74298905464E+02  0.59744541251E+02 -0.15801172018E+03  0.18454658295E+03  0.00000000000E+00 0.  1.
        -13    1    3    3    0    0 -0.51260428119E+03  0.14494770688E+03 -0.96325037465E+03  0.11007380574E+04  0.00000000000E+00 0. -1.
         22    1    1    2    0    0  0.58690318666E+03 -0.20469224813E+03  0.18779045286E+04  0.19781000191E+04  0.00000000000E+00 0. -1.
<mgrwt>
<rscale>  0 0.31744561E+04</rscale>
<asrwt>0</asrwt>
<pdfrwt beam="1">  1        1 0.30923285E+00 0.31744561E+04</pdfrwt>
<pdfrwt beam="2">  1       -1 0.19282633E+00 0.31744561E+04</pdfrwt>
<totfact> 0.41528009E-01</totfact>
</mgrwt>
</event>
<event>
 6    1  0.8968082E-007  0.3774351E+04  0.7818608E-02  0.8051682E-01
         -2   -1    0    0    0  501 -0.00000000000E+00  0.00000000000E+00  0.14520864889E+04  0.14520864889E+04  0.00000000000E+00 0.  1.
          2   -1    0    0  501    0  0.00000000000E+00 -0.00000000000E+00 -0.24526306391E+04  0.24526306391E+04  0.00000000000E+00 0. -1.
         23    2    1    2    0    0 -0.79012171739E+03 -0.14908576768E+04  0.37124982548E+03  0.17301441463E+04  0.92862226601E+02 0.  0.
         11    1    3    3    0    0 -0.54099127759E+03 -0.10516391533E+04  0.21900992971E+03  0.12027392987E+04  0.00000000000E+00 0.  1.
        -11    1    3    3    0    0 -0.24913043980E+03 -0.43921852349E+03  0.15223989577E+03  0.52740484760E+03  0.00000000000E+00 0. -1.
         22    1    1    2    0    0  0.79012171739E+03  0.14908576768E+04 -0.13717939757E+04  0.21745729816E+04  0.00000000000E+00 0. -1.
<mgrwt>
<rscale>  0 0.37743512E+04</rscale>
<asrwt>0</asrwt>
<pdfrwt beam="1">  1        2 0.37732779E+00 0.37743512E+04</pdfrwt>
<pdfrwt beam="2">  1       -2 0.22339792E+00 0.37743512E+04</pdfrwt>
<totfact> 0.28023707E-01</totfact>
</mgrwt>
</event>
<event>
 6    1  0.8968082E-007  0.1065795E+04  0.7818608E-02  0.9239187E-01
         -3   -1    0    0    0  501 -0.00000000000E+00  0.00000000000E+00  0.72137126903E+03  0.72137126903E+03  0.00000000000E+00 0.  1.
          3   -1    0    0  501    0  0.00000000000E+00 -0.00000000000E+00 -0.39366647747E+03  0.39366647747E+03  0.00000000000E+00 0. -1.
         23    2    1    2    0    0 -0.20332446803E+03 -0.48830968276E+03  0.17600819089E+03  0.56476595525E+03  0.90523562497E+02 0.  0.
         11    1    3    3    0    0 -0.12177658469E+03 -0.19677068080E+03  0.49351172376E+02  0.23660890857E+03  0.00000000000E+00 0. -1.
        -11    1    3    3    0    0 -0.81547883339E+02 -0.29153900197E+03  0.12665701852E+03  0.32815704668E+03  0.00000000000E+00 0.  1.
         22    1    1    2    0    0  0.20332446803E+03  0.48830968276E+03  0.15169660067E+03  0.55027179124E+03  0.00000000000E+00 0.  1.
<mgrwt>
<rscale>  0 0.10657949E+04</rscale>
<asrwt>0</asrwt>
<pdfrwt beam="1">  1        3 0.60564074E-01 0.10657949E+04</pdfrwt>
<pdfrwt beam="2">  1       -3 0.11098019E+00 0.10657949E+04</pdfrwt>
<totfact> 0.47386921E+00</totfact>
</mgrwt>
</event>
<event>
 6    1  0.8968082E-007  0.2956399E+04  0.7818608E-02  0.8256292E-01
         -2   -1    0    0    0  501 -0.00000000000E+00  0.00000000000E+00  0.57610648132E+03  0.57610648132E+03  0.00000000000E+00 0.  1.
          2   -1    0    0  501    0  0.00000000000E+00 -0.00000000000E+00 -0.37928297153E+04  0.37928297153E+04  0.00000000000E+00 0. -1.
         23    2    1    2    0    0  0.76058445185E+03 -0.64598371011E+00 -0.34805709174E+04  0.35638866790E+04  0.91789017858E+02 0.  0.
         11    1    3    3    0    0  0.20478004016E+03  0.40570317863E+02 -0.95759564376E+03  0.98008684946E+03  0.00000000000E+00 0.  1.
        -11    1    3    3    0    0  0.55580441170E+03 -0.41216301573E+02 -0.25229752737E+04  0.25837998295E+04  0.00000000000E+00 0. -1.
         22    1    1    2    0    0 -0.76058445185E+03  0.64598371011E+00  0.26384768348E+03  0.80504951759E+03  0.00000000000E+00 0.  1.
<mgrwt>
<rscale>  0 0.29563990E+04</rscale>
<asrwt>0</asrwt>
<pdfrwt beam="1">  1        2 0.58351225E+00 0.29563990E+04</pdfrwt>
<pdfrwt beam="2">  1       -2 0.88631768E-01 0.29563990E+04</pdfrwt>
<totfact> 0.46750325E-01</totfact>
</mgrwt>
</event>
<event>
 6    1  0.8968082E-007  0.3675575E+04  0.7818608E-02  0.8073396E-01
          2   -1    0    0  501    0  0.00000000000E+00  0.00000000000E+00  0.13220190431E+04  0.13220190431E+04  0.00000000000E+00 0. -1.
         -2   -1    0    0    0  501 -0.00000000000E+00 -0.00000000000E+00 -0.25547769461E+04  0.25547769461E+04  0.00000000000E+00 0.  1.
         23    2    1    2    0    0  0.96474367908E+03  0.43790704479E+03 -0.21991626333E+04  0.24427698218E+04  0.91187544966E+02 0.  0.
         13    1    3    3    0    0  0.87567983283E+03  0.42020471642E+03 -0.20428501885E+04  0.22619955937E+04  0.00000000000E+00 0.  1.
        -13    1    3    3    0    0  0.89063846251E+02  0.17702328368E+02 -0.15631244484E+03  0.18077422811E+03  0.00000000000E+00 0. -1.
         22    1    1    2    0    0 -0.96474367908E+03 -0.43790704479E+03  0.96640473031E+03  0.14340261675E+04  0.00000000000E+00 0. -1.
<mgrwt>
<rscale>  0 0.36755755E+04</rscale>
<asrwt>0</asrwt>
<pdfrwt beam="1">  1        2 0.20338754E+00 0.36755755E+04</pdfrwt>
<pdfrwt beam="2">  1       -2 0.39304261E+00 0.36755755E+04</pdfrwt>
<totfact> 0.10705982E-01</totfact>
</mgrwt>
</event>
<event>
 6    1  0.8968082E-007  0.5146536E+04  0.7818608E-02  0.7806292E-01
          1   -1    0    0  501    0  0.00000000000E+00  0.00000000000E+00  0.38956723619E+04  0.38956723619E+04  0.00000000000E+00 0. -1.
         -1   -1    0    0    0  501 -0.00000000000E+00 -0.00000000000E+00 -0.16997601332E+04  0.16997601332E+04  0.00000000000E+00 0.  1.
         23    2    1    2    0    0 -0.13131689927E+04 -0.22007167953E+04  0.13415376549E+04  0.28940396823E+04  0.90416739909E+02 0.  0.
         11    1    3    3    0    0 -0.10439001176E+03 -0.14717527040E+03  0.11547083820E+03  0.21422266278E+03  0.00000000000E+00 0.  1.
        -11    1    3    3    0    0 -0.12087789810E+04 -0.20535415249E+04  0.12260668167E+04  0.26798170196E+04  0.00000000000E+00 0. -1.
         22    1    1    2    0    0  0.13131689927E+04  0.22007167953E+04  0.85437457370E+03  0.27013928127E+04  0.00000000000E+00 0. -1.
<mgrwt>
<rscale>  0 0.51465361E+04</rscale>
<asrwt>0</asrwt>
<pdfrwt beam="1">  1        1 0.59933420E+00 0.51465361E+04</pdfrwt>
<pdfrwt beam="2">  1       -1 0.26150156E+00 0.51465361E+04</pdfrwt>
<totfact> 0.49361356E-03</totfact>
</mgrwt>
</event>
<event>
 6    1  0.8968082E-007  0.2194110E+04  0.7818608E-02  0.8520884E-01
          1   -1    0    0  501    0  0.00000000000E+00  0.00000000000E+00  0.30416031753E+04  0.30416031753E+04  0.00000000000E+00 0. -1.
         -1   -1    0    0    0  501 -0.00000000000E+00 -0.00000000000E+00 -0.39568929047E+03  0.39568929047E+03  0.00000000000E+00 0.  1.
         23    2    1    2    0    0 -0.45518155004E+03  0.32310952064E+03 -0.15122295002E+03  0.58500137287E+03  0.88137505180E+02 0.  0.
         13    1    3    3    0    0 -0.96991990905E+02  0.11324990163E+03 -0.54394699950E+02  0.15871915417E+03  0.00000000000E+00 0.  1.
        -13    1    3    3    0    0 -0.35818955913E+03  0.20985961902E+03 -0.96828250072E+02  0.42628221870E+03  0.00000000000E+00 0. -1.
         22    1    1    2    0    0  0.45518155004E+03 -0.32310952064E+03  0.27971368349E+04  0.28522910929E+04  0.00000000000E+00 0. -1.
<mgrwt>
<rscale>  0 0.21941101E+04</rscale>
<asrwt>0</asrwt>
<pdfrwt beam="1">  1        1 0.46793893E+00 0.21941101E+04</pdfrwt>
<pdfrwt beam="2">  1       -1 0.60875277E-01 0.21941101E+04</pdfrwt>
<totfact> 0.13925671E+00</totfact>
</mgrwt>
</event>
<event>
 6    1  0.8968082E-007  0.3819723E+04  0.7818608E-02  0.8041936E-01
          1   -1    0    0  501    0  0.00000000000E+00  0.00000000000E+00  0.13633826849E+04  0.13633826849E+04  0.00000000000E+00 0. -1.
         -1   -1    0    0    0  501 -0.00000000000E+00 -0.00000000000E+00 -0.26753831855E+04  0.26753831855E+04  0.00000000000E+00 0.  1.
         23    2    1    2    0    0 -0.15861325678E+04 -0.10071838323E+04 -0.30072770707E+03  0.19050113256E+04  0.91625334501E+02 0.  0.
         13    1    3    3    0    0 -0.70089522501E+03 -0.39654745598E+03 -0.14846560106E+03  0.81886875382E+03  0.00000000000E+00 0.  1.
        -13    1    3    3    0    0 -0.88523734281E+03 -0.61063637635E+03 -0.15226210601E+03  0.10861425717E+04  0.00000000000E+00 0. -1.
         22    1    1    2    0    0  0.15861325678E+04  0.10071838323E+04 -0.10112727936E+04  0.21337545449E+04  0.00000000000E+00 0.  1.
<mgrwt>
<rscale>  0 0.38197231E+04</rscale>
<asrwt>0</asrwt>
<pdfrwt beam="1">  1        1 0.20975118E+00 0.38197231E+04</pdfrwt>
<pdfrwt beam="2">  1       -1 0.41159741E+00 0.38197231E+04</pdfrwt>
<totfact> 0.38551992E-02</totfact>
</mgrwt>
</event>
<event>
 6    1  0.8968082E-007  0.4890870E+03  0.7818608E-02  0.1016667E+00
          2   -1    0    0  501    0  0.00000000000E+00  0.00000000000E+00  0.73640476266E+03  0.73640476266E+03  0.00000000000E+00 0. -1.
         -2   -1    0    0    0  501 -0.00000000000E+00 -0.00000000000E+00 -0.81207422726E+02  0.81207422726E+02  0.00000000000E+00 0.  1.
         23    2    1    2    0    0 -0.70811568598E+02  0.22429673752E+03  0.36771005716E+03  0.44616603523E+03  0.92358757793E+02 0.  0.
         11    1    3    3    0    0 -0.19191760748E+02  0.33586506617E+02  0.14229322650E+02  0.41217116959E+02  0.00000000000E+00 0. -1.
        -11    1    3    3    0    0 -0.51619807851E+02  0.19071023091E+03  0.35348073451E+03  0.40494891827E+03  0.00000000000E+00 0.  1.
         22    1    1    2    0    0  0.70811568598E+02 -0.22429673752E+03  0.28748728277E+03  0.37144615015E+03  0.00000000000E+00 0. -1.
<mgrwt>
<rscale>  0 0.48908704E+03</rscale>
<asrwt>0</asrwt>
<pdfrwt beam="1">  1        2 0.11329304E+00 0.48908704E+03</pdfrwt>
<pdfrwt beam="2">  1       -2 0.12493450E-01 0.48908704E+03</pdfrwt>
<totfact> 0.18294332E+03</totfact>
</mgrwt>
</event>
<event>
 6    1  0.8968082E-007  0.1423524E+04  0.7818608E-02  0.8936965E-01
          2   -1    0    0  501    0  0.00000000000E+00  0.00000000000E+00  0.94005175005E+03  0.94005175005E+03  0.00000000000E+00 0. -1.
         -2   -1    0    0    0  501 -0.00000000000E+00 -0.00000000000E+00 -0.53891161697E+03  0.53891161697E+03  0.00000000000E+00 0.  1.
         23    2    1    2    0    0 -0.63639589842E+03  0.85344879248E+02 -0.10943908693E+03  0.65861305902E+03  0.97523124516E+02 0.  0.
         11    1    3    3    0    0 -0.56875499618E+02  0.43424979723E+00  0.17099857475E+02  0.59392054648E+02  0.00000000000E+00 0.  1.
        -11    1    3    3    0    0 -0.57952039881E+03  0.84910629450E+02 -0.12653894441E+03  0.59922100437E+03  0.00000000000E+00 0. -1.
         22    1    1    2    0    0  0.63639589842E+03 -0.85344879248E+02  0.51057922001E+03  0.82035030801E+03  0.00000000000E+00 0.  1.
<mgrwt>
<rscale>  0 0.14235235E+04</rscale>
<asrwt>0</asrwt>
<pdfrwt beam="1">  1        2 0.14462335E+00 0.14235235E+04</pdfrwt>
<pdfrwt beam="2">  1       -2 0.82909480E-01 0.14235235E+04</pdfrwt>
<totfact> 0.34160438E+01</totfact>
</mgrwt>
</event>
<event>
 6    1  0.8968082E-007  0.2642901E+04  0.7818608E-02  0.8353773E-01
          1   -1    0    0  501    0  0.00000000000E+00  0.00000000000E+00  0.11411038175E+04  0.11411038175E+04  0.00000000000E+00 0. -1.
         -1   -1    0    0    0  501 -0.00000000000E+00 -0.00000000000E+00 -0.15302999596E+04  0.15302999596E+04  0.00000000000E+00 0.  1.
         23    2    1    2    0    0 -0.97044516620E+03 -0.20111252522E+03 -0.10759016582E+04  0.14656780478E+04  0.91856917007E+02 0.  0.
         13    1    3    3    0    0 -0.15271820791E+03 -0.25934713300E+02 -0.21980699926E+03  0.26890626119E+03  0.00000000000E+00 0. -1.
        -13    1    3    3    0    0 -0.81772695829E+03 -0.17517781192E+03 -0.85609465893E+03  0.11967717866E+04  0.00000000000E+00 0.  1.
         22    1    1    2    0    0  0.97044516620E+03  0.20111252522E+03  0.68670551613E+03  0.12057257293E+04  0.00000000000E+00 0. -1.
<mgrwt>
<rscale>  0 0.26429008E+04</rscale>
<asrwt>0</asrwt>
<pdfrwt beam="1">  1        1 0.17555443E+00 0.26429008E+04</pdfrwt>
<pdfrwt beam="2">  1       -1 0.23543076E+00 0.26429008E+04</pdfrwt>
<totfact> 0.90050913E-01</totfact>
</mgrwt>
</event>
<event>
 6    1  0.8968082E-007  0.2889179E+04  0.7818608E-02  0.8276104E-01
         -1   -1    0    0    0  501 -0.00000000000E+00  0.00000000000E+00  0.20018098369E+04  0.20018098369E+04  0.00000000000E+00 0.  1.
          1   -1    0    0  501    0  0.00000000000E+00 -0.00000000000E+00 -0.10424761319E+04  0.10424761319E+04  0.00000000000E+00 0. -1.
         23    2    1    2    0    0  0.97840732792E+03 -0.38222313778E+03  0.15228179167E+04  0.18522751117E+04  0.92591876648E+02 0.  0.
         13    1    3    3    0    0  0.32721606284E+03 -0.17160416098E+03  0.50431459697E+03  0.62518121578E+03  0.00000000000E+00 0. -1.
        -13    1    3    3    0    0  0.65119126508E+03 -0.21061897679E+03  0.10185033198E+04  0.12270938959E+04  0.00000000000E+00 0.  1.
         22    1    1    2    0    0 -0.97840732792E+03  0.38222313778E+03 -0.56348421176E+03  0.11920108570E+04  0.00000000000E+00 0. -1.
<mgrwt>
<rscale>  0 0.28891791E+04</rscale>
<asrwt>0</asrwt>
<pdfrwt beam="1">  1        1 0.16038094E+00 0.28891791E+04</pdfrwt>
<pdfrwt beam="2">  1       -1 0.30797074E+00 0.28891791E+04</pdfrwt>
<totfact> 0.35318078E-01</totfact>
</mgrwt>
</event>
<event>
 6    1  0.8968082E-007  0.6252234E+03  0.7818608E-02  0.9854415E-01
          1   -1    0    0  501    0  0.00000000000E+00  0.00000000000E+00  0.17746988395E+04  0.17746988395E+04  0.00000000000E+00 0. -1.
         -1   -1    0    0    0  501 -0.00000000000E+00 -0.00000000000E+00 -0.55066281639E+02  0.55066281639E+02  0.00000000000E+00 0.  1.
         23    2    1    2    0    0  0.13270054706E+02  0.21909013823E+03  0.15015439894E+04  0.15203475930E+04  0.92983162346E+02 0.  0.
         11    1    3    3    0    0 -0.30433117957E+02  0.46050617062E+02  0.49878143879E+03  0.50182642187E+03  0.00000000000E+00 0. -1.
        -11    1    3    3    0    0  0.43703172663E+02  0.17303952117E+03  0.10027625506E+04  0.10185211711E+04  0.00000000000E+00 0.  1.
         22    1    1    2    0    0 -0.13270054706E+02 -0.21909013823E+03  0.21808856851E+03  0.30941752816E+03  0.00000000000E+00 0.  1.
<mgrwt>
<rscale>  0 0.62522337E+03</rscale>
<asrwt>0</asrwt>
<pdfrwt beam="1">  1        1 0.27303055E+00 0.62522337E+03</pdfrwt>
<pdfrwt beam="2">  1       -1 0.84717370E-02 0.62522337E+03</pdfrwt>
<totfact> 0.35887833E+02</totfact>
</mgrwt>
</event>
<event>
 6    1  0.8968082E-007  0.1364941E+04  0.7818608E-02  0.8979594E-01
         -1   -1    0    0    0  501 -0.00000000000E+00  0.00000000000E+00  0.49723115102E+03  0.49723115102E+03  0.00000000000E+00 0.  1.
          1   -1    0    0  501    0  0.00000000000E+00 -0.00000000000E+00 -0.93671975687E+03  0.93671975687E+03  0.00000000000E+00 0. -1.
         23    2    1    2    0    0 -0.18472940098E+02  0.67501783911E+03 -0.14178581866E+03  0.69596900965E+03  0.90990721440E+02 0.  0.
         13    1    3    3    0    0 -0.15294473527E+02  0.59825263854E+03 -0.15455623799E+03  0.61808395153E+03  0.00000000000E+00 0. -1.
        -13    1    3    3    0    0 -0.31784665706E+01  0.76765200570E+02  0.12770419328E+02  0.77885058119E+02  0.00000000000E+00 0.  1.
         22    1    1    2    0    0  0.18472940098E+02 -0.67501783911E+03 -0.29770278720E+03  0.73798189824E+03  0.00000000000E+00 0. -1.
<mgrwt>
<rscale>  0 0.13649414E+04</rscale>
<asrwt>0</asrwt>
<pdfrwt beam="1">  1        1 0.14411073E+00 0.13649414E+04</pdfrwt>
<pdfrwt beam="2">  1       -1 0.76497101E-01 0.13649414E+04</pdfrwt>
<totfact> 0.28494075E+01</totfact>
</mgrwt>
</event>
<event>
 6    1  0.8968082E-007  0.5308616E+03  0.7818608E-02  0.1006023E+00
         -2   -1    0    0    0  501 -0.00000000000E+00  0.00000000000E+00  0.49545591845E+03  0.49545591845E+03  0.00000000000E+00 0.  1.
          2   -1    0    0  501    0  0.00000000000E+00 -0.00000000000E+00 -0.14219935373E+03  0.14219935373E+03  0.00000000000E+00 0. -1.
         23    2    1    2    0    0  0.19907476689E+02 -0.23173531251E+02  0.48895786692E+03  0.49855759571E+03  0.92447609159E+02 0.  0.
         11    1    3    3    0    0  0.17988106137E+02  0.26172933530E+02  0.34309491019E+03  0.34456162266E+03  0.00000000000E+00 0.  1.
        -11    1    3    3    0    0  0.19193705520E+01 -0.49346464782E+02  0.14586295673E+03  0.15399597305E+03  0.00000000000E+00 0. -1.
         22    1    1    2    0    0 -0.19907476689E+02  0.23173531251E+02 -0.13570130220E+03  0.13909767646E+03  0.00000000000E+00 0. -1.
<mgrwt>
<rscale>  0 0.53086161E+03</rscale>
<asrwt>0</asrwt>
<pdfrwt beam="1">  1        2 0.21876824E-01 0.53086161E+03</pdfrwt>
<pdfrwt beam="2">  1       -2 0.76223986E-01 0.53086161E+03</pdfrwt>
<totfact> 0.39797274E+02</totfact>
</mgrwt>
</event>
<event>
 6    1  0.1334605E-006  0.3220034E+04  0.7818608E-02  0.8183546E-01
         -1   -1    0    0    0  501 -0.00000000000E+00  0.00000000000E+00  0.10582559273E+04  0.10582559273E+04  0.00000000000E+00 0.  1.
          1   -1    0    0  501    0  0.00000000000E+00 -0.00000000000E+00 -0.24494588476E+04  0.24494588476E+04  0.00000000000E+00 0. -1.
         23    2    1    2    0    0 -0.36538292925E+03  0.15174890809E+03  0.10021442080E+04  0.10818864848E+04  0.98249356997E+02 0.  0.
         11    1    3    3    0    0 -0.57875410865E+02 -0.62550087931E-01  0.22712500861E+03  0.23438288468E+03  0.00000000000E+00 0.  1.
        -11    1    3    3    0    0 -0.30750751839E+03  0.15181145818E+03  0.77501919942E+03  0.84750360009E+03  0.00000000000E+00 0. -1.
         22    1    1    2    0    0  0.36538292925E+03 -0.15174890809E+03 -0.23933471284E+04  0.24258282901E+04  0.00000000000E+00 0. -1.
<mgrwt>
<rscale>  0 0.32200338E+04</rscale>
<asrwt>0</asrwt>
<pdfrwt beam="1">  1        1 0.37683982E+00 0.32200338E+04</pdfrwt>
<pdfrwt beam="2">  1       -1 0.16280861E+00 0.32200338E+04</pdfrwt>
<totfact> 0.34127310E-01</totfact>
</mgrwt>
</event>
<event>
 6    1  0.8968082E-007  0.4928698E+04  0.7818608E-02  0.7839601E-01
          1   -1    0    0  501    0  0.00000000000E+00  0.00000000000E+00  0.37289465274E+04  0.37289465274E+04  0.00000000000E+00 0. -1.
         -1   -1    0    0    0  501 -0.00000000000E+00 -0.00000000000E+00 -0.16286145202E+04  0.16286145202E+04  0.00000000000E+00 0.  1.
         23    2    1    2    0    0 -0.95092762142E+03  0.22613818718E+04  0.80574172352E+03  0.25837414223E+04  0.91589852358E+02 0.  0.
         11    1    3    3    0    0 -0.71219299301E+03  0.16634819847E+04  0.55346385277E+03  0.18922773077E+04  0.00000000000E+00 0. -1.
        -11    1    3    3    0    0 -0.23873462840E+03  0.59789988710E+03  0.25227787075E+03  0.69146411466E+03  0.00000000000E+00 0.  1.
         22    1    1    2    0    0  0.95092762142E+03 -0.22613818718E+04  0.12945902836E+04  0.27738196253E+04  0.00000000000E+00 0. -1.
<mgrwt>
<rscale>  0 0.49286982E+04</rscale>
<asrwt>0</asrwt>
<pdfrwt beam="1">  1        1 0.57368408E+00 0.49286982E+04</pdfrwt>
<pdfrwt beam="2">  1       -1 0.25055608E+00 0.49286982E+04</pdfrwt>
<totfact> 0.81813121E-03</totfact>
</mgrwt>
</event>
<event>
 6    1  0.8968082E-007  0.3426639E+04  0.7818608E-02  0.8131399E-01
         -1   -1    0    0    0  501 -0.00000000000E+00  0.00000000000E+00  0.12005800422E+04  0.12005800422E+04  0.00000000000E+00 0.  1.
          1   -1    0    0  501    0  0.00000000000E+00 -0.00000000000E+00 -0.24450381431E+04  0.24450381431E+04  0.00000000000E+00 0. -1.
         23    2    1    2    0    0 -0.70542463020E+03  0.12121495151E+04  0.42203585070E+03  0.14675152385E+04  0.92500594070E+02 0.  0.
         13    1    3    3    0    0 -0.35462516286E+03  0.54568247238E+03  0.16100934042E+03  0.67041209305E+03  0.00000000000E+00 0.  1.
        -13    1    3    3    0    0 -0.35079946733E+03  0.66646704277E+03  0.26102651028E+03  0.79710314542E+03  0.00000000000E+00 0. -1.
         22    1    1    2    0    0  0.70542463020E+03 -0.12121495151E+04 -0.16664939516E+04  0.21781029468E+04  0.00000000000E+00 0. -1.
<mgrwt>
<rscale>  0 0.34266392E+04</rscale>
<asrwt>0</asrwt>
<pdfrwt beam="1">  1        1 0.37615971E+00 0.34266392E+04</pdfrwt>
<pdfrwt beam="2">  1       -1 0.18470462E+00 0.34266392E+04</pdfrwt>
<totfact> 0.23377807E-01</totfact>
</mgrwt>
</event>
<event>
 6    1  0.8968082E-007  0.1205037E+04  0.7818608E-02  0.9108459E-01
          2   -1    0    0  501    0  0.00000000000E+00  0.00000000000E+00  0.70070109400E+03  0.70070109400E+03  0.00000000000E+00 0. -1.
         -2   -1    0    0    0  501 -0.00000000000E+00 -0.00000000000E+00 -0.51809331632E+03  0.51809331632E+03  0.00000000000E+00 0.  1.
         23    2    1    2    0    0  0.30799938290E+03  0.17333457990E+03  0.58059263919E+03  0.68653465564E+03  0.96610166449E+02 0.  0.
         13    1    3    3    0    0  0.21963290522E+03  0.70769966940E+02  0.37819469897E+03  0.44303299155E+03  0.00000000000E+00 0.  1.
        -13    1    3    3    0    0  0.88366477687E+02  0.10256461296E+03  0.20239794021E+03  0.24350166409E+03  0.00000000000E+00 0. -1.
         22    1    1    2    0    0 -0.30799938290E+03 -0.17333457990E+03 -0.39798486151E+03  0.53225975468E+03  0.00000000000E+00 0.  1.
<mgrwt>
<rscale>  0 0.12050370E+04</rscale>
<asrwt>0</asrwt>
<pdfrwt beam="1">  1        2 0.10780017E+00 0.12050370E+04</pdfrwt>
<pdfrwt beam="2">  1       -2 0.79706664E-01 0.12050370E+04</pdfrwt>
<totfact> 0.56288829E+01</totfact>
</mgrwt>
</event>
<event>
 6    1  0.8968082E-007  0.2565805E+04  0.7818608E-02  0.8379910E-01
          2   -1    0    0  501    0  0.00000000000E+00  0.00000000000E+00  0.13608897368E+04  0.13608897368E+04  0.00000000000E+00 0. -1.
         -2   -1    0    0    0  501 -0.00000000000E+00 -0.00000000000E+00 -0.12093848272E+04  0.12093848272E+04  0.00000000000E+00 0.  1.
         23    2    1    2    0    0  0.19588124115E+03 -0.12282791366E+04 -0.23232989486E+03  0.12685955501E+04  0.91205216717E+02 0.  0.
         13    1    3    3    0    0  0.59618056893E+02 -0.32982125272E+03 -0.22297512007E+02  0.33590705633E+03  0.00000000000E+00 0. -1.
        -13    1    3    3    0    0  0.13626318426E+03 -0.89845788390E+03 -0.21003238285E+03  0.93268849375E+03  0.00000000000E+00 0.  1.
         22    1    1    2    0    0 -0.19588124115E+03  0.12282791366E+04  0.38383480448E+03  0.13016790139E+04  0.00000000000E+00 0. -1.
<mgrwt>
<rscale>  0 0.25658054E+04</rscale>
<asrwt>0</asrwt>
<pdfrwt beam="1">  1        2 0.20936765E+00 0.25658054E+04</pdfrwt>
<pdfrwt beam="2">  1       -2 0.18605920E+00 0.25658054E+04</pdfrwt>
<totfact> 0.22279755E+00</totfact>
</mgrwt>
</event>
<event>
 6    1  0.8968082E-007  0.1662627E+04  0.7818608E-02  0.8782971E-01
         -2   -1    0    0    0  501 -0.00000000000E+00  0.00000000000E+00  0.13851907235E+04  0.13851907235E+04  0.00000000000E+00 0.  1.
          2   -1    0    0  501    0  0.00000000000E+00 -0.00000000000E+00 -0.49890770939E+03  0.49890770939E+03  0.00000000000E+00 0. -1.
         23    2    1    2    0    0 -0.46347387981E+03 -0.52312581067E+03  0.94944788347E+03  0.11823445930E+04  0.89547764056E+02 0.  0.
         11    1    3    3    0    0 -0.98134309302E+02 -0.15997294076E+03  0.21708170822E+03  0.28696019320E+03  0.00000000000E+00 0. -1.
        -11    1    3    3    0    0 -0.36533957051E+03 -0.36315286991E+03  0.73236617525E+03  0.89538439977E+03  0.00000000000E+00 0.  1.
         22    1    1    2    0    0  0.46347387981E+03  0.52312581067E+03 -0.63164869403E+02  0.70175383988E+03  0.00000000000E+00 0. -1.
<mgrwt>
<rscale>  0 0.16626272E+04</rscale>
<asrwt>0</asrwt>
<pdfrwt beam="1">  1        2 0.76755033E-01 0.16626272E+04</pdfrwt>
<pdfrwt beam="2">  1       -2 0.21310626E+00 0.16626272E+04</pdfrwt>
<totfact> 0.64380154E+00</totfact>
</mgrwt>
</event>
<event>
 6    1  0.8968082E-007  0.2779869E+04  0.7818608E-02  0.8309545E-01
          2   -1    0    0  501    0  0.00000000000E+00  0.00000000000E+00  0.27403096910E+04  0.27403096910E+04  0.00000000000E+00 0. -1.
         -2   -1    0    0    0  501 -0.00000000000E+00 -0.00000000000E+00 -0.70500003370E+03  0.70500003370E+03  0.00000000000E+00 0.  1.
         23    2    1    2    0    0 -0.61623094936E+03  0.87000875663E+03 -0.83559682611E+02  0.10733352098E+04  0.91708410384E+02 0.  0.
         11    1    3    3    0    0 -0.56024001463E+03  0.79866242883E+03 -0.50737306985E+02  0.97688526631E+03  0.00000000000E+00 0.  1.
        -11    1    3    3    0    0 -0.55990934734E+02  0.71346327806E+02 -0.32822375626E+02  0.96449943523E+02  0.00000000000E+00 0. -1.
         22    1    1    2    0    0  0.61623094936E+03 -0.87000875663E+03  0.21188693399E+04  0.23719745149E+04  0.00000000000E+00 0. -1.
<mgrwt>
<rscale>  0 0.27798694E+04</rscale>
<asrwt>0</asrwt>
<pdfrwt beam="1">  1        2 0.42158610E+00 0.27798694E+04</pdfrwt>
<pdfrwt beam="2">  1       -2 0.10846155E+00 0.27798694E+04</pdfrwt>
<totfact> 0.14879461E+00</totfact>
</mgrwt>
</event>
<event>
 6    1  0.8968082E-007  0.5093201E+03  0.7818608E-02  0.1011374E+00
         -2   -1    0    0    0  501 -0.00000000000E+00  0.00000000000E+00  0.19767147425E+03  0.19767147425E+03  0.00000000000E+00 0.  1.
          2   -1    0    0  501    0  0.00000000000E+00 -0.00000000000E+00 -0.32807839891E+03  0.32807839891E+03  0.00000000000E+00 0. -1.
         23    2    1    2    0    0  0.20545092479E+03  0.58880274256E+02  0.59456489160E+02  0.23987387714E+03  0.91254773225E+02 0.  0.
         11    1    3    3    0    0  0.99110190605E+02  0.72502877773E+02  0.48785147738E+02  0.13213435513E+03  0.00000000000E+00 0. -1.
        -11    1    3    3    0    0  0.10634073419E+03 -0.13622603517E+02  0.10671341422E+02  0.10773952200E+03  0.00000000000E+00 0.  1.
         22    1    1    2    0    0 -0.20545092479E+03 -0.58880274256E+02 -0.18986341381E+03  0.28587599602E+03  0.00000000000E+00 0. -1.
<mgrwt>
<rscale>  0 0.50932010E+03</rscale>
<asrwt>0</asrwt>
<pdfrwt beam="1">  1        2 0.50473600E-01 0.50932010E+03</pdfrwt>
<pdfrwt beam="2">  1       -2 0.30410996E-01 0.50932010E+03</pdfrwt>
<totfact> 0.99472732E+02</totfact>
</mgrwt>
</event>
<event>
 6    1  0.8968082E-007  0.3203699E+04  0.7818608E-02  0.8187841E-01
          1   -1    0    0  501    0  0.00000000000E+00  0.00000000000E+00  0.23959075788E+04  0.23959075788E+04  0.00000000000E+00 0. -1.
         -1   -1    0    0    0  501 -0.00000000000E+00 -0.00000000000E+00 -0.10709605834E+04  0.10709605834E+04  0.00000000000E+00 0.  1.
         23    2    1    2    0    0  0.60247846791E+03 -0.99671734605E+03  0.18510587558E+04  0.21888934533E+04  0.91707469747E+02 0.  0.
         11    1    3    3    0    0  0.19161106878E+03 -0.40208813618E+03  0.71847027951E+03  0.84533378820E+03  0.00000000000E+00 0. -1.
        -11    1    3    3    0    0  0.41086739913E+03 -0.59462920987E+03  0.11325884763E+04  0.13435596651E+04  0.00000000000E+00 0.  1.
         22    1    1    2    0    0 -0.60247846791E+03  0.99671734605E+03 -0.52611176037E+03  0.12779747089E+04  0.00000000000E+00 0.  1.
<mgrwt>
<rscale>  0 0.32036995E+04</rscale>
<asrwt>0</asrwt>
<pdfrwt beam="1">  1        1 0.36860116E+00 0.32036995E+04</pdfrwt>
<pdfrwt beam="2">  1       -1 0.16476317E+00 0.32036995E+04</pdfrwt>
<totfact> 0.35979399E-01</totfact>
</mgrwt>
</event>
<event>
 6    1  0.8968082E-007  0.3050088E+04  0.7818608E-02  0.8229571E-01
          1   -1    0    0  501    0  0.00000000000E+00  0.00000000000E+00  0.30051884395E+04  0.30051884395E+04  0.00000000000E+00 0. -1.
         -1   -1    0    0    0  501 -0.00000000000E+00 -0.00000000000E+00 -0.77391458527E+03  0.77391458527E+03  0.00000000000E+00 0.  1.
         23    2    1    2    0    0  0.12272637105E+04 -0.57564862757E+03  0.25438465918E+03  0.13820968823E+04  0.89065592577E+02 0.  0.
         11    1    3    3    0    0  0.10274387109E+04 -0.44535301932E+03  0.20256487029E+03  0.11379816093E+04  0.00000000000E+00 0.  1.
        -11    1    3    3    0    0  0.19982499956E+03 -0.13029560825E+03  0.51819788887E+02  0.24411527297E+03  0.00000000000E+00 0. -1.
         22    1    1    2    0    0 -0.12272637105E+04  0.57564862757E+03  0.19768891950E+04  0.23970061425E+04  0.00000000000E+00 0. -1.
<mgrwt>
<rscale>  0 0.30500880E+04</rscale>
<asrwt>0</asrwt>
<pdfrwt beam="1">  1        1 0.46233668E+00 0.30500880E+04</pdfrwt>
<pdfrwt beam="2">  1       -1 0.11906378E+00 0.30500880E+04</pdfrwt>
<totfact> 0.31664421E-01</totfact>
</mgrwt>
</event>
<event>
 6    1  0.8968082E-007  0.2475452E+04  0.7818608E-02  0.8411783E-01
          2   -1    0    0  501    0  0.00000000000E+00  0.00000000000E+00  0.69749641257E+03  0.69749641257E+03  0.00000000000E+00 0. -1.
         -2   -1    0    0    0  501 -0.00000000000E+00 -0.00000000000E+00 -0.21963779846E+04  0.21963779846E+04  0.00000000000E+00 0.  1.
         23    2    1    2    0    0 -0.43122520172E+02 -0.22032040631E+03 -0.21714733598E+04  0.21848043400E+04  0.87594626347E+02 0.  0.
         11    1    3    3    0    0 -0.58031358993E+02 -0.74775949790E+02 -0.86867093627E+03  0.87381249523E+03  0.00000000000E+00 0.  1.
        -11    1    3    3    0    0  0.14908838821E+02 -0.14554445652E+03 -0.13028024235E+04  0.13109918447E+04  0.00000000000E+00 0. -1.
         22    1    1    2    0    0  0.43122520172E+02  0.22032040631E+03  0.67259178770E+03  0.70907005723E+03  0.00000000000E+00 0. -1.
<mgrwt>
<rscale>  0 0.24754521E+04</rscale>
<asrwt>0</asrwt>
<pdfrwt beam="1">  1        2 0.10730714E+00 0.24754521E+04</pdfrwt>
<pdfrwt beam="2">  1       -2 0.33790430E+00 0.24754521E+04</pdfrwt>
<totfact> 0.68201236E-01</totfact>
</mgrwt>
</event>
<event>
 6    1  0.1019456E-006  0.1487572E+04  0.7818608E-02  0.8892760E-01
         -1   -1    0    0    0  501 -0.00000000000E+00  0.00000000000E+00  0.37915523051E+03  0.37915523051E+03  0.00000000000E+00 0.  1.
          1   -1    0    0  501    0  0.00000000000E+00 -0.00000000000E+00 -0.14590789010E+04  0.14590789010E+04  0.00000000000E+00 0. -1.
         23    2    1    2    0    0  0.37035369169E+03  0.64167035978E+03 -0.58876853780E+03  0.94933814661E+03  0.75444137922E+02 0.  0.
         13    1    3    3    0    0  0.11531807339E+03  0.24270995966E+03 -0.17642692728E+03  0.32145426306E+03  0.00000000000E+00 0. -1.
        -13    1    3    3    0    0  0.25503561830E+03  0.39896040012E+03 -0.41234161051E+03  0.62788388355E+03  0.00000000000E+00 0.  1.
         22    1    1    2    0    0 -0.37035369169E+03 -0.64167035978E+03 -0.49115513265E+03  0.88889598486E+03  0.00000000000E+00 0.  1.
<mgrwt>
<rscale>  0 0.14875717E+04</rscale>
<asrwt>0</asrwt>
<pdfrwt beam="1">  1        1 0.22447368E+00 0.14875717E+04</pdfrwt>
<pdfrwt beam="2">  1       -1 0.58331574E-01 0.14875717E+04</pdfrwt>
<totfact> 0.20140257E+01</totfact>
</mgrwt>
</event>
<event>
 6    1  0.8968082E-007  0.2715203E+04  0.7818608E-02  0.8330089E-01
         -2   -1    0    0    0  501 -0.00000000000E+00  0.00000000000E+00  0.96798379796E+03  0.96798379796E+03  0.00000000000E+00 0.  1.
          2   -1    0    0  501    0  0.00000000000E+00 -0.00000000000E+00 -0.19040426367E+04  0.19040426367E+04  0.00000000000E+00 0. -1.
         23    2    1    2    0    0 -0.10426225904E+04 -0.37402422775E+03 -0.12961042486E+04  0.17072995628E+04  0.89607951258E+02 0.  0.
         11    1    3    3    0    0 -0.29880899120E+03 -0.11321570490E+03 -0.31381728932E+03  0.44786817272E+03  0.00000000000E+00 0. -1.
        -11    1    3    3    0    0 -0.74381359923E+03 -0.26080852286E+03 -0.98228695925E+03  0.12594313901E+04  0.00000000000E+00 0.  1.
         22    1    1    2    0    0  0.10426225904E+04  0.37402422775E+03  0.36004540980E+03  0.11647268719E+04  0.00000000000E+00 0.  1.
<mgrwt>
<rscale>  0 0.27152034E+04</rscale>
<asrwt>0</asrwt>
<pdfrwt beam="1">  1        2 0.29292963E+00 0.27152034E+04</pdfrwt>
<pdfrwt beam="2">  1       -2 0.14892059E+00 0.27152034E+04</pdfrwt>
<totfact> 0.20217675E+00</totfact>
</mgrwt>
</event>
<event>
 6    1  0.8968082E-007  0.2717264E+04  0.7818608E-02  0.8329425E-01
         -1   -1    0    0    0  501 -0.00000000000E+00  0.00000000000E+00  0.12152707034E+04  0.12152707034E+04  0.00000000000E+00 0.  1.
          1   -1    0    0  501    0  0.00000000000E+00 -0.00000000000E+00 -0.15189054125E+04  0.15189054125E+04  0.00000000000E+00 0. -1.
         23    2    1    2    0    0 -0.62749209072E+03  0.88630358516E+03  0.66690409535E+03  0.12777332094E+04  0.92524121721E+02 0.  0.
         11    1    3    3    0    0 -0.47869143046E+03  0.71941224535E+03  0.56162836430E+03  0.10305949175E+04  0.00000000000E+00 0. -1.
        -11    1    3    3    0    0 -0.14880066027E+03  0.16689133981E+03  0.10527573105E+03  0.24713829195E+03  0.00000000000E+00 0.  1.
         22    1    1    2    0    0  0.62749209072E+03 -0.88630358516E+03 -0.97053880444E+03  0.14564429065E+04  0.00000000000E+00 0. -1.
<mgrwt>
<rscale>  0 0.27172642E+04</rscale>
<asrwt>0</asrwt>
<pdfrwt beam="1">  1        1 0.23367775E+00 0.27172642E+04</pdfrwt>
<pdfrwt beam="2">  1       -1 0.18696473E+00 0.27172642E+04</pdfrwt>
<totfact> 0.10272775E+00</totfact>
</mgrwt>
</event>
<event>
 6    1  0.8968082E-007  0.4686150E+04  0.7818608E-02  0.7878834E-01
         -2   -1    0    0    0  501 -0.00000000000E+00  0.00000000000E+00  0.12211823803E+04  0.12211823803E+04  0.00000000000E+00 0.  1.
          2   -1    0    0  501    0  0.00000000000E+00 -0.00000000000E+00 -0.44956432466E+04  0.44956432466E+04  0.00000000000E+00 0. -1.
         23    2    1    2    0    0 -0.19525090477E+04 -0.12930979628E+04 -0.15911870994E+04  0.28327652084E+04  0.91040749015E+02 0.  0.
         13    1    3    3    0    0 -0.10973898023E+04 -0.76745924869E+03 -0.87356825527E+03  0.15988682163E+04  0.00000000000E+00 0. -1.
        -13    1    3    3    0    0 -0.85511924543E+03 -0.52563871415E+03 -0.71761884412E+03  0.12338969921E+04  0.00000000000E+00 0.  1.
         22    1    1    2    0    0  0.19525090477E+04  0.12930979628E+04 -0.16832737669E+04  0.28840604184E+04  0.00000000000E+00 0.  1.
<mgrwt>
<rscale>  0 0.46861499E+04</rscale>
<asrwt>0</asrwt>
<pdfrwt beam="1">  1        2 0.69163743E+00 0.46861499E+04</pdfrwt>
<pdfrwt beam="2">  1       -2 0.18787421E+00 0.46861499E+04</pdfrwt>
<totfact> 0.14727560E-02</totfact>
</mgrwt>
</event>
<event>
 6    1  0.8968082E-007  0.9660944E+03  0.7818608E-02  0.9346534E-01
          2   -1    0    0  501    0  0.00000000000E+00  0.00000000000E+00  0.17147080174E+04  0.17147080174E+04  0.00000000000E+00 0. -1.
         -2   -1    0    0    0  501 -0.00000000000E+00 -0.00000000000E+00 -0.13607832361E+03  0.13607832361E+03  0.00000000000E+00 0.  1.
         23    2    1    2    0    0  0.39580434897E+03 -0.26311684659E+03  0.68519186703E+03  0.83879686087E+03  0.90557835337E+02 0.  0.
         11    1    3    3    0    0  0.17117954326E+03 -0.97048735787E+02  0.21159283161E+03  0.28895054860E+03  0.00000000000E+00 0.  1.
        -11    1    3    3    0    0  0.22462480571E+03 -0.16606811080E+03  0.47359903542E+03  0.54984631227E+03  0.00000000000E+00 0. -1.
         22    1    1    2    0    0 -0.39580434897E+03  0.26311684659E+03  0.89343782674E+03  0.10119894801E+04  0.00000000000E+00 0.  1.
<mgrwt>
<rscale>  0 0.96609439E+03</rscale>
<asrwt>0</asrwt>
<pdfrwt beam="1">  1        2 0.26380122E+00 0.96609439E+03</pdfrwt>
<pdfrwt beam="2">  1       -2 0.20935128E-01 0.96609439E+03</pdfrwt>
<totfact> 0.18995853E+02</totfact>
</mgrwt>
</event>
<event>
 6    1  0.1017510E-006  0.2490808E+04  0.7818608E-02  0.8406268E-01
         -2   -1    0    0    0  501 -0.00000000000E+00  0.00000000000E+00  0.70357664221E+03  0.70357664221E+03  0.00000000000E+00 0.  1.
          2   -1    0    0  501    0  0.00000000000E+00 -0.00000000000E+00 -0.22044949377E+04  0.22044949377E+04  0.00000000000E+00 0. -1.
         23    2    1    2    0    0 -0.63197132532E+03  0.64107425545E+02  0.49702939662E+03  0.81157629051E+03  0.90112907967E+02 0.  0.
         13    1    3    3    0    0 -0.37062260765E+03  0.37262512094E+02  0.23445834726E+03  0.44013671593E+03  0.00000000000E+00 0.  1.
        -13    1    3    3    0    0 -0.26134871767E+03  0.26844913451E+02  0.26257104936E+03  0.37143957459E+03  0.00000000000E+00 0. -1.
         22    1    1    2    0    0  0.63197132532E+03 -0.64107425545E+02 -0.19979476921E+04  0.20964952894E+04  0.00000000000E+00 0. -1.
<mgrwt>
<rscale>  0 0.24908080E+04</rscale>
<asrwt>0</asrwt>
<pdfrwt beam="1">  1        2 0.33915307E+00 0.24908080E+04</pdfrwt>
<pdfrwt beam="2">  1       -2 0.10824256E+00 0.24908080E+04</pdfrwt>
<totfact> 0.31298753E+00</totfact>
</mgrwt>
</event>
<event>
 6    1  0.8968082E-007  0.3330791E+04  0.7818608E-02  0.8155105E-01
          2   -1    0    0  501    0  0.00000000000E+00  0.00000000000E+00  0.20733646437E+04  0.20733646437E+04  0.00000000000E+00 0. -1.
         -2   -1    0    0    0  501 -0.00000000000E+00 -0.00000000000E+00 -0.13377007191E+04  0.13377007191E+04  0.00000000000E+00 0.  1.
         23    2    1    2    0    0  0.76993119564E+03 -0.11650053851E+04 -0.55899240889E+03  0.15068157429E+04  0.89384431363E+02 0.  0.
         13    1    3    3    0    0  0.56260214356E+03 -0.90849642366E+03 -0.44966187474E+03  0.11593458178E+04  0.00000000000E+00 0. -1.
        -13    1    3    3    0    0  0.20732905208E+03 -0.25650896140E+03 -0.10933053415E+03  0.34746992505E+03  0.00000000000E+00 0.  1.
         22    1    1    2    0    0 -0.76993119564E+03  0.11650053851E+04  0.12946563334E+04  0.19042496199E+04  0.00000000000E+00 0. -1.
<mgrwt>
<rscale>  0 0.33307905E+04</rscale>
<asrwt>0</asrwt>
<pdfrwt beam="1">  1        2 0.31897918E+00 0.33307905E+04</pdfrwt>
<pdfrwt beam="2">  1       -2 0.20580011E+00 0.33307905E+04</pdfrwt>
<totfact> 0.61754098E-01</totfact>
</mgrwt>
</event>
<event>
 6    1  0.8968082E-007  0.2632741E+04  0.7818608E-02  0.8357164E-01
          1   -1    0    0  501    0  0.00000000000E+00  0.00000000000E+00  0.75535546804E+03  0.75535546804E+03  0.00000000000E+00 0. -1.
         -1   -1    0    0    0  501 -0.00000000000E+00 -0.00000000000E+00 -0.22940614133E+04  0.22940614133E+04  0.00000000000E+00 0.  1.
         23    2    1    2    0    0 -0.12639362881E+04 -0.43559009581E+01 -0.35084623766E+03  0.13148954490E+04  0.91121045892E+02 0.  0.
         11    1    3    3    0    0 -0.48971650648E+03  0.42689417423E+02 -0.13741169432E+03  0.51041808042E+03  0.00000000000E+00 0.  1.
        -11    1    3    3    0    0 -0.77421978164E+03 -0.47045318381E+02 -0.21343454334E+03  0.80447736858E+03  0.00000000000E+00 0. -1.
         22    1    1    2    0    0  0.12639362881E+04  0.43559009581E+01 -0.11878597076E+04  0.17345214323E+04  0.00000000000E+00 0.  1.
<mgrwt>
<rscale>  0 0.26327414E+04</rscale>
<asrwt>0</asrwt>
<pdfrwt beam="1">  1        1 0.11620853E+00 0.26327414E+04</pdfrwt>
<pdfrwt beam="2">  1       -1 0.35293252E+00 0.26327414E+04</pdfrwt>
<totfact> 0.31605226E-01</totfact>
</mgrwt>
</event>
<event>
 6    1  0.8968082E-007  0.1283062E+04  0.7818608E-02  0.9043106E-01
         -2   -1    0    0    0  501 -0.00000000000E+00  0.00000000000E+00  0.13363659444E+03  0.13363659444E+03  0.00000000000E+00 0.  1.
          2   -1    0    0  501    0  0.00000000000E+00 -0.00000000000E+00 -0.30797116773E+04  0.30797116773E+04  0.00000000000E+00 0. -1.
         23    2    1    2    0    0 -0.21483606601E+03 -0.60005360636E+03 -0.13963755542E+04  0.15377028752E+04  0.91905268333E+02 0.  0.
         11    1    3    3    0    0 -0.11085992477E+03 -0.34278561356E+03 -0.89257848961E+03  0.96254260160E+03  0.00000000000E+00 0. -1.
        -11    1    3    3    0    0 -0.10397614125E+03 -0.25726799280E+03 -0.50379706461E+03  0.57516027364E+03  0.00000000000E+00 0.  1.
         22    1    1    2    0    0  0.21483606601E+03  0.60005360636E+03 -0.15496995287E+04  0.16756453965E+04  0.00000000000E+00 0. -1.
<mgrwt>
<rscale>  0 0.12830622E+04</rscale>
<asrwt>0</asrwt>
<pdfrwt beam="1">  1        2 0.47380180E+00 0.12830622E+04</pdfrwt>
<pdfrwt beam="2">  1       -2 0.20559476E-01 0.12830622E+04</pdfrwt>
<totfact> 0.31389413E+01</totfact>
</mgrwt>
</event>
<event>
 6    1  0.8968082E-007  0.2054919E+04  0.7818608E-02  0.8581366E-01
          1   -1    0    0  501    0  0.00000000000E+00  0.00000000000E+00  0.11962540676E+04  0.11962540676E+04  0.00000000000E+00 0. -1.
         -1   -1    0    0    0  501 -0.00000000000E+00 -0.00000000000E+00 -0.88248230981E+03  0.88248230981E+03  0.00000000000E+00 0.  1.
         23    2    1    2    0    0 -0.74735105242E+03  0.11499887761E+03  0.85788731996E+03  0.11471677636E+04  0.90911421967E+02 0.  0.
         11    1    3    3    0    0 -0.43849855848E+03  0.22449921130E+02  0.50376967154E+03  0.66825808391E+03  0.00000000000E+00 0. -1.
        -11    1    3    3    0    0 -0.30885249394E+03  0.92548956484E+02  0.35411764842E+03  0.47890967967E+03  0.00000000000E+00 0.  1.
         22    1    1    2    0    0  0.74735105242E+03 -0.11499887761E+03 -0.54411556212E+03  0.93156861387E+03  0.00000000000E+00 0.  1.
<mgrwt>
<rscale>  0 0.20549190E+04</rscale>
<asrwt>0</asrwt>
<pdfrwt beam="1">  1        1 0.18403909E+00 0.20549190E+04</pdfrwt>
<pdfrwt beam="2">  1       -1 0.13576651E+00 0.20549190E+04</pdfrwt>
<totfact> 0.45077210E+00</totfact>
</mgrwt>
</event>
<event>
 6    1  0.8968082E-007  0.4802964E+04  0.7818608E-02  0.7859642E-01
          2   -1    0    0  501    0  0.00000000000E+00  0.00000000000E+00  0.47888746811E+04  0.47888746811E+04  0.00000000000E+00 0. -1.
         -2   -1    0    0    0  501 -0.00000000000E+00 -0.00000000000E+00 -0.12042736499E+04  0.12042736499E+04  0.00000000000E+00 0.  1.
         23    2    1    2    0    0 -0.91887738494E+03  0.63748318883E+03 -0.85799235617E+03  0.14119523660E+04  0.82086149507E+02 0.  0.
         13    1    3    3    0    0 -0.78052119838E+03  0.50665724956E+03 -0.72628095221E+03  0.11804232000E+04  0.00000000000E+00 0. -1.
        -13    1    3    3    0    0 -0.13835618657E+03  0.13082593927E+03 -0.13171140397E+03  0.23152916594E+03  0.00000000000E+00 0.  1.
         22    1    1    2    0    0  0.91887738494E+03 -0.63748318883E+03  0.44425933874E+04  0.45811959651E+04  0.00000000000E+00 0. -1.
<mgrwt>
<rscale>  0 0.48029639E+04</rscale>
<asrwt>0</asrwt>
<pdfrwt beam="1">  1        2 0.73674994E+00 0.48029639E+04</pdfrwt>
<pdfrwt beam="2">  1       -2 0.18527287E+00 0.48029639E+04</pdfrwt>
<totfact> 0.74603168E-03</totfact>
</mgrwt>
</event>
<event>
 6    1  0.8968082E-007  0.1654226E+04  0.7818608E-02  0.8787911E-01
         -1   -1    0    0    0  501 -0.00000000000E+00  0.00000000000E+00  0.10433050153E+04  0.10433050153E+04  0.00000000000E+00 0.  1.
          1   -1    0    0  501    0  0.00000000000E+00 -0.00000000000E+00 -0.65571964394E+03  0.65571964394E+03  0.00000000000E+00 0. -1.
         23    2    1    2    0    0  0.72177056870E+03 -0.31861366429E+03 -0.52967159665E+02  0.79539090960E+03  0.85870589528E+02 0.  0.
         13    1    3    3    0    0  0.37947460522E+03 -0.20997788481E+03 -0.46836370362E+02  0.43621707177E+03  0.00000000000E+00 0.  1.
        -13    1    3    3    0    0  0.34229596348E+03 -0.10863577948E+03 -0.61307893033E+01  0.35917383782E+03  0.00000000000E+00 0. -1.
         22    1    1    2    0    0 -0.72177056870E+03  0.31861366429E+03  0.44055253104E+03  0.90363374966E+03  0.00000000000E+00 0.  1.
<mgrwt>
<rscale>  0 0.16542256E+04</rscale>
<asrwt>0</asrwt>
<pdfrwt beam="1">  1        1 0.10087994E+00 0.16542256E+04</pdfrwt>
<pdfrwt beam="2">  1       -1 0.16050846E+00 0.16542256E+04</pdfrwt>
<totfact> 0.83180771E+00</totfact>
</mgrwt>
</event>
<event>
 6    1  0.8968082E-007  0.3787802E+04  0.7818608E-02  0.8048778E-01
          2   -1    0    0  501    0  0.00000000000E+00  0.00000000000E+00  0.34007161960E+04  0.34007161960E+04  0.00000000000E+00 0. -1.
         -2   -1    0    0    0  501 -0.00000000000E+00 -0.00000000000E+00 -0.10547367974E+04  0.10547367974E+04  0.00000000000E+00 0.  1.
         23    2    1    2    0    0  0.55770129327E+03 -0.17837167535E+04  0.82088005605E+03  0.20432746845E+04  0.91930302579E+02 0.  0.
         11    1    3    3    0    0  0.51761863439E+03 -0.15728652528E+04  0.74369209573E+03  0.18151892704E+04  0.00000000000E+00 0. -1.
        -11    1    3    3    0    0  0.40082658877E+02 -0.21085150071E+03  0.77187960316E+02  0.22808541407E+03  0.00000000000E+00 0.  1.
         22    1    1    2    0    0 -0.55770129327E+03  0.17837167535E+04  0.15250993425E+04  0.24121783089E+04  0.00000000000E+00 0. -1.
<mgrwt>
<rscale>  0 0.37878017E+04</rscale>
<asrwt>0</asrwt>
<pdfrwt beam="1">  1        2 0.52318710E+00 0.37878017E+04</pdfrwt>
<pdfrwt beam="2">  1       -2 0.16226720E+00 0.37878017E+04</pdfrwt>
<totfact> 0.18499150E-01</totfact>
</mgrwt>
</event>
<event>
 6    1  0.8968082E-007  0.5115179E+04  0.7818608E-02  0.7810981E-01
         -1   -1    0    0    0  501 -0.00000000000E+00  0.00000000000E+00  0.20889084150E+04  0.20889084150E+04  0.00000000000E+00 0.  1.
          1   -1    0    0  501    0  0.00000000000E+00 -0.00000000000E+00 -0.31314272988E+04  0.31314272988E+04  0.00000000000E+00 0. -1.
         23    2    1    2    0    0 -0.55532846253E+03  0.11252894288E+03 -0.30658687876E+04  0.31191462179E+04  0.92028483031E+02 0.  0.
         13    1    3    3    0    0 -0.37786093862E+03  0.11965644022E+03 -0.21403273134E+04  0.21767171523E+04  0.00000000000E+00 0. -1.
        -13    1    3    3    0    0 -0.17746752391E+03 -0.71274973422E+01 -0.92554147417E+03  0.94242906559E+03  0.00000000000E+00 0.  1.
         22    1    1    2    0    0  0.55532846253E+03 -0.11252894288E+03  0.20233499038E+04  0.21011894958E+04  0.00000000000E+00 0.  1.
<mgrwt>
<rscale>  0 0.51151793E+04</rscale>
<asrwt>0</asrwt>
<pdfrwt beam="1">  1        1 0.48175804E+00 0.51151793E+04</pdfrwt>
<pdfrwt beam="2">  1       -1 0.32137053E+00 0.51151793E+04</pdfrwt>
<totfact> 0.82021748E-03</totfact>
</mgrwt>
</event>
<event>
 6    1  0.8968082E-007  0.8561030E+03  0.7818608E-02  0.9482182E-01
         -2   -1    0    0    0  501 -0.00000000000E+00  0.00000000000E+00  0.13739609412E+03  0.13739609412E+03  0.00000000000E+00 0.  1.
          2   -1    0    0  501    0  0.00000000000E+00 -0.00000000000E+00 -0.13335756969E+04  0.13335756969E+04  0.00000000000E+00 0. -1.
         23    2    1    2    0    0 -0.15038986988E+03  0.36789533608E+03 -0.35422706353E+03  0.53992497715E+03  0.89878123808E+02 0.  0.
         11    1    3    3    0    0 -0.43070321131E+02  0.12709375559E+03 -0.17757869334E+03  0.22258047444E+03  0.00000000000E+00 0. -1.
        -11    1    3    3    0    0 -0.10731954875E+03  0.24080158049E+03 -0.17664837019E+03  0.31734450271E+03  0.00000000000E+00 0.  1.
         22    1    1    2    0    0  0.15038986988E+03 -0.36789533608E+03 -0.84195253929E+03  0.93104681391E+03  0.00000000000E+00 0. -1.
<mgrwt>
<rscale>  0 0.85610301E+03</rscale>
<asrwt>0</asrwt>
<pdfrwt beam="1">  1        2 0.20516550E+00 0.85610301E+03</pdfrwt>
<pdfrwt beam="2">  1       -2 0.21137860E-01 0.85610301E+03</pdfrwt>
<totfact> 0.30738090E+02</totfact>
</mgrwt>
</event>
<event>
 6    1  0.8968082E-007  0.2099138E+04  0.7818608E-02  0.8561623E-01
         -2   -1    0    0    0  501 -0.00000000000E+00  0.00000000000E+00  0.76321023361E+03  0.76321023361E+03  0.00000000000E+00 0.  1.
          2   -1    0    0  501    0  0.00000000000E+00 -0.00000000000E+00 -0.14433698144E+04  0.14433698144E+04  0.00000000000E+00 0. -1.
         23    2    1    2    0    0 -0.15515491235E+03  0.87787506305E+03 -0.91882197453E+03  0.12837055108E+04  0.94489917070E+02 0.  0.
         11    1    3    3    0    0 -0.14428660381E+03  0.59786097330E+03 -0.59964958986E+03  0.85897380522E+03  0.00000000000E+00 0. -1.
        -11    1    3    3    0    0 -0.10868308537E+02  0.28001408975E+03 -0.31917238467E+03  0.42473170557E+03  0.00000000000E+00 0.  1.
         22    1    1    2    0    0  0.15515491235E+03 -0.87787506305E+03  0.23866239379E+03  0.92287453717E+03  0.00000000000E+00 0.  1.
<mgrwt>
<rscale>  0 0.20991375E+04</rscale>
<asrwt>0</asrwt>
<pdfrwt beam="1">  1        2 0.22205689E+00 0.20991375E+04</pdfrwt>
<pdfrwt beam="2">  1       -2 0.11741696E+00 0.20991375E+04</pdfrwt>
<totfact> 0.70601139E+00</totfact>
</mgrwt>
</event>
<event>
 6    1  0.8968082E-007  0.1036376E+04  0.7818608E-02  0.9269525E-01
          2   -1    0    0  501    0  0.00000000000E+00  0.00000000000E+00  0.76125727051E+03  0.76125727051E+03  0.00000000000E+00 0. -1.
         -2   -1    0    0    0  501 -0.00000000000E+00 -0.00000000000E+00 -0.35273038301E+03  0.35273038301E+03  0.00000000000E+00 0.  1.
         23    2    1    2    0    0  0.32337496129E+03  0.43403757510E+02  0.63318717115E+03  0.71784690226E+03  0.89010839915E+02 0.  0.
         13    1    3    3    0    0  0.19158049576E+03 -0.10576274911E+02  0.41615698124E+03  0.45825929012E+03  0.00000000000E+00 0.  1.
        -13    1    3    3    0    0  0.13179446553E+03  0.53980032421E+02  0.21703018990E+03  0.25958761214E+03  0.00000000000E+00 0. -1.
         22    1    1    2    0    0 -0.32337496129E+03 -0.43403757510E+02 -0.22466028365E+03  0.39614075126E+03  0.00000000000E+00 0.  1.
<mgrwt>
<rscale>  0 0.10363755E+04</rscale>
<asrwt>0</asrwt>
<pdfrwt beam="1">  1        2 0.11711650E+00 0.10363755E+04</pdfrwt>
<pdfrwt beam="2">  1       -2 0.54266213E-01 0.10363755E+04</pdfrwt>
<totfact> 0.11719346E+02</totfact>
</mgrwt>
</event>
<event>
 6    1  0.8968082E-007  0.2068218E+04  0.7818608E-02  0.8575374E-01
          2   -1    0    0  501    0  0.00000000000E+00  0.00000000000E+00  0.26648160158E+04  0.26648160158E+04  0.00000000000E+00 0. -1.
         -2   -1    0    0    0  501 -0.00000000000E+00 -0.00000000000E+00 -0.40129645041E+03  0.40129645041E+03  0.00000000000E+00 0.  1.
         23    2    1    2    0    0  0.95246707385E+02 -0.90337365972E+03  0.40663466571E+03  0.99894594293E+03  0.85938007788E+02 0.  0.
         11    1    3    3    0    0  0.93371960944E+02 -0.71767889311E+03  0.35552425451E+03  0.80633666185E+03  0.00000000000E+00 0.  1.
        -11    1    3    3    0    0  0.18747464408E+01 -0.18569476661E+03  0.51110411199E+02  0.19260928107E+03  0.00000000000E+00 0. -1.
         22    1    1    2    0    0 -0.95246707385E+02  0.90337365972E+03  0.18568848997E+04  0.20671665233E+04  0.00000000000E+00 0.  1.
<mgrwt>
<rscale>  0 0.20682178E+04</rscale>
<asrwt>0</asrwt>
<pdfrwt beam="1">  1        2 0.40997168E+00 0.20682178E+04</pdfrwt>
<pdfrwt beam="2">  1       -2 0.61737917E-01 0.20682178E+04</pdfrwt>
<totfact> 0.62806926E+00</totfact>
</mgrwt>
</event>
<event>
 6    1  0.8968082E-007  0.1060005E+04  0.7818608E-02  0.9245075E-01
          2   -1    0    0  501    0  0.00000000000E+00  0.00000000000E+00  0.28017919337E+04  0.28017919337E+04  0.00000000000E+00 0. -1.
         -2   -1    0    0    0  501 -0.00000000000E+00 -0.00000000000E+00 -0.10025814492E+03  0.10025814492E+03  0.00000000000E+00 0.  1.
         23    2    1    2    0    0  0.13183067938E+02  0.28264664587E+03  0.25755121175E+04  0.25923011782E+04  0.81852375322E+02 0.  0.
         13    1    3    3    0    0 -0.70825655488E+01  0.63008520541E+02  0.33417697173E+03  0.34013891990E+03  0.00000000000E+00 0.  1.
        -13    1    3    3    0    0  0.20265633486E+02  0.21963812533E+03  0.22413351458E+04  0.22521622583E+04  0.00000000000E+00 0. -1.
         22    1    1    2    0    0 -0.13183067938E+02 -0.28264664587E+03  0.12602167130E+03  0.30974890046E+03  0.00000000000E+00 0.  1.
<mgrwt>
<rscale>  0 0.10600046E+04</rscale>
<asrwt>0</asrwt>
<pdfrwt beam="1">  1        2 0.43104485E+00 0.10600046E+04</pdfrwt>
<pdfrwt beam="2">  1       -2 0.15424332E-01 0.10600046E+04</pdfrwt>
<totfact> 0.78129170E+01</totfact>
</mgrwt>
</event>
<event>
 6    1  0.9044046E-007  0.2103716E+04  0.7818608E-02  0.8559608E-01
         -1   -1    0    0    0  501 -0.00000000000E+00  0.00000000000E+00  0.64966862028E+03  0.64966862028E+03  0.00000000000E+00 0.  1.
          1   -1    0    0  501    0  0.00000000000E+00 -0.00000000000E+00 -0.17030293988E+04  0.17030293988E+04  0.00000000000E+00 0. -1.
         23    2    1    2    0    0  0.10316377056E+04 -0.14395783458E+03 -0.67477086672E+03  0.12443972769E+04  0.90601579586E+02 0.  0.
         11    1    3    3    0    0  0.54785503414E+03 -0.30776239370E+02 -0.35524273372E+03  0.65367401294E+03  0.00000000000E+00 0. -1.
        -11    1    3    3    0    0  0.48378267151E+03 -0.11318159521E+03 -0.31952813300E+03  0.59072326392E+03  0.00000000000E+00 0.  1.
         22    1    1    2    0    0 -0.10316377056E+04  0.14395783458E+03 -0.37858991176E+03  0.11083007422E+04  0.00000000000E+00 0. -1.
<mgrwt>
<rscale>  0 0.21037155E+04</rscale>
<asrwt>0</asrwt>
<pdfrwt beam="1">  1        1 0.26200452E+00 0.21037155E+04</pdfrwt>
<pdfrwt beam="2">  1       -1 0.99949020E-01 0.21037155E+04</pdfrwt>
<totfact> 0.41609893E+00</totfact>
</mgrwt>
</event>
<event>
 6    1  0.8968082E-007  0.4536764E+04  0.7818608E-02  0.7904232E-01
         -1   -1    0    0    0  501 -0.00000000000E+00  0.00000000000E+00  0.31051448014E+04  0.31051448014E+04  0.00000000000E+00 0.  1.
          1   -1    0    0  501    0  0.00000000000E+00 -0.00000000000E+00 -0.16571066035E+04  0.16571066035E+04  0.00000000000E+00 0. -1.
         23    2    1    2    0    0  0.39858458702E+03  0.83720700759E+03 -0.14478545038E+04  0.17215311307E+04  0.87186715500E+02 0.  0.
         11    1    3    3    0    0  0.30308497058E+03  0.54219436751E+03 -0.95412474441E+03  0.11385030784E+04  0.00000000000E+00 0. -1.
        -11    1    3    3    0    0  0.95499616438E+02  0.29501264007E+03 -0.49372975937E+03  0.58302805235E+03  0.00000000000E+00 0.  1.
         22    1    1    2    0    0 -0.39858458702E+03 -0.83720700759E+03  0.28958927017E+04  0.30407202742E+04  0.00000000000E+00 0.  1.
<mgrwt>
<rscale>  0 0.45367636E+04</rscale>
<asrwt>0</asrwt>
<pdfrwt beam="1">  1        1 0.25493948E+00 0.45367636E+04</pdfrwt>
<pdfrwt beam="2">  1       -1 0.47771458E+00 0.45367636E+04</pdfrwt>
<totfact> 0.80115422E-03</totfact>
</mgrwt>
</event>
<event>
 6    1  0.8968082E-007  0.8623912E+03  0.7818608E-02  0.9473855E-01
         -1   -1    0    0    0  501 -0.00000000000E+00  0.00000000000E+00  0.11369035137E+04  0.11369035137E+04  0.00000000000E+00 0.  1.
          1   -1    0    0  501    0  0.00000000000E+00 -0.00000000000E+00 -0.16354037563E+03  0.16354037563E+03  0.00000000000E+00 0. -1.
         23    2    1    2    0    0  0.18953756656E+03 -0.76336177737E+02  0.10559600452E+04  0.10800489025E+04  0.98500322145E+02 0.  0.
         13    1    3    3    0    0  0.73586048501E+02 -0.11301605126E+02  0.61483578251E+03  0.61932678956E+03  0.00000000000E+00 0.  1.
        -13    1    3    3    0    0  0.11595151806E+03 -0.65034572612E+02  0.44112426272E+03  0.46072211293E+03  0.00000000000E+00 0. -1.
         22    1    1    2    0    0 -0.18953756656E+03  0.76336177737E+02 -0.82596907130E+02  0.22039498687E+03  0.00000000000E+00 0. -1.
<mgrwt>
<rscale>  0 0.86239116E+03</rscale>
<asrwt>0</asrwt>
<pdfrwt beam="1">  1        1 0.25160059E-01 0.86239116E+03</pdfrwt>
<pdfrwt beam="2">  1       -1 0.17490823E+00 0.86239116E+03</pdfrwt>
<totfact> 0.44419090E+01</totfact>
</mgrwt>
</event>
<event>
 6    1  0.8968082E-007  0.2513627E+04  0.7818608E-02  0.8398147E-01
          2   -1    0    0  501    0  0.00000000000E+00  0.00000000000E+00  0.67355462083E+03  0.67355462083E+03  0.00000000000E+00 0. -1.
         -2   -1    0    0    0  501 -0.00000000000E+00 -0.00000000000E+00 -0.23451400834E+04  0.23451400834E+04  0.00000000000E+00 0.  1.
         23    2    1    2    0    0  0.41211456159E+03 -0.26250756650E+03 -0.22252991074E+04  0.22802182762E+04  0.93223577708E+02 0.  0.
         13    1    3    3    0    0  0.19181125713E+03 -0.15097349212E+03 -0.12887746506E+04  0.13116877120E+04  0.00000000000E+00 0. -1.
        -13    1    3    3    0    0  0.22030330446E+03 -0.11153407438E+03 -0.93652445680E+03  0.96853056425E+03  0.00000000000E+00 0.  1.
         22    1    1    2    0    0 -0.41211456159E+03  0.26250756650E+03  0.55371364479E+03  0.73847642804E+03  0.00000000000E+00 0. -1.
<mgrwt>
<rscale>  0 0.25136268E+04</rscale>
<asrwt>0</asrwt>
<pdfrwt beam="1">  1        2 0.10362379E+00 0.25136268E+04</pdfrwt>
<pdfrwt beam="2">  1       -2 0.36079078E+00 0.25136268E+04</pdfrwt>
<totfact> 0.50959770E-01</totfact>
</mgrwt>
</event>
<event>
 6    1  0.8968082E-007  0.2459786E+04  0.7818608E-02  0.8417454E-01
         -2   -1    0    0    0  501 -0.00000000000E+00  0.00000000000E+00  0.12084772340E+04  0.12084772340E+04  0.00000000000E+00 0.  1.
          2   -1    0    0  501    0  0.00000000000E+00 -0.00000000000E+00 -0.12516884926E+04  0.12516884926E+04  0.00000000000E+00 0. -1.
         23    2    1    2    0    0 -0.47703919061E+03 -0.74511857011E+03  0.83036080782E+03  0.12168249737E+04  0.91628993638E+02 0.  0.
         11    1    3    3    0    0 -0.46200589483E+03 -0.68845986573E+03  0.75509812558E+03  0.11214274889E+04  0.00000000000E+00 0. -1.
        -11    1    3    3    0    0 -0.15033295777E+02 -0.56658704372E+02  0.75262682239E+02  0.95397484772E+02  0.00000000000E+00 0.  1.
         22    1    1    2    0    0  0.47703919061E+03  0.74511857011E+03 -0.87357206638E+03  0.12433407530E+04  0.00000000000E+00 0. -1.
<mgrwt>
<rscale>  0 0.24597862E+04</rscale>
<asrwt>0</asrwt>
<pdfrwt beam="1">  1        2 0.19256746E+00 0.24597862E+04</pdfrwt>
<pdfrwt beam="2">  1       -2 0.18591957E+00 0.24597862E+04</pdfrwt>
<totfact> 0.26080820E+00</totfact>
</mgrwt>
</event>
<event>
 6    1  0.8968082E-007  0.4359041E+04  0.7818608E-02  0.7935790E-01
          2   -1    0    0  501    0  0.00000000000E+00  0.00000000000E+00  0.20099819641E+04  0.20099819641E+04  0.00000000000E+00 0. -1.
         -2   -1    0    0    0  501 -0.00000000000E+00 -0.00000000000E+00 -0.23633598213E+04  0.23633598213E+04  0.00000000000E+00 0.  1.
         23    2    1    2    0    0 -0.55815835919E+02  0.20007045082E+04  0.68625392612E+03  0.21179553037E+04  0.94107812723E+02 0.  0.
         13    1    3    3    0    0 -0.36019690610E+02  0.14376471275E+04  0.44821320354E+03  0.15063272411E+04  0.00000000000E+00 0.  1.
        -13    1    3    3    0    0 -0.19796145309E+02  0.56305738071E+03  0.23804072257E+03  0.61162806259E+03  0.00000000000E+00 0. -1.
         22    1    1    2    0    0  0.55815835919E+02 -0.20007045082E+04 -0.10396317833E+04  0.22553864817E+04  0.00000000000E+00 0.  1.
<mgrwt>
<rscale>  0 0.43590415E+04</rscale>
<asrwt>0</asrwt>
<pdfrwt beam="1">  1        2 0.30922800E+00 0.43590415E+04</pdfrwt>
<pdfrwt beam="2">  1       -2 0.36359382E+00 0.43590415E+04</pdfrwt>
<totfact> 0.64484333E-02</totfact>
</mgrwt>
</event>
<event>
 6    1  0.8968082E-007  0.1510050E+04  0.7818608E-02  0.8877797E-01
          1   -1    0    0  501    0  0.00000000000E+00  0.00000000000E+00  0.71697775106E+03  0.71697775106E+03  0.00000000000E+00 0. -1.
         -1   -1    0    0    0  501 -0.00000000000E+00 -0.00000000000E+00 -0.79509139055E+03  0.79509139055E+03  0.00000000000E+00 0.  1.
         23    2    1    2    0    0  0.12036236436E+03  0.24683894024E+03 -0.74049482102E+03  0.79501587244E+03  0.91110352362E+02 0.  0.
         11    1    3    3    0    0  0.10453492082E+03  0.15052599348E+03 -0.38544555851E+03  0.42679491909E+03  0.00000000000E+00 0. -1.
        -11    1    3    3    0    0  0.15827443545E+02  0.96312946764E+02 -0.35504926250E+03  0.36822095335E+03  0.00000000000E+00 0.  1.
         22    1    1    2    0    0 -0.12036236436E+03 -0.24683894024E+03  0.66238118153E+03  0.71705326916E+03  0.00000000000E+00 0. -1.
<mgrwt>
<rscale>  0 0.15100501E+04</rscale>
<asrwt>0</asrwt>
<pdfrwt beam="1">  1        1 0.11030427E+00 0.15100501E+04</pdfrwt>
<pdfrwt beam="2">  1       -1 0.12232175E+00 0.15100501E+04</pdfrwt>
<totfact> 0.14995353E+01</totfact>
</mgrwt>
</event>
<event>
 6    1  0.9076539E-007  0.3735071E+04  0.7818608E-02  0.8060234E-01
         -1   -1    0    0    0  501 -0.00000000000E+00  0.00000000000E+00  0.13592579392E+04  0.13592579392E+04  0.00000000000E+00 0.  1.
          1   -1    0    0  501    0  0.00000000000E+00 -0.00000000000E+00 -0.25658764777E+04  0.25658764777E+04  0.00000000000E+00 0. -1.
         23    2    1    2    0    0 -0.12256596428E+04 -0.13573290480E+04 -0.21113109526E+03  0.18429291065E+04  0.85015573440E+02 0.  0.
         11    1    3    3    0    0 -0.82944564531E+03 -0.97667607278E+03 -0.14773197283E+03  0.12898453262E+04  0.00000000000E+00 0. -1.
        -11    1    3    3    0    0 -0.39621399749E+03 -0.38065297524E+03 -0.63399122423E+02  0.55308378036E+03  0.00000000000E+00 0.  1.
         22    1    1    2    0    0  0.12256596428E+04  0.13573290480E+04 -0.99548744322E+03  0.20822053103E+04  0.00000000000E+00 0.  1.
<mgrwt>
<rscale>  0 0.37350705E+04</rscale>
<asrwt>0</asrwt>
<pdfrwt beam="1">  1        1 0.39475022E+00 0.37350705E+04</pdfrwt>
<pdfrwt beam="2">  1       -1 0.20911661E+00 0.37350705E+04</pdfrwt>
<totfact> 0.12709791E-01</totfact>
</mgrwt>
</event>
<event>
 6    1  0.8968082E-007  0.6435914E+03  0.7818608E-02  0.9818879E-01
          1   -1    0    0  501    0  0.00000000000E+00  0.00000000000E+00  0.11671950989E+03  0.11671950989E+03  0.00000000000E+00 0. -1.
         -1   -1    0    0    0  501 -0.00000000000E+00 -0.00000000000E+00 -0.88719084622E+03  0.88719084622E+03  0.00000000000E+00 0.  1.
         23    2    1    2    0    0  0.82323655832E+02 -0.25111655999E+03 -0.65972145596E+03  0.71737545943E+03  0.97767271192E+02 0.  0.
         11    1    3    3    0    0  0.53041313495E+02 -0.51524229488E+02 -0.24964263588E+03  0.26036430787E+03  0.00000000000E+00 0.  1.
        -11    1    3    3    0    0  0.29282342337E+02 -0.19959233050E+03 -0.41007882008E+03  0.45701115156E+03  0.00000000000E+00 0. -1.
         22    1    1    2    0    0 -0.82323655832E+02  0.25111655999E+03 -0.11074988037E+03  0.28653489668E+03  0.00000000000E+00 0. -1.
<mgrwt>
<rscale>  0 0.64359143E+03</rscale>
<asrwt>0</asrwt>
<pdfrwt beam="1">  1        1 0.17956848E-01 0.64359143E+03</pdfrwt>
<pdfrwt beam="2">  1       -1 0.13649090E+00 0.64359143E+03</pdfrwt>
<totfact> 0.13839747E+02</totfact>
</mgrwt>
</event>
<event>
 6    1  0.8968082E-007  0.1042601E+04  0.7818608E-02  0.9263016E-01
          1   -1    0    0  501    0  0.00000000000E+00  0.00000000000E+00  0.46886399016E+03  0.46886399016E+03  0.00000000000E+00 0. -1.
         -1   -1    0    0    0  501 -0.00000000000E+00 -0.00000000000E+00 -0.57960179584E+03  0.57960179584E+03  0.00000000000E+00 0.  1.
         23    2    1    2    0    0 -0.47193649284E+03 -0.34857095451E+01 -0.26896356619E+03  0.55069917931E+03  0.90509572472E+02 0.  0.
         11    1    3    3    0    0 -0.30357078683E+03 -0.31351753335E+01 -0.22140126321E+03  0.37574402363E+03  0.00000000000E+00 0.  1.
        -11    1    3    3    0    0 -0.16836570601E+03 -0.35053421165E+00 -0.47562302977E+02  0.17495515568E+03  0.00000000000E+00 0. -1.
         22    1    1    2    0    0  0.47193649284E+03  0.34857095451E+01  0.15822576051E+03  0.49776660669E+03  0.00000000000E+00 0. -1.
<mgrwt>
<rscale>  0 0.10426014E+04</rscale>
<asrwt>0</asrwt>
<pdfrwt beam="1">  1        1 0.72132921E-01 0.10426014E+04</pdfrwt>
<pdfrwt beam="2">  1       -1 0.89169507E-01 0.10426014E+04</pdfrwt>
<totfact> 0.59739052E+01</totfact>
</mgrwt>
</event>
<event>
 6    1  0.9828356E-007  0.1905434E+04  0.7818608E-02  0.8652156E-01
         -1   -1    0    0    0  501 -0.00000000000E+00  0.00000000000E+00  0.49584348110E+03  0.49584348110E+03  0.00000000000E+00 0.  1.
          1   -1    0    0  501    0  0.00000000000E+00 -0.00000000000E+00 -0.18305560704E+04  0.18305560704E+04  0.00000000000E+00 0. -1.
         23    2    1    2    0    0 -0.29342618477E+03  0.20140647861E+01  0.43501925314E+03  0.53250608294E+03  0.90653159898E+02 0.  0.
         11    1    3    3    0    0 -0.20491283853E+03  0.42030514033E+02  0.27877681491E+03  0.34852883387E+03  0.00000000000E+00 0.  1.
        -11    1    3    3    0    0 -0.88513346241E+02 -0.40016449247E+02  0.15624243823E+03  0.18397724907E+03  0.00000000000E+00 0. -1.
         22    1    1    2    0    0  0.29342618477E+03 -0.20140647861E+01 -0.17697318424E+04  0.17938934685E+04  0.00000000000E+00 0. -1.
<mgrwt>
<rscale>  0 0.19054336E+04</rscale>
<asrwt>0</asrwt>
<pdfrwt beam="1">  1        1 0.28162401E+00 0.19054336E+04</pdfrwt>
<pdfrwt beam="2">  1       -1 0.76283613E-01 0.19054336E+04</pdfrwt>
<totfact> 0.62658774E+00</totfact>
</mgrwt>
</event>
<event>
 6    1  0.8968082E-007  0.3558090E+04  0.7818608E-02  0.8100160E-01
         -2   -1    0    0    0  501 -0.00000000000E+00  0.00000000000E+00  0.86792880958E+03  0.86792880958E+03  0.00000000000E+00 0.  1.
          2   -1    0    0  501    0  0.00000000000E+00 -0.00000000000E+00 -0.36466132407E+04  0.36466132407E+04  0.00000000000E+00 0. -1.
         23    2    1    2    0    0  0.13853782393E+04 -0.10415346445E+04 -0.18919967964E+04  0.25676773290E+04  0.96164994653E+02 0.  0.
         11    1    3    3    0    0  0.67475680358E+03 -0.47625730369E+03 -0.96213004822E+03  0.12679952654E+04  0.00000000000E+00 0.  1.
        -11    1    3    3    0    0  0.71062143570E+03 -0.56527734085E+03 -0.92986674823E+03  0.12996820636E+04  0.00000000000E+00 0. -1.
         22    1    1    2    0    0 -0.13853782393E+04  0.10415346445E+04 -0.88668763466E+03  0.19468647213E+04  0.00000000000E+00 0.  1.
<mgrwt>
<rscale>  0 0.35580898E+04</rscale>
<asrwt>0</asrwt>
<pdfrwt beam="1">  1        2 0.56101743E+00 0.35580898E+04</pdfrwt>
<pdfrwt beam="2">  1       -2 0.13352751E+00 0.35580898E+04</pdfrwt>
<totfact> 0.21154198E-01</totfact>
</mgrwt>
</event>
<event>
 6    1  0.8968082E-007  0.1123889E+04  0.7818608E-02  0.9182216E-01
          1   -1    0    0  501    0  0.00000000000E+00  0.00000000000E+00  0.29699016405E+03  0.29699016405E+03  0.00000000000E+00 0. -1.
         -1   -1    0    0    0  501 -0.00000000000E+00 -0.00000000000E+00 -0.10632725913E+04  0.10632725913E+04  0.00000000000E+00 0.  1.
         23    2    1    2    0    0 -0.32948497688E+03  0.44588764671E+03 -0.30480882251E+03  0.63892092835E+03  0.89080811226E+02 0.  0.
         13    1    3    3    0    0 -0.70891048794E+02  0.60368162712E+02 -0.81699103838E+02  0.12387332012E+03  0.00000000000E+00 0.  1.
        -13    1    3    3    0    0 -0.25859392809E+03  0.38551948400E+03 -0.22310971867E+03  0.51504760824E+03  0.00000000000E+00 0. -1.
         22    1    1    2    0    0  0.32948497688E+03 -0.44588764671E+03 -0.46147360472E+03  0.72134182697E+03  0.00000000000E+00 0. -1.
<mgrwt>
<rscale>  0 0.11238888E+04</rscale>
<asrwt>0</asrwt>
<pdfrwt beam="1">  1        1 0.45690794E-01 0.11238888E+04</pdfrwt>
<pdfrwt beam="2">  1       -1 0.16358040E+00 0.11238888E+04</pdfrwt>
<totfact> 0.24274913E+01</totfact>
</mgrwt>
</event>
<event>
 6    1  0.8968082E-007  0.2344965E+04  0.7818608E-02  0.8460400E-01
         -2   -1    0    0    0  501 -0.00000000000E+00  0.00000000000E+00  0.13055812588E+04  0.13055812588E+04  0.00000000000E+00 0.  1.
          2   -1    0    0  501    0  0.00000000000E+00 -0.00000000000E+00 -0.10529527283E+04  0.10529527283E+04  0.00000000000E+00 0. -1.
         23    2    1    2    0    0  0.27672560074E+03 -0.78813632488E+03  0.95156283551E+03  0.12693851968E+04  0.90172185993E+02 0.  0.
         13    1    3    3    0    0  0.10241240355E+03 -0.41753239725E+03  0.46142969279E+03  0.63066549338E+03  0.00000000000E+00 0.  1.
        -13    1    3    3    0    0  0.17431319719E+03 -0.37060392763E+03  0.49013314272E+03  0.63871970338E+03  0.00000000000E+00 0. -1.
         22    1    1    2    0    0 -0.27672560074E+03  0.78813632488E+03 -0.69893430504E+03  0.10891487903E+04  0.00000000000E+00 0. -1.
<mgrwt>
<rscale>  0 0.23449651E+04</rscale>
<asrwt>0</asrwt>
<pdfrwt beam="1">  1        2 0.16199273E+00 0.23449651E+04</pdfrwt>
<pdfrwt beam="2">  1       -2 0.20085866E+00 0.23449651E+04</pdfrwt>
<totfact> 0.27636340E+00</totfact>
</mgrwt>
</event>
<event>
 6    1  0.8968082E-007  0.1838451E+04  0.7818608E-02  0.8686115E-01
         -1   -1    0    0    0  501 -0.00000000000E+00  0.00000000000E+00  0.12083827152E+04  0.12083827152E+04  0.00000000000E+00 0.  1.
          1   -1    0    0  501    0  0.00000000000E+00 -0.00000000000E+00 -0.69926148820E+03  0.69926148820E+03  0.00000000000E+00 0. -1.
         23    2    1    2    0    0  0.91357097570E+03  0.43124681701E+02  0.20290547000E+03  0.94315482777E+03  0.10908131638E+03 0.  0.
         13    1    3    3    0    0  0.25601557257E+03 -0.20961230842E+02  0.94202506576E+02  0.27360091162E+03  0.00000000000E+00 0.  1.
        -13    1    3    3    0    0  0.65755540313E+03  0.64085912544E+02  0.10870296342E+03  0.66955391615E+03  0.00000000000E+00 0. -1.
         22    1    1    2    0    0 -0.91357097570E+03 -0.43124681701E+02  0.30621575696E+03  0.96448937559E+03  0.00000000000E+00 0. -1.
<mgrwt>
<rscale>  0 0.18384510E+04</rscale>
<asrwt>0</asrwt>
<pdfrwt beam="1">  1        1 0.10757869E+00 0.18384510E+04</pdfrwt>
<pdfrwt beam="2">  1       -1 0.18590503E+00 0.18384510E+04</pdfrwt>
<totfact> 0.48464167E+00</totfact>
</mgrwt>
</event>
<event>
 6    1  0.8968082E-007  0.1434337E+04  0.7818608E-02  0.8929332E-01
         -2   -1    0    0    0  501 -0.00000000000E+00  0.00000000000E+00  0.54816057878E+03  0.54816057878E+03  0.00000000000E+00 0.  1.
          2   -1    0    0  501    0  0.00000000000E+00 -0.00000000000E+00 -0.93828407096E+03  0.93828407096E+03  0.00000000000E+00 0. -1.
         23    2    1    2    0    0 -0.65863347616E+03 -0.27470285660E+03 -0.23017245251E+03  0.75511432053E+03  0.89210783202E+02 0.  0.
         11    1    3    3    0    0 -0.34372176298E+03 -0.99820019188E+02 -0.13504837383E+03  0.38255293732E+03  0.00000000000E+00 0.  1.
        -11    1    3    3    0    0 -0.31491171318E+03 -0.17488283741E+03 -0.95124078680E+02  0.37256138322E+03  0.00000000000E+00 0. -1.
         22    1    1    2    0    0  0.65863347616E+03  0.27470285660E+03 -0.15995103967E+03  0.73133032921E+03  0.00000000000E+00 0.  1.
<mgrwt>
<rscale>  0 0.14343366E+04</rscale>
<asrwt>0</asrwt>
<pdfrwt beam="1">  1        2 0.14435140E+00 0.14343366E+04</pdfrwt>
<pdfrwt beam="2">  1       -2 0.84332397E-01 0.14343366E+04</pdfrwt>
<totfact> 0.32928126E+01</totfact>
</mgrwt>
</event>
<event>
 6    1  0.8968082E-007  0.1318347E+04  0.7818608E-02  0.9015141E-01
          1   -1    0    0  501    0  0.00000000000E+00  0.00000000000E+00  0.31537171572E+04  0.31537171572E+04  0.00000000000E+00 0. -1.
         -1   -1    0    0    0  501 -0.00000000000E+00 -0.00000000000E+00 -0.13777699567E+03  0.13777699567E+03  0.00000000000E+00 0.  1.
         23    2    1    2    0    0  0.33492669731E+03 -0.44684682563E+03  0.65542206270E+03  0.86582029329E+03  0.90657166566E+02 0.  0.
         11    1    3    3    0    0  0.26895103523E+03 -0.38812750743E+03  0.59111504396E+03  0.75656765498E+03  0.00000000000E+00 0.  1.
        -11    1    3    3    0    0  0.65975662084E+02 -0.58719318202E+02  0.64307018743E+02  0.10925263831E+03  0.00000000000E+00 0. -1.
         22    1    1    2    0    0 -0.33492669731E+03  0.44684682563E+03  0.23605180988E+04  0.24256738596E+04  0.00000000000E+00 0. -1.
<mgrwt>
<rscale>  0 0.13183470E+04</rscale>
<asrwt>0</asrwt>
<pdfrwt beam="1">  1        1 0.48518720E+00 0.13183470E+04</pdfrwt>
<pdfrwt beam="2">  1       -1 0.21196463E-01 0.13183470E+04</pdfrwt>
<totfact> 0.84780064E+00</totfact>
</mgrwt>
</event>
<event>
 6    1  0.8968082E-007  0.1985604E+04  0.7818608E-02  0.8613381E-01
         -1   -1    0    0    0  501 -0.00000000000E+00  0.00000000000E+00  0.21570184383E+04  0.21570184383E+04  0.00000000000E+00 0.  1.
          1   -1    0    0  501    0  0.00000000000E+00 -0.00000000000E+00 -0.45695286805E+03  0.45695286805E+03  0.00000000000E+00 0. -1.
         23    2    1    2    0    0  0.61809920381E+03 -0.57111807294E+03  0.16359392761E+03  0.86212439875E+03  0.90956180591E+02 0.  0.
         13    1    3    3    0    0  0.20284725375E+03 -0.14806501168E+03  0.79324372810E+02  0.26336782674E+03  0.00000000000E+00 0.  1.
        -13    1    3    3    0    0  0.41525195007E+03 -0.42305306125E+03  0.84269554795E+02  0.59875657202E+03  0.00000000000E+00 0. -1.
         22    1    1    2    0    0 -0.61809920381E+03  0.57111807294E+03  0.15364716427E+04  0.17518469076E+04  0.00000000000E+00 0.  1.
<mgrwt>
<rscale>  0 0.19856040E+04</rscale>
<asrwt>0</asrwt>
<pdfrwt beam="1">  1        1 0.70300443E-01 0.19856040E+04</pdfrwt>
<pdfrwt beam="2">  1       -1 0.33184898E+00 0.19856040E+04</pdfrwt>
<totfact> 0.95475814E-01</totfact>
</mgrwt>
</event>
<event>
 6    1  0.8968082E-007  0.2888517E+04  0.7818608E-02  0.8276302E-01
          1   -1    0    0  501    0  0.00000000000E+00  0.00000000000E+00  0.16760693463E+04  0.16760693463E+04  0.00000000000E+00 0. -1.
         -1   -1    0    0    0  501 -0.00000000000E+00 -0.00000000000E+00 -0.12445087114E+04  0.12445087114E+04  0.00000000000E+00 0.  1.
         23    2    1    2    0    0  0.12366174098E+04 -0.74147961620E+03  0.26970933957E+03  0.14696437100E+04  0.89971479818E+02 0.  0.
         11    1    3    3    0    0  0.71604405249E+03 -0.40714965423E+03  0.19491489191E+03  0.84645244470E+03  0.00000000000E+00 0. -1.
        -11    1    3    3    0    0  0.52057335729E+03 -0.33432996198E+03  0.74794447657E+02  0.62319126534E+03  0.00000000000E+00 0.  1.
         22    1    1    2    0    0 -0.12366174098E+04  0.74147961620E+03  0.16185129536E+03  0.14509343477E+04  0.00000000000E+00 0.  1.
<mgrwt>
<rscale>  0 0.28885172E+04</rscale>
<asrwt>0</asrwt>
<pdfrwt beam="1">  1        1 0.25785682E+00 0.28885172E+04</pdfrwt>
<pdfrwt beam="2">  1       -1 0.19146288E+00 0.28885172E+04</pdfrwt>
<totfact> 0.73382779E-01</totfact>
</mgrwt>
</event>
<event>
 6    1  0.8968082E-007  0.3118380E+04  0.7818608E-02  0.8210712E-01
         -2   -1    0    0    0  501 -0.00000000000E+00  0.00000000000E+00  0.82199825055E+03  0.82199825055E+03  0.00000000000E+00 0.  1.
          2   -1    0    0  501    0  0.00000000000E+00 -0.00000000000E+00 -0.29575163088E+04  0.29575163088E+04  0.00000000000E+00 0. -1.
         23    2    1    2    0    0  0.10265153991E+04  0.95023502443E+02  0.34691781568E+03  0.10915318215E+04  0.91249196506E+02 0.  0.
         11    1    3    3    0    0  0.23397147527E+03  0.27843621767E+02  0.40048910248E+02  0.23900174419E+03  0.00000000000E+00 0.  1.
        -11    1    3    3    0    0  0.79254392388E+03  0.67179880676E+02  0.30686890543E+03  0.85253007734E+03  0.00000000000E+00 0. -1.
         22    1    1    2    0    0 -0.10265153991E+04 -0.95023502443E+02 -0.24824358739E+04  0.26879827378E+04  0.00000000000E+00 0. -1.
<mgrwt>
<rscale>  0 0.31183799E+04</rscale>
<asrwt>0</asrwt>
<pdfrwt beam="1">  1        2 0.45500250E+00 0.31183799E+04</pdfrwt>
<pdfrwt beam="2">  1       -2 0.12646127E+00 0.31183799E+04</pdfrwt>
<totfact> 0.73020101E-01</totfact>
</mgrwt>
</event>
<event>
 6    1  0.8968082E-007  0.1711998E+04  0.7818608E-02  0.8754551E-01
          2   -1    0    0  501    0  0.00000000000E+00  0.00000000000E+00  0.10464192873E+04  0.10464192873E+04  0.00000000000E+00 0. -1.
         -2   -1    0    0    0  501 -0.00000000000E+00 -0.00000000000E+00 -0.70022998164E+03  0.70022998164E+03  0.00000000000E+00 0.  1.
         23    2    1    2    0    0 -0.65997797050E+03 -0.50338701829E+03  0.37650384848E+03  0.91605407077E+03  0.91817759271E+02 0.  0.
         13    1    3    3    0    0 -0.43796276143E+03 -0.33421751499E+03  0.20153312075E+03  0.58662451916E+03  0.00000000000E+00 0.  1.
        -13    1    3    3    0    0 -0.22201520907E+03 -0.16916950330E+03  0.17497072774E+03  0.32942955161E+03  0.00000000000E+00 0. -1.
         22    1    1    2    0    0  0.65997797050E+03  0.50338701829E+03 -0.30314542817E+02  0.83059519818E+03  0.00000000000E+00 0. -1.
<mgrwt>
<rscale>  0 0.17119978E+04</rscale>
<asrwt>0</asrwt>
<pdfrwt beam="1">  1        2 0.16098758E+00 0.17119978E+04</pdfrwt>
<pdfrwt beam="2">  1       -2 0.10772769E+00 0.17119978E+04</pdfrwt>
<totfact> 0.15460695E+01</totfact>
</mgrwt>
</event>
<event>
 6    1  0.8968082E-007  0.3671494E+04  0.7818608E-02  0.8074309E-01
         -1   -1    0    0    0  501 -0.00000000000E+00  0.00000000000E+00  0.17263106674E+04  0.17263106674E+04  0.00000000000E+00 0.  1.
          1   -1    0    0  501    0  0.00000000000E+00 -0.00000000000E+00 -0.19521205993E+04  0.19521205993E+04  0.00000000000E+00 0. -1.
         23    2    1    2    0    0 -0.89406144217E+03 -0.10164253266E+04 -0.13536598771E+04  0.19164687796E+04  0.89393588126E+02 0.  0.
         13    1    3    3    0    0 -0.24188596227E+03 -0.32699538951E+03 -0.37493355331E+03  0.55318168164E+03  0.00000000000E+00 0. -1.
        -13    1    3    3    0    0 -0.65217547990E+03 -0.68942993708E+03 -0.97872632378E+03  0.13632870980E+04  0.00000000000E+00 0.  1.
         22    1    1    2    0    0  0.89406144217E+03  0.10164253266E+04  0.11278499452E+04  0.17619624870E+04  0.00000000000E+00 0.  1.
<mgrwt>
<rscale>  0 0.36714938E+04</rscale>
<asrwt>0</asrwt>
<pdfrwt beam="1">  1        1 0.30032625E+00 0.36714938E+04</pdfrwt>
<pdfrwt beam="2">  1       -1 0.26558626E+00 0.36714938E+04</pdfrwt>
<totfact> 0.14256162E-01</totfact>
</mgrwt>
</event>
<event>
 6    1  0.8968082E-007  0.3850214E+04  0.7818608E-02  0.8035464E-01
         -1   -1    0    0    0  501 -0.00000000000E+00  0.00000000000E+00  0.12509003798E+04  0.12509003798E+04  0.00000000000E+00 0.  1.
          1   -1    0    0  501    0  0.00000000000E+00 -0.00000000000E+00 -0.29626961583E+04  0.29626961583E+04  0.00000000000E+00 0. -1.
         23    2    1    2    0    0  0.39371744577E+03 -0.18700640251E+04 -0.61003425426E+03  0.20076882577E+04  0.80730811242E+02 0.  0.
         11    1    3    3    0    0  0.29376822700E+03 -0.12721438500E+04 -0.44556731044E+03  0.13795578910E+04  0.00000000000E+00 0.  1.
        -11    1    3    3    0    0  0.99949218768E+02 -0.59792017504E+03 -0.16446694382E+03  0.62813036678E+03  0.00000000000E+00 0. -1.
         22    1    1    2    0    0 -0.39371744577E+03  0.18700640251E+04 -0.11017615242E+04  0.22059082803E+04  0.00000000000E+00 0.  1.
<mgrwt>
<rscale>  0 0.38502144E+04</rscale>
<asrwt>0</asrwt>
<pdfrwt beam="1">  1        1 0.45579941E+00 0.38502144E+04</pdfrwt>
<pdfrwt beam="2">  1       -1 0.19244621E+00 0.38502144E+04</pdfrwt>
<totfact> 0.85597577E-02</totfact>
</mgrwt>
</event>
<event>
 6    1  0.8968082E-007  0.2031784E+04  0.7818608E-02  0.8591903E-01
          2   -1    0    0  501    0  0.00000000000E+00  0.00000000000E+00  0.76755812775E+03  0.76755812775E+03  0.00000000000E+00 0. -1.
         -2   -1    0    0    0  501 -0.00000000000E+00 -0.00000000000E+00 -0.13445706413E+04  0.13445706413E+04  0.00000000000E+00 0.  1.
         23    2    1    2    0    0  0.37914975348E+03  0.58106805388E+02 -0.12646734210E+04  0.13247226096E+04  0.91434096918E+02 0.  0.
         13    1    3    3    0    0  0.19724578436E+03  0.73879964109E+02 -0.62765940038E+03  0.66205775536E+03  0.00000000000E+00 0. -1.
        -13    1    3    3    0    0  0.18190396912E+03 -0.15773158721E+02 -0.63701402064E+03  0.66266485421E+03  0.00000000000E+00 0.  1.
         22    1    1    2    0    0 -0.37914975348E+03 -0.58106805388E+02  0.68766090744E+03  0.78740615950E+03  0.00000000000E+00 0. -1.
<mgrwt>
<rscale>  0 0.20317836E+04</rscale>
<asrwt>0</asrwt>
<pdfrwt beam="1">  1        2 0.11808587E+00 0.20317836E+04</pdfrwt>
<pdfrwt beam="2">  1       -2 0.20685702E+00 0.20317836E+04</pdfrwt>
<totfact> 0.40432989E+00</totfact>
</mgrwt>
</event>
<event>
 6    1  0.8968082E-007  0.2374211E+04  0.7818608E-02  0.8449222E-01
          1   -1    0    0  501    0  0.00000000000E+00  0.00000000000E+00  0.78132968957E+03  0.78132968957E+03  0.00000000000E+00 0. -1.
         -1   -1    0    0    0  501 -0.00000000000E+00 -0.00000000000E+00 -0.18036176713E+04  0.18036176713E+04  0.00000000000E+00 0.  1.
         23    2    1    2    0    0 -0.10990227421E+04 -0.14121002702E+03 -0.97034581610E+03  0.14756731622E+04  0.90824112308E+02 0.  0.
         11    1    3    3    0    0 -0.80151305570E+03 -0.12716023326E+03 -0.66593820275E+03  0.10497935956E+04  0.00000000000E+00 0. -1.
        -11    1    3    3    0    0 -0.29750968639E+03 -0.14049793762E+02 -0.30440761336E+03  0.42587956663E+03  0.00000000000E+00 0.  1.
         22    1    1    2    0    0  0.10990227421E+04  0.14121002702E+03 -0.51942165665E+02  0.11092741987E+04  0.00000000000E+00 0. -1.
<mgrwt>
<rscale>  0 0.23742115E+04</rscale>
<asrwt>0</asrwt>
<pdfrwt beam="1">  1        1 0.12020457E+00 0.23742115E+04</pdfrwt>
<pdfrwt beam="2">  1       -1 0.27747964E+00 0.23742115E+04</pdfrwt>
<totfact> 0.95301229E-01</totfact>
</mgrwt>
</event>
<event>
 6    1  0.8968082E-007  0.7902980E+03  0.7818608E-02  0.9574168E-01
          2   -1    0    0  501    0  0.00000000000E+00  0.00000000000E+00  0.39970660715E+03  0.39970660715E+03  0.00000000000E+00 0. -1.
         -2   -1    0    0    0  501 -0.00000000000E+00 -0.00000000000E+00 -0.39064333426E+03  0.39064333426E+03  0.00000000000E+00 0.  1.
         23    2    1    2    0    0  0.23617119812E+03  0.66737266814E+02 -0.29794678907E+03  0.39730302850E+03  0.94056949428E+02 0.  0.
         11    1    3    3    0    0  0.19822192023E+03  0.87118285644E+02 -0.22275513937E+03  0.31064670845E+03  0.00000000000E+00 0.  1.
        -11    1    3    3    0    0  0.37949277895E+02 -0.20381018830E+02 -0.75191649699E+02  0.86656320056E+02  0.00000000000E+00 0. -1.
         22    1    1    2    0    0 -0.23617119812E+03 -0.66737266814E+02  0.30701006195E+03  0.39304691291E+03  0.00000000000E+00 0. -1.
<mgrwt>
<rscale>  0 0.79029797E+03</rscale>
<asrwt>0</asrwt>
<pdfrwt beam="1">  1        2 0.61493324E-01 0.79029797E+03</pdfrwt>
<pdfrwt beam="2">  1       -2 0.60098974E-01 0.79029797E+03</pdfrwt>
<totfact> 0.20702891E+02</totfact>
</mgrwt>
</event>
<event>
 6    1  0.8968082E-007  0.2481981E+04  0.7818608E-02  0.8409433E-01
         -2   -1    0    0    0  501 -0.00000000000E+00  0.00000000000E+00  0.73210693792E+03  0.73210693792E+03  0.00000000000E+00 0.  1.
          2   -1    0    0  501    0  0.00000000000E+00 -0.00000000000E+00 -0.21035962975E+04  0.21035962975E+04  0.00000000000E+00 0. -1.
         23    2    1    2    0    0  0.95206438792E+03  0.22827836178E+03 -0.15548188202E+04  0.18396373237E+04  0.90919249080E+02 0.  0.
         13    1    3    3    0    0  0.43522521425E+03  0.13468595619E+03 -0.78691046163E+03  0.90927958766E+03  0.00000000000E+00 0. -1.
        -13    1    3    3    0    0  0.51683917367E+03  0.93592405592E+02 -0.76790835860E+03  0.93035773606E+03  0.00000000000E+00 0.  1.
         22    1    1    2    0    0 -0.95206438792E+03 -0.22827836178E+03  0.18332946070E+03  0.99606591166E+03  0.00000000000E+00 0.  1.
<mgrwt>
<rscale>  0 0.24819810E+04</rscale>
<asrwt>0</asrwt>
<pdfrwt beam="1">  1        2 0.32363020E+00 0.24819810E+04</pdfrwt>
<pdfrwt beam="2">  1       -2 0.11263184E+00 0.24819810E+04</pdfrwt>
<totfact> 0.32405151E+00</totfact>
</mgrwt>
</event>
<event>
 6    1  0.8968082E-007  0.1596250E+04  0.7818608E-02  0.8822855E-01
         -1   -1    0    0    0  501 -0.00000000000E+00  0.00000000000E+00  0.19464979832E+03  0.19464979832E+03  0.00000000000E+00 0.  1.
          1   -1    0    0  501    0  0.00000000000E+00 -0.00000000000E+00 -0.32725631094E+04  0.32725631094E+04  0.00000000000E+00 0. -1.
         23    2    1    2    0    0 -0.31957547099E+03 -0.50933042049E+03 -0.26751579262E+04  0.27435017368E+04  0.93733083329E+02 0.  0.
         11    1    3    3    0    0 -0.29918054394E+03 -0.42644984780E+03 -0.23739886038E+04  0.24304712221E+04  0.00000000000E+00 0. -1.
        -11    1    3    3    0    0 -0.20394927046E+02 -0.82880572688E+02 -0.30116932237E+03  0.31303051467E+03  0.00000000000E+00 0.  1.
         22    1    1    2    0    0  0.31957547099E+03  0.50933042049E+03 -0.40275538497E+03  0.72371117099E+03  0.00000000000E+00 0.  1.
<mgrwt>
<rscale>  0 0.15962503E+04</rscale>
<asrwt>0</asrwt>
<pdfrwt beam="1">  1        1 0.50347124E+00 0.15962503E+04</pdfrwt>
<pdfrwt beam="2">  1       -1 0.29946123E-01 0.15962503E+04</pdfrwt>
<totfact> 0.37087235E+00</totfact>
</mgrwt>
</event>
<event>
 6    1  0.8968082E-007  0.7648437E+03  0.7818608E-02  0.9612346E-01
         -2   -1    0    0    0  501 -0.00000000000E+00  0.00000000000E+00  0.90821604395E+02  0.90821604395E+02  0.00000000000E+00 0.  1.
          2   -1    0    0  501    0  0.00000000000E+00 -0.00000000000E+00 -0.16102608816E+04  0.16102608816E+04  0.00000000000E+00 0. -1.
         23    2    1    2    0    0 -0.78015889927E+02  0.36835983746E+03 -0.72902004092E+03  0.82556091686E+03  0.91132642070E+02 0.  0.
         11    1    3    3    0    0 -0.52160585520E+02  0.32793912909E+03 -0.68116599843E+03  0.75779411220E+03  0.00000000000E+00 0. -1.
        -11    1    3    3    0    0 -0.25855304407E+02  0.40420708370E+02 -0.47854042490E+02  0.67766804659E+02  0.00000000000E+00 0.  1.
         22    1    1    2    0    0  0.78015889927E+02 -0.36835983746E+03 -0.79041923630E+03  0.87552156915E+03  0.00000000000E+00 0.  1.
<mgrwt>
<rscale>  0 0.76484371E+03</rscale>
<asrwt>0</asrwt>
<pdfrwt beam="1">  1        2 0.24773243E+00 0.76484371E+03</pdfrwt>
<pdfrwt beam="2">  1       -2 0.13972555E-01 0.76484371E+03</pdfrwt>
<totfact> 0.44055810E+02</totfact>
</mgrwt>
</event>
<event>
 6    1  0.8968082E-007  0.2605240E+04  0.7818608E-02  0.8366424E-01
          2   -1    0    0  501    0  0.00000000000E+00  0.00000000000E+00  0.22190799334E+04  0.22190799334E+04  0.00000000000E+00 0. -1.
         -2   -1    0    0    0  501 -0.00000000000E+00 -0.00000000000E+00 -0.76464953147E+03  0.76464953147E+03  0.00000000000E+00 0.  1.
         23    2    1    2    0    0  0.58972416978E+03 -0.28766441614E+03 -0.55853195943E+03  0.86652780207E+03  0.91580944106E+02 0.  0.
         11    1    3    3    0    0  0.30579296550E+03 -0.18928424162E+03 -0.26758695333E+03  0.44826402875E+03  0.00000000000E+00 0. -1.
        -11    1    3    3    0    0  0.28393120429E+03 -0.98380174513E+02 -0.29094500609E+03  0.41826377332E+03  0.00000000000E+00 0.  1.
         22    1    1    2    0    0 -0.58972416978E+03  0.28766441614E+03  0.20129623613E+04  0.21172016628E+04  0.00000000000E+00 0. -1.
<mgrwt>
<rscale>  0 0.26052397E+04</rscale>
<asrwt>0</asrwt>
<pdfrwt beam="1">  1        2 0.34139691E+00 0.26052397E+04</pdfrwt>
<pdfrwt beam="2">  1       -2 0.11763839E+00 0.26052397E+04</pdfrwt>
<totfact> 0.24841644E+00</totfact>
</mgrwt>
</event>
<event>
 6    1  0.8968082E-007  0.1243987E+04  0.7818608E-02  0.9075203E-01
          2   -1    0    0  501    0  0.00000000000E+00  0.00000000000E+00  0.16632757988E+04  0.16632757988E+04  0.00000000000E+00 0. -1.
         -2   -1    0    0    0  501 -0.00000000000E+00 -0.00000000000E+00 -0.23259881410E+03  0.23259881410E+03  0.00000000000E+00 0.  1.
         23    2    1    2    0    0  0.24983742015E+03  0.74598900436E+02  0.15741767403E+04  0.15982575563E+04  0.91711908848E+02 0.  0.
         11    1    3    3    0    0  0.18856513893E+03  0.14722320582E+02  0.11593178402E+04  0.11746452286E+04  0.00000000000E+00 0.  1.
        -11    1    3    3    0    0  0.61272281224E+02  0.59876579853E+02  0.41485890009E+03  0.42361232778E+03  0.00000000000E+00 0. -1.
         22    1    1    2    0    0 -0.24983742015E+03 -0.74598900436E+02 -0.14349975565E+03  0.29761705651E+03  0.00000000000E+00 0.  1.
<mgrwt>
<rscale>  0 0.12439871E+04</rscale>
<asrwt>0</asrwt>
<pdfrwt beam="1">  1        2 0.25588858E+00 0.12439871E+04</pdfrwt>
<pdfrwt beam="2">  1       -2 0.35784434E-01 0.12439871E+04</pdfrwt>
<totfact> 0.74238833E+01</totfact>
</mgrwt>
</event>
<event>
 6    1  0.8968082E-007  0.3480763E+04  0.7818608E-02  0.8118364E-01
         -1   -1    0    0    0  501 -0.00000000000E+00  0.00000000000E+00  0.16991910260E+04  0.16991910260E+04  0.00000000000E+00 0.  1.
          1   -1    0    0  501    0  0.00000000000E+00 -0.00000000000E+00 -0.17825701972E+04  0.17825701972E+04  0.00000000000E+00 0. -1.
         23    2    1    2    0    0  0.13410008292E+04  0.76394518144E+02 -0.11468030339E+04  0.17685800716E+04  0.92730388779E+02 0.  0.
         11    1    3    3    0    0  0.97677821223E+03  0.38103166377E+02 -0.78409455212E+03  0.12531367818E+04  0.00000000000E+00 0.  1.
        -11    1    3    3    0    0  0.36422261693E+03  0.38291351767E+02 -0.36270848178E+03  0.51544328986E+03  0.00000000000E+00 0. -1.
         22    1    1    2    0    0 -0.13410008292E+04 -0.76394518144E+02  0.10634238628E+04  0.17131811516E+04  0.00000000000E+00 0.  1.
<mgrwt>
<rscale>  0 0.34807627E+04</rscale>
<asrwt>0</asrwt>
<pdfrwt beam="1">  1        1 0.27424157E+00 0.34807627E+04</pdfrwt>
<pdfrwt beam="2">  1       -1 0.26141401E+00 0.34807627E+04</pdfrwt>
<totfact> 0.20098672E-01</totfact>
</mgrwt>
</event>
<event>
 6    1  0.8968082E-007  0.9349120E+03  0.7818608E-02  0.9382962E-01
          2   -1    0    0  501    0  0.00000000000E+00  0.00000000000E+00  0.17793890463E+04  0.17793890463E+04  0.00000000000E+00 0. -1.
         -2   -1    0    0    0  501 -0.00000000000E+00 -0.00000000000E+00 -0.12280346058E+03  0.12280346058E+03  0.00000000000E+00 0.  1.
         23    2    1    2    0    0 -0.25477787480E+03  0.31468967000E+03  0.12927002192E+04  0.13578085304E+04  0.92891305278E+02 0.  0.
         11    1    3    3    0    0 -0.18765739237E+03  0.18717225274E+03  0.71929104789E+03  0.76656921454E+03  0.00000000000E+00 0. -1.
        -11    1    3    3    0    0 -0.67120482427E+02  0.12751741725E+03  0.57340917132E+03  0.59123931586E+03  0.00000000000E+00 0.  1.
         22    1    1    2    0    0  0.25477787480E+03 -0.31468967000E+03  0.36388536652E+03  0.54438397649E+03  0.00000000000E+00 0.  1.
<mgrwt>
<rscale>  0 0.93491204E+03</rscale>
<asrwt>0</asrwt>
<pdfrwt beam="1">  1        2 0.27375214E+00 0.93491204E+03</pdfrwt>
<pdfrwt beam="2">  1       -2 0.18892841E-01 0.93491204E+03</pdfrwt>
<totfact> 0.20999727E+02</totfact>
</mgrwt>
</event>
<event>
 6    1  0.8968082E-007  0.6966482E+03  0.7818608E-02  0.9722981E-01
          1   -1    0    0  501    0  0.00000000000E+00  0.00000000000E+00  0.14441477102E+04  0.14441477102E+04  0.00000000000E+00 0. -1.
         -1   -1    0    0    0  501 -0.00000000000E+00 -0.00000000000E+00 -0.84014732848E+02  0.84014732848E+02  0.00000000000E+00 0.  1.
         23    2    1    2    0    0 -0.29676594381E+03 -0.72393106258E+02  0.10303539090E+04  0.10786460127E+04  0.92397270885E+02 0.  0.
         11    1    3    3    0    0 -0.10623776791E+03 -0.47322077809E+02  0.53109139888E+03  0.54367629739E+03  0.00000000000E+00 0. -1.
        -11    1    3    3    0    0 -0.19052817590E+03 -0.25071028450E+02  0.49926251008E+03  0.53496971526E+03  0.00000000000E+00 0.  1.
         22    1    1    2    0    0  0.29676594381E+03  0.72393106258E+02  0.32977906836E+03  0.44951643037E+03  0.00000000000E+00 0.  1.
<mgrwt>
<rscale>  0 0.69664822E+03</rscale>
<asrwt>0</asrwt>
<pdfrwt beam="1">  1        1 0.22217655E+00 0.69664822E+03</pdfrwt>
<pdfrwt beam="2">  1       -1 0.12925345E-01 0.69664822E+03</pdfrwt>
<totfact> 0.30569883E+02</totfact>
</mgrwt>
</event>
<event>
 6    1  0.8968082E-007  0.1819241E+04  0.7818608E-02  0.8696134E-01
          2   -1    0    0  501    0  0.00000000000E+00  0.00000000000E+00  0.57814545699E+03  0.57814545699E+03  0.00000000000E+00 0. -1.
         -2   -1    0    0    0  501 -0.00000000000E+00 -0.00000000000E+00 -0.14311435923E+04  0.14311435923E+04  0.00000000000E+00 0.  1.
         23    2    1    2    0    0  0.84023095108E+03 -0.24701419946E+03 -0.16751789016E+03  0.89713472888E+03  0.98916188533E+02 0.  0.
         11    1    3    3    0    0  0.19351585022E+03 -0.99411492493E+02 -0.28999797769E+02  0.21948124612E+03  0.00000000000E+00 0. -1.
        -11    1    3    3    0    0  0.64671510086E+03 -0.14760270696E+03 -0.13851809239E+03  0.67765348276E+03  0.00000000000E+00 0.  1.
         22    1    1    2    0    0 -0.84023095108E+03  0.24701419946E+03 -0.68548024511E+03  0.11121543204E+04  0.00000000000E+00 0. -1.
<mgrwt>
<rscale>  0 0.18192407E+04</rscale>
<asrwt>0</asrwt>
<pdfrwt beam="1">  1        2 0.88945457E-01 0.18192407E+04</pdfrwt>
<pdfrwt beam="2">  1       -2 0.22017593E+00 0.18192407E+04</pdfrwt>
<totfact> 0.48165344E+00</totfact>
</mgrwt>
</event>
<event>
 6    1  0.8968082E-007  0.1456432E+04  0.7818608E-02  0.8913954E-01
         -1   -1    0    0    0  501 -0.00000000000E+00  0.00000000000E+00  0.19061882118E+03  0.19061882118E+03  0.00000000000E+00 0.  1.
          1   -1    0    0  501    0  0.00000000000E+00 -0.00000000000E+00 -0.27819838948E+04  0.27819838948E+04  0.00000000000E+00 0. -1.
         23    2    1    2    0    0 -0.27885768724E+03  0.48637327944E+03 -0.22403944443E+04  0.23111641631E+04  0.88271998300E+02 0.  0.
         13    1    3    3    0    0 -0.19859653949E+03  0.38158301446E+03 -0.15680205815E+04  0.16259565574E+04  0.00000000000E+00 0. -1.
        -13    1    3    3    0    0 -0.80261147748E+02  0.10479026498E+03 -0.67237386280E+03  0.68520760566E+03  0.00000000000E+00 0.  1.
         22    1    1    2    0    0  0.27885768724E+03 -0.48637327944E+03 -0.35097062931E+03  0.66143855295E+03  0.00000000000E+00 0.  1.
<mgrwt>
<rscale>  0 0.14564319E+04</rscale>
<asrwt>0</asrwt>
<pdfrwt beam="1">  1        1 0.42799753E+00 0.14564319E+04</pdfrwt>
<pdfrwt beam="2">  1       -1 0.29325972E-01 0.14564319E+04</pdfrwt>
<totfact> 0.88930382E+00</totfact>
</mgrwt>
</event>
<event>
 6    1  0.8968082E-007  0.1908671E+04  0.7818608E-02  0.8650552E-01
         -1   -1    0    0    0  501 -0.00000000000E+00  0.00000000000E+00  0.11592843793E+04  0.11592843793E+04  0.00000000000E+00 0.  1.
          1   -1    0    0  501    0  0.00000000000E+00 -0.00000000000E+00 -0.78561953566E+03  0.78561953566E+03  0.00000000000E+00 0. -1.
         23    2    1    2    0    0 -0.13745856133E+03 -0.33959166161E+03  0.10833365484E+04  0.11462479933E+04  0.77775525359E+02 0.  0.
         11    1    3    3    0    0 -0.67111887107E+02 -0.74906665320E+02  0.28094687386E+03  0.29840603183E+03  0.00000000000E+00 0. -1.
        -11    1    3    3    0    0 -0.70346674224E+02 -0.26468499629E+03  0.80238967453E+03  0.84784196147E+03  0.00000000000E+00 0.  1.
         22    1    1    2    0    0  0.13745856133E+03  0.33959166161E+03 -0.70967170474E+03  0.79865592168E+03  0.00000000000E+00 0. -1.
<mgrwt>
<rscale>  0 0.19086712E+04</rscale>
<asrwt>0</asrwt>
<pdfrwt beam="1">  1        1 0.12086454E+00 0.19086712E+04</pdfrwt>
<pdfrwt beam="2">  1       -1 0.17835144E+00 0.19086712E+04</pdfrwt>
<totfact> 0.45512020E+00</totfact>
</mgrwt>
</event>
<event>
 6    1  0.8968082E-007  0.1960528E+04  0.7818608E-02  0.8625301E-01
         -2   -1    0    0    0  501 -0.00000000000E+00  0.00000000000E+00  0.30650207271E+03  0.30650207271E+03  0.00000000000E+00 0.  1.
          2   -1    0    0  501    0  0.00000000000E+00 -0.00000000000E+00 -0.31351079083E+04  0.31351079083E+04  0.00000000000E+00 0. -1.
         23    2    1    2    0    0  0.41955752365E+03 -0.86065337570E+03 -0.10647680793E+04  0.14346529862E+04  0.88007835872E+02 0.  0.
         11    1    3    3    0    0  0.17307370468E+03 -0.45276112916E+03 -0.55197709544E+03  0.73459230953E+03  0.00000000000E+00 0.  1.
        -11    1    3    3    0    0  0.24648381897E+03 -0.40789224655E+03 -0.51279098389E+03  0.70006067663E+03  0.00000000000E+00 0. -1.
         22    1    1    2    0    0 -0.41955752365E+03  0.86065337570E+03 -0.17638377563E+04  0.20069569949E+04  0.00000000000E+00 0.  1.
<mgrwt>
<rscale>  0 0.19605276E+04</rscale>
<asrwt>0</asrwt>
<pdfrwt beam="1">  1        2 0.48232428E+00 0.19605276E+04</pdfrwt>
<pdfrwt beam="2">  1       -2 0.47154166E-01 0.19605276E+04</pdfrwt>
<totfact> 0.56958898E+00</totfact>
</mgrwt>
</event>
<event>
 6    1  0.8968082E-007  0.4595881E+04  0.7818608E-02  0.7894062E-01
         -2   -1    0    0    0  501 -0.00000000000E+00  0.00000000000E+00  0.22511815038E+04  0.22511815038E+04  0.00000000000E+00 0.  1.
          2   -1    0    0  501    0  0.00000000000E+00 -0.00000000000E+00 -0.23456711906E+04  0.23456711906E+04  0.00000000000E+00 0. -1.
         23    2    1    2    0    0  0.11740818601E+03  0.21456260549E+04 -0.85924320367E+03  0.23159879919E+04  0.89474274348E+02 0.  0.
         13    1    3    3    0    0  0.94644460394E+02  0.11193642854E+04 -0.48100545286E+03  0.12220066379E+04  0.00000000000E+00 0. -1.
        -13    1    3    3    0    0  0.22763725618E+02  0.10262617695E+04 -0.37823775081E+03  0.10939813540E+04  0.00000000000E+00 0.  1.
         22    1    1    2    0    0 -0.11740818601E+03 -0.21456260549E+04  0.76475351683E+03  0.22808647025E+04  0.00000000000E+00 0.  1.
<mgrwt>
<rscale>  0 0.45958815E+04</rscale>
<asrwt>0</asrwt>
<pdfrwt beam="1">  1        2 0.36087249E+00 0.45958815E+04</pdfrwt>
<pdfrwt beam="2">  1       -2 0.34633561E+00 0.45958815E+04</pdfrwt>
<totfact> 0.52680355E-02</totfact>
</mgrwt>
</event>
<event>
 6    1  0.8968082E-007  0.1208237E+04  0.7818608E-02  0.9105677E-01
          1   -1    0    0  501    0  0.00000000000E+00  0.00000000000E+00  0.18524818881E+04  0.18524818881E+04  0.00000000000E+00 0. -1.
         -1   -1    0    0    0  501 -0.00000000000E+00 -0.00000000000E+00 -0.19701104871E+03  0.19701104871E+03  0.00000000000E+00 0.  1.
         23    2    1    2    0    0  0.47396730923E+03 -0.23898571392E+03  0.13093842964E+04  0.14158249820E+04  0.91180931950E+02 0.  0.
         13    1    3    3    0    0  0.36280504358E+03 -0.16833664926E+03  0.87852076990E+03  0.96527895983E+03  0.00000000000E+00 0. -1.
        -13    1    3    3    0    0  0.11116226565E+03 -0.70649064669E+02  0.43086352650E+03  0.45054602219E+03  0.00000000000E+00 0.  1.
         22    1    1    2    0    0 -0.47396730923E+03  0.23898571392E+03  0.34608654298E+03  0.63366795478E+03  0.00000000000E+00 0.  1.
<mgrwt>
<rscale>  0 0.12082374E+04</rscale>
<asrwt>0</asrwt>
<pdfrwt beam="1">  1        1 0.28499720E+00 0.12082374E+04</pdfrwt>
<pdfrwt beam="2">  1       -1 0.30309393E-01 0.12082374E+04</pdfrwt>
<totfact> 0.37236483E+01</totfact>
</mgrwt>
</event>
<event>
 6    1  0.8968082E-007  0.2591743E+04  0.7818608E-02  0.8371011E-01
          2   -1    0    0  501    0  0.00000000000E+00  0.00000000000E+00  0.26538122957E+04  0.26538122957E+04  0.00000000000E+00 0. -1.
         -2   -1    0    0    0  501 -0.00000000000E+00 -0.00000000000E+00 -0.63278121301E+03  0.63278121301E+03  0.00000000000E+00 0.  1.
         23    2    1    2    0    0  0.69917723767E+03  0.55365716986E+03  0.22012537562E+04  0.23767224829E+04  0.88919009718E+02 0.  0.
         13    1    3    3    0    0  0.32708627608E+03  0.25060778995E+03  0.11339867474E+04  0.12065304139E+04  0.00000000000E+00 0. -1.
        -13    1    3    3    0    0  0.37209096159E+03  0.30304937991E+03  0.10672670088E+04  0.11701920690E+04  0.00000000000E+00 0.  1.
         22    1    1    2    0    0 -0.69917723767E+03 -0.55365716986E+03 -0.18022267355E+03  0.90987102574E+03  0.00000000000E+00 0.  1.
<mgrwt>
<rscale>  0 0.25917427E+04</rscale>
<asrwt>0</asrwt>
<pdfrwt beam="1">  1        2 0.40827881E+00 0.25917427E+04</pdfrwt>
<pdfrwt beam="2">  1       -2 0.97350958E-01 0.25917427E+04</pdfrwt>
<totfact> 0.22030890E+00</totfact>
</mgrwt>
</event>
<event>
 6    1  0.8968082E-007  0.4751863E+04  0.7818608E-02  0.7867968E-01
         -2   -1    0    0    0  501 -0.00000000000E+00  0.00000000000E+00  0.20662723997E+04  0.20662723997E+04  0.00000000000E+00 0.  1.
          2   -1    0    0  501    0  0.00000000000E+00 -0.00000000000E+00 -0.27319968079E+04  0.27319968079E+04  0.00000000000E+00 0. -1.
         23    2    1    2    0    0  0.74278626694E+03 -0.10603512140E+03 -0.26084290464E+04  0.27157043955E+04  0.90406793058E+02 0.  0.
         13    1    3    3    0    0  0.45125211973E+03 -0.23178217071E+02 -0.14987979839E+04  0.15654268114E+04  0.00000000000E+00 0.  1.
        -13    1    3    3    0    0  0.29153414722E+03 -0.82856904332E+02 -0.11096310625E+04  0.11502775841E+04  0.00000000000E+00 0. -1.
         22    1    1    2    0    0 -0.74278626694E+03  0.10603512140E+03  0.19427046382E+04  0.20825648121E+04  0.00000000000E+00 0.  1.
<mgrwt>
<rscale>  0 0.47518626E+04</rscale>
<asrwt>0</asrwt>
<pdfrwt beam="1">  1        2 0.42030720E+00 0.47518626E+04</pdfrwt>
<pdfrwt beam="2">  1       -2 0.31788806E+00 0.47518626E+04</pdfrwt>
<totfact> 0.46548688E-02</totfact>
</mgrwt>
</event>
<event>
 6    1  0.8968082E-007  0.2316783E+04  0.7818608E-02  0.8471333E-01
          1   -1    0    0  501    0  0.00000000000E+00  0.00000000000E+00  0.59218644192E+03  0.59218644192E+03  0.00000000000E+00 0. -1.
         -1   -1    0    0    0  501 -0.00000000000E+00 -0.00000000000E+00 -0.22659603182E+04  0.22659603182E+04  0.00000000000E+00 0.  1.
         23    2    1    2    0    0  0.24121991943E+02  0.29726253687E+03 -0.22167991576E+04  0.22386119810E+04  0.90764583615E+02 0.  0.
         13    1    3    3    0    0 -0.25582066671E+02  0.20805743032E+03 -0.14858928517E+04  0.15006065118E+04  0.00000000000E+00 0.  1.
        -13    1    3    3    0    0  0.49704058613E+02  0.89205106550E+02 -0.73090630596E+03  0.73800546920E+03  0.00000000000E+00 0. -1.
         22    1    1    2    0    0 -0.24121991943E+02 -0.29726253687E+03  0.54302528140E+03  0.61953477913E+03  0.00000000000E+00 0. -1.
<mgrwt>
<rscale>  0 0.23167831E+04</rscale>
<asrwt>0</asrwt>
<pdfrwt beam="1">  1        1 0.91105606E-01 0.23167831E+04</pdfrwt>
<pdfrwt beam="2">  1       -1 0.34860928E+00 0.23167831E+04</pdfrwt>
<totfact> 0.50030526E-01</totfact>
</mgrwt>
</event>
<event>
 6    1  0.8968082E-007  0.2065625E+04  0.7818608E-02  0.8576539E-01
          2   -1    0    0  501    0  0.00000000000E+00  0.00000000000E+00  0.20400662121E+04  0.20400662121E+04  0.00000000000E+00 0. -1.
         -2   -1    0    0    0  501 -0.00000000000E+00 -0.00000000000E+00 -0.52287578968E+03  0.52287578968E+03  0.00000000000E+00 0.  1.
         23    2    1    2    0    0 -0.82714913725E+03  0.59815344370E+02  0.44869116448E+00  0.83428383718E+03  0.90971143650E+02 0.  0.
         13    1    3    3    0    0 -0.67003825283E+03  0.30438569245E+02 -0.30749428979E+02  0.67143376005E+03  0.00000000000E+00 0.  1.
        -13    1    3    3    0    0 -0.15711088443E+03  0.29376775125E+02  0.31198120143E+02  0.16285007713E+03  0.00000000000E+00 0. -1.
         22    1    1    2    0    0  0.82714913725E+03 -0.59815344370E+02  0.15167417312E+04  0.17286581646E+04  0.00000000000E+00 0. -1.
<mgrwt>
<rscale>  0 0.20656246E+04</rscale>
<asrwt>0</asrwt>
<pdfrwt beam="1">  1        2 0.31385634E+00 0.20656246E+04</pdfrwt>
<pdfrwt beam="2">  1       -2 0.80442430E-01 0.20656246E+04</pdfrwt>
<totfact> 0.80064080E+00</totfact>
</mgrwt>
</event>
<event>
 6    1  0.8968082E-007  0.1811261E+04  0.7818608E-02  0.8700334E-01
          2   -1    0    0  501    0  0.00000000000E+00  0.00000000000E+00  0.19804498894E+04  0.19804498894E+04  0.00000000000E+00 0. -1.
         -2   -1    0    0    0  501 -0.00000000000E+00 -0.00000000000E+00 -0.41413160696E+03  0.41413160696E+03  0.00000000000E+00 0.  1.
         23    2    1    2    0    0  0.73215766298E+03 -0.48493738264E+03  0.50497596953E+03  0.10170232893E+04  0.90091801648E+02 0.  0.
         11    1    3    3    0    0  0.68095763093E+03 -0.42282262155E+03  0.47065803407E+03  0.92951667519E+03  0.00000000000E+00 0.  1.
        -11    1    3    3    0    0  0.51200032053E+02 -0.62114761089E+02  0.34317935460E+02  0.87506614159E+02  0.00000000000E+00 0. -1.
         22    1    1    2    0    0 -0.73215766298E+03  0.48493738264E+03  0.10613423130E+04  0.13775582070E+04  0.00000000000E+00 0.  1.
<mgrwt>
<rscale>  0 0.18112613E+04</rscale>
<asrwt>0</asrwt>
<pdfrwt beam="1">  1        2 0.30468459E+00 0.18112613E+04</pdfrwt>
<pdfrwt beam="2">  1       -2 0.63712556E-01 0.18112613E+04</pdfrwt>
<totfact> 0.14725846E+01</totfact>
</mgrwt>
</event>
<event>
 6    1  0.8968082E-007  0.1566838E+04  0.7818608E-02  0.8841184E-01
         -1   -1    0    0    0  501 -0.00000000000E+00  0.00000000000E+00  0.23125872183E+04  0.23125872183E+04  0.00000000000E+00 0.  1.
          1   -1    0    0  501    0  0.00000000000E+00 -0.00000000000E+00 -0.26539322894E+03  0.26539322894E+03  0.00000000000E+00 0. -1.
         23    2    1    2    0    0  0.75192686620E+03  0.75415955627E+02  0.70381202680E+03  0.10366314680E+04  0.90398301466E+02 0.  0.
         11    1    3    3    0    0  0.52945827038E+03  0.71856143285E+02  0.44520984971E+03  0.69548628720E+03  0.00000000000E+00 0. -1.
        -11    1    3    3    0    0  0.22246859581E+03  0.35598123426E+01  0.25860217709E+03  0.34114518080E+03  0.00000000000E+00 0.  1.
         22    1    1    2    0    0 -0.75192686620E+03 -0.75415955627E+02  0.13433819626E+04  0.15413489793E+04  0.00000000000E+00 0.  1.
<mgrwt>
<rscale>  0 0.15668376E+04</rscale>
<asrwt>0</asrwt>
<pdfrwt beam="1">  1        1 0.40829729E-01 0.15668376E+04</pdfrwt>
<pdfrwt beam="2">  1       -1 0.35578264E+00 0.15668376E+04</pdfrwt>
<totfact> 0.14142057E+00</totfact>
</mgrwt>
</event>
<event>
 6    1  0.8968082E-007  0.1071500E+04  0.7818608E-02  0.9233424E-01
         -1   -1    0    0    0  501 -0.00000000000E+00  0.00000000000E+00  0.59477104766E+03  0.59477104766E+03  0.00000000000E+00 0.  1.
          1   -1    0    0  501    0  0.00000000000E+00 -0.00000000000E+00 -0.48258571969E+03  0.48258571969E+03  0.00000000000E+00 0. -1.
         23    2    1    2    0    0  0.11656970184E+02  0.52912493116E+03  0.10430085352E+03  0.54804472076E+03  0.96774326010E+02 0.  0.
         13    1    3    3    0    0  0.19222745984E+02  0.51900648772E+03  0.11446848440E+03  0.53182730484E+03  0.00000000000E+00 0.  1.
        -13    1    3    3    0    0 -0.75657758000E+01  0.10118443446E+02 -0.10167630882E+02  0.16217415916E+02  0.00000000000E+00 0. -1.
         22    1    1    2    0    0 -0.11656970184E+02 -0.52912493116E+03  0.78844744584E+01  0.52931204660E+03  0.00000000000E+00 0.  1.
<mgrwt>
<rscale>  0 0.10714999E+04</rscale>
<asrwt>0</asrwt>
<pdfrwt beam="1">  1        1 0.74243957E-01 0.10714999E+04</pdfrwt>
<pdfrwt beam="2">  1       -1 0.91503238E-01 0.10714999E+04</pdfrwt>
<totfact> 0.54135226E+01</totfact>
</mgrwt>
</event>
<event>
 6    1  0.8968082E-007  0.2191680E+04  0.7818608E-02  0.8521899E-01
         -2   -1    0    0    0  501 -0.00000000000E+00  0.00000000000E+00  0.86182621270E+03  0.86182621270E+03  0.00000000000E+00 0.  1.
          2   -1    0    0  501    0  0.00000000000E+00 -0.00000000000E+00 -0.13933960538E+04  0.13933960538E+04  0.00000000000E+00 0. -1.
         23    2    1    2    0    0  0.12756895016E+03  0.86855924424E+03 -0.93773250405E+03  0.12879389023E+04  0.93676939723E+02 0.  0.
         13    1    3    3    0    0 -0.10948852298E+02  0.64594505985E+02 -0.91102879621E+02  0.11221435846E+03  0.00000000000E+00 0.  1.
        -13    1    3    3    0    0  0.13851780246E+03  0.80396473826E+03 -0.84662962443E+03  0.11757245438E+04  0.00000000000E+00 0. -1.
         22    1    1    2    0    0 -0.12756895016E+03 -0.86855924424E+03  0.40616266299E+03  0.96728336418E+03  0.00000000000E+00 0.  1.
<mgrwt>
<rscale>  0 0.21916799E+04</rscale>
<asrwt>0</asrwt>
<pdfrwt beam="1">  1        2 0.21436862E+00 0.21916799E+04</pdfrwt>
<pdfrwt beam="2">  1       -2 0.13258865E+00 0.21916799E+04</pdfrwt>
<totfact> 0.55163615E+00</totfact>
</mgrwt>
</event>
<event>
 6    1  0.8968082E-007  0.2832492E+04  0.7818608E-02  0.8293251E-01
          2   -1    0    0  501    0  0.00000000000E+00  0.00000000000E+00  0.48702690235E+04  0.48702690235E+04  0.00000000000E+00 0. -1.
         -2   -1    0    0    0  501 -0.00000000000E+00 -0.00000000000E+00 -0.41183621927E+03  0.41183621927E+03  0.00000000000E+00 0.  1.
         23    2    1    2    0    0  0.58130267282E+03  0.78175871872E+02  0.46324116652E+04  0.46703104174E+04  0.92397477958E+02 0.  0.
         11    1    3    3    0    0  0.40327162804E+03  0.11542199971E+02  0.32100267636E+04  0.32352794395E+04  0.00000000000E+00 0. -1.
        -11    1    3    3    0    0  0.17803104477E+03  0.66633671902E+02  0.14223849016E+04  0.14350309779E+04  0.00000000000E+00 0.  1.
         22    1    1    2    0    0 -0.58130267282E+03 -0.78175871872E+02 -0.17397886097E+03  0.61179482544E+03  0.00000000000E+00 0.  1.
<mgrwt>
<rscale>  0 0.28324923E+04</rscale>
<asrwt>0</asrwt>
<pdfrwt beam="1">  1        2 0.74927212E+00 0.28324923E+04</pdfrwt>
<pdfrwt beam="2">  1       -2 0.63359422E-01 0.28324923E+04</pdfrwt>
<totfact> 0.99068408E-02</totfact>
</mgrwt>
</event>
<event>
 6    1  0.8968082E-007  0.2399225E+04  0.7818608E-02  0.8439794E-01
         -1   -1    0    0    0  501 -0.00000000000E+00  0.00000000000E+00  0.15257371047E+04  0.15257371047E+04  0.00000000000E+00 0.  1.
          1   -1    0    0  501    0  0.00000000000E+00 -0.00000000000E+00 -0.94319681890E+03  0.94319681890E+03  0.00000000000E+00 0. -1.
         23    2    1    2    0    0 -0.23549629548E+03 -0.97949844730E+03  0.95884256964E+03  0.13935367308E+04  0.87691694382E+02 0.  0.
         11    1    3    3    0    0 -0.16761148224E+03 -0.79801905078E+03  0.80835347685E+03  0.11482000513E+04  0.00000000000E+00 0. -1.
        -11    1    3    3    0    0 -0.67884813248E+02 -0.18147939652E+03  0.15048909279E+03  0.24533667944E+03  0.00000000000E+00 0.  1.
         22    1    1    2    0    0  0.23549629548E+03  0.97949844730E+03 -0.37630228385E+03  0.10753971928E+04  0.00000000000E+00 0. -1.
<mgrwt>
<rscale>  0 0.23992252E+04</rscale>
<asrwt>0</asrwt>
<pdfrwt beam="1">  1        1 0.14510720E+00 0.23992252E+04</pdfrwt>
<pdfrwt beam="2">  1       -1 0.23472878E+00 0.23992252E+04</pdfrwt>
<totfact> 0.13209822E+00</totfact>
</mgrwt>
</event>
<event>
 6    1  0.8968082E-007  0.1180606E+04  0.7818608E-02  0.9130004E-01
         -1   -1    0    0    0  501 -0.00000000000E+00  0.00000000000E+00  0.31524507537E+03  0.31524507537E+03  0.00000000000E+00 0.  1.
          1   -1    0    0  501    0  0.00000000000E+00 -0.00000000000E+00 -0.11053541599E+04  0.11053541599E+04  0.00000000000E+00 0. -1.
         23    2    1    2    0    0  0.97771663884E+02 -0.14935872798E+03  0.27493824439E+03  0.34069500770E+03  0.92815527610E+02 0.  0.
         13    1    3    3    0    0  0.14108058688E+02 -0.10300931891E+03  0.16444221273E+03  0.19455384455E+03  0.00000000000E+00 0.  1.
        -13    1    3    3    0    0  0.83663605196E+02 -0.46349409066E+02  0.11049603166E+03  0.14614116315E+03  0.00000000000E+00 0. -1.
         22    1    1    2    0    0 -0.97771663884E+02  0.14935872798E+03 -0.10650473289E+04  0.10799042276E+04  0.00000000000E+00 0. -1.
<mgrwt>
<rscale>  0 0.11806057E+04</rscale>
<asrwt>0</asrwt>
<pdfrwt beam="1">  1        1 0.17005449E+00 0.11806057E+04</pdfrwt>
<pdfrwt beam="2">  1       -1 0.48499242E-01 0.11806057E+04</pdfrwt>
<totfact> 0.52932705E+01</totfact>
</mgrwt>
</event>
<event>
 6    1  0.8968082E-007  0.2883095E+04  0.7818608E-02  0.8277925E-01
          2   -1    0    0  501    0  0.00000000000E+00  0.00000000000E+00  0.38852268136E+04  0.38852268136E+04  0.00000000000E+00 0. -1.
         -2   -1    0    0    0  501 -0.00000000000E+00 -0.00000000000E+00 -0.53486163810E+03  0.53486163810E+03  0.00000000000E+00 0.  1.
         23    2    1    2    0    0  0.12075649849E+04 -0.36839955871E+03  0.27389753230E+04  0.30173308178E+04  0.91476865620E+02 0.  0.
         13    1    3    3    0    0  0.48982251870E+03 -0.19551415567E+03  0.11186340128E+04  0.12367271079E+04  0.00000000000E+00 0. -1.
        -13    1    3    3    0    0  0.71774246615E+03 -0.17288540304E+03  0.16203413102E+04  0.17806037100E+04  0.00000000000E+00 0.  1.
         22    1    1    2    0    0 -0.12075649849E+04  0.36839955871E+03  0.61138985248E+03  0.14027576338E+04  0.00000000000E+00 0.  1.
<mgrwt>
<rscale>  0 0.28830947E+04</rscale>
<asrwt>0</asrwt>
<pdfrwt beam="1">  1        2 0.59772718E+00 0.28830947E+04</pdfrwt>
<pdfrwt beam="2">  1       -2 0.82286408E-01 0.28830947E+04</pdfrwt>
<totfact> 0.47323730E-01</totfact>
</mgrwt>
</event>
<event>
 6    1  0.8968082E-007  0.2956236E+04  0.7818608E-02  0.8256340E-01
         -2   -1    0    0    0  501 -0.00000000000E+00  0.00000000000E+00  0.45039314597E+03  0.45039314597E+03  0.00000000000E+00 0.  1.
          2   -1    0    0  501    0  0.00000000000E+00 -0.00000000000E+00 -0.48509448084E+04  0.48509448084E+04  0.00000000000E+00 0. -1.
         23    2    1    2    0    0  0.90586925683E+03  0.46705429428E+03 -0.41187060532E+04  0.42438996480E+04  0.90586124500E+02 0.  0.
         13    1    3    3    0    0  0.17934185679E+03  0.10194134485E+03 -0.69542011024E+03  0.72537209011E+03  0.00000000000E+00 0. -1.
        -13    1    3    3    0    0  0.72652740004E+03  0.36511294944E+03 -0.34232859429E+04  0.35185275579E+04  0.00000000000E+00 0.  1.
         22    1    1    2    0    0 -0.90586925683E+03 -0.46705429428E+03 -0.28184560928E+03  0.10574383064E+04  0.00000000000E+00 0.  1.
<mgrwt>
<rscale>  0 0.29562356E+04</rscale>
<asrwt>0</asrwt>
<pdfrwt beam="1">  1        2 0.74629921E+00 0.29562356E+04</pdfrwt>
<pdfrwt beam="2">  1       -2 0.69291253E-01 0.29562356E+04</pdfrwt>
<totfact> 0.84962343E-02</totfact>
</mgrwt>
</event>
<event>
 6    1  0.8968082E-007  0.2626375E+03  0.7818608E-02  0.1105569E+00
          2   -1    0    0  501    0  0.00000000000E+00  0.00000000000E+00  0.27444154499E+03  0.27444154499E+03  0.00000000000E+00 0. -1.
         -2   -1    0    0    0  501 -0.00000000000E+00 -0.00000000000E+00 -0.62835298452E+02  0.62835298452E+02  0.00000000000E+00 0.  1.
         23    2    1    2    0    0  0.23115193625E+02 -0.69500264358E+02  0.49704103064E+01  0.11804416400E+03  0.92439822332E+02 0.  0.
         13    1    3    3    0    0  0.58365455128E+02 -0.53510550435E+02  0.17320354370E+01  0.79201674900E+02  0.00000000000E+00 0. -1.
        -13    1    3    3    0    0 -0.35250261503E+02 -0.15989713923E+02  0.32383748694E+01  0.38842489096E+02  0.00000000000E+00 0.  1.
         22    1    1    2    0    0 -0.23115193625E+02  0.69500264358E+02  0.20663583623E+03  0.21923267944E+03  0.00000000000E+00 0. -1.
<mgrwt>
<rscale>  0 0.26263752E+03</rscale>
<asrwt>0</asrwt>
<pdfrwt beam="1">  1        2 0.42221776E-01 0.26263752E+03</pdfrwt>
<pdfrwt beam="2">  1       -2 0.96669691E-02 0.26263752E+03</pdfrwt>
<totfact> 0.83497977E+03</totfact>
</mgrwt>
</event>
<event>
 6    1  0.8968082E-007  0.2367829E+04  0.7818608E-02  0.8451647E-01
          1   -1    0    0  501    0  0.00000000000E+00  0.00000000000E+00  0.15034814147E+04  0.15034814147E+04  0.00000000000E+00 0. -1.
         -1   -1    0    0    0  501 -0.00000000000E+00 -0.00000000000E+00 -0.93227231747E+03  0.93227231747E+03  0.00000000000E+00 0.  1.
         23    2    1    2    0    0  0.72040479759E+03 -0.61679747373E+03  0.10119490269E+04  0.13899650912E+04  0.92411718634E+02 0.  0.
         11    1    3    3    0    0  0.31984768771E+03 -0.30919634012E+03  0.52880762916E+03  0.69104444772E+03  0.00000000000E+00 0.  1.
        -11    1    3    3    0    0  0.40055710988E+03 -0.30760113362E+03  0.48314139775E+03  0.69892064349E+03  0.00000000000E+00 0. -1.
         22    1    1    2    0    0 -0.72040479759E+03  0.61679747373E+03 -0.44073992966E+03  0.10457886410E+04  0.00000000000E+00 0.  1.
<mgrwt>
<rscale>  0 0.23678295E+04</rscale>
<asrwt>0</asrwt>
<pdfrwt beam="1">  1        1 0.23130483E+00 0.23678295E+04</pdfrwt>
<pdfrwt beam="2">  1       -1 0.14342651E+00 0.23678295E+04</pdfrwt>
<totfact> 0.22992553E+00</totfact>
</mgrwt>
</event>
<event>
 6    1  0.8968082E-007  0.3204416E+03  0.7818608E-02  0.1075446E+00
         -1   -1    0    0    0  501 -0.00000000000E+00  0.00000000000E+00  0.89676082108E+03  0.89676082108E+03  0.00000000000E+00 0.  1.
          1   -1    0    0  501    0  0.00000000000E+00 -0.00000000000E+00 -0.28626025896E+02  0.28626025896E+02  0.00000000000E+00 0. -1.
         23    2    1    2    0    0 -0.13188681286E+03 -0.64047909698E+02  0.50760608305E+03  0.53618610389E+03  0.91298063047E+02 0.  0.
         13    1    3    3    0    0 -0.75467878944E+02 -0.49603086393E+02  0.15993622267E+03  0.18367215971E+03  0.00000000000E+00 0. -1.
        -13    1    3    3    0    0 -0.56418933917E+02 -0.14444823305E+02  0.34766986038E+03  0.35251394418E+03  0.00000000000E+00 0.  1.
         22    1    1    2    0    0  0.13188681286E+03  0.64047909698E+02  0.36052871213E+03  0.38920074308E+03  0.00000000000E+00 0.  1.
<mgrwt>
<rscale>  0 0.32044156E+03</rscale>
<asrwt>0</asrwt>
<pdfrwt beam="1">  1        1 0.44040047E-02 0.32044156E+03</pdfrwt>
<pdfrwt beam="2">  1       -1 0.13796318E+00 0.32044156E+03</pdfrwt>
<totfact> 0.93442544E+02</totfact>
</mgrwt>
</event>
<event>
 6    1  0.8968082E-007  0.8013718E+03  0.7818608E-02  0.9558034E-01
          3   -1    0    0  501    0  0.00000000000E+00  0.00000000000E+00  0.39620665773E+03  0.39620665773E+03  0.00000000000E+00 0. -1.
         -3   -1    0    0    0  501 -0.00000000000E+00 -0.00000000000E+00 -0.40521582768E+03  0.40521582768E+03  0.00000000000E+00 0.  1.
         23    2    1    2    0    0 -0.14073598606E+03  0.36568601210E+03 -0.56726040898E+02  0.40669501362E+03  0.93005984586E+02 0.  0.
         13    1    3    3    0    0 -0.42275637491E+02  0.17860747792E+03  0.13218718864E+02  0.18401792092E+03  0.00000000000E+00 0. -1.
        -13    1    3    3    0    0 -0.98460348571E+02  0.18707853418E+03 -0.69944759762E+02  0.22267709269E+03  0.00000000000E+00 0.  1.
         22    1    1    2    0    0  0.14073598606E+03 -0.36568601210E+03  0.47716870952E+02  0.39472747179E+03  0.00000000000E+00 0. -1.
<mgrwt>
<rscale>  0 0.80137185E+03</rscale>
<asrwt>0</asrwt>
<pdfrwt beam="1">  1        3 0.60954870E-01 0.80137185E+03</pdfrwt>
<pdfrwt beam="2">  1       -3 0.62340897E-01 0.80137185E+03</pdfrwt>
<totfact> 0.17322526E+01</totfact>
</mgrwt>
</event>
<event>
 6    1  0.8968082E-007  0.1478068E+04  0.7818608E-02  0.8899170E-01
          1   -1    0    0  501    0  0.00000000000E+00  0.00000000000E+00  0.21843322962E+03  0.21843322962E+03  0.00000000000E+00 0. -1.
         -1   -1    0    0    0  501 -0.00000000000E+00 -0.00000000000E+00 -0.25004035730E+04  0.25004035730E+04  0.00000000000E+00 0.  1.
         23    2    1    2    0    0 -0.40725787151E+03  0.60375712385E+03 -0.94671051732E+03  0.11978830092E+04  0.91001437949E+02 0.  0.
         11    1    3    3    0    0 -0.20531527064E+03  0.37657435675E+03 -0.58562258363E+03  0.72589008602E+03  0.00000000000E+00 0.  1.
        -11    1    3    3    0    0 -0.20194260088E+03  0.22718276710E+03 -0.36108793369E+03  0.47199292322E+03  0.00000000000E+00 0. -1.
         22    1    1    2    0    0  0.40725787151E+03 -0.60375712385E+03 -0.13352598261E+04  0.15209537934E+04  0.00000000000E+00 0.  1.
<mgrwt>
<rscale>  0 0.14780680E+04</rscale>
<asrwt>0</asrwt>
<pdfrwt beam="1">  1        1 0.33605111E-01 0.14780680E+04</pdfrwt>
<pdfrwt beam="2">  1       -1 0.38467748E+00 0.14780680E+04</pdfrwt>
<totfact> 0.11769425E+00</totfact>
</mgrwt>
</event>
<event>
 6    1  0.8968082E-007  0.2630710E+04  0.7818608E-02  0.8357844E-01
         -1   -1    0    0    0  501 -0.00000000000E+00  0.00000000000E+00  0.14127473665E+04  0.14127473665E+04  0.00000000000E+00 0.  1.
          1   -1    0    0  501    0  0.00000000000E+00 -0.00000000000E+00 -0.12246766732E+04  0.12246766732E+04  0.00000000000E+00 0. -1.
         23    2    1    2    0    0 -0.45087816117E+03  0.35144674496E+02  0.13307933125E+04  0.14084646226E+04  0.90749590953E+02 0.  0.
         13    1    3    3    0    0 -0.45534543694E+03  0.35123873108E+02  0.13148079637E+04  0.13918667805E+04  0.00000000000E+00 0. -1.
        -13    1    3    3    0    0  0.44672757700E+01  0.20801387947E-01  0.15985348785E+02  0.16597842067E+02  0.00000000000E+00 0.  1.
         22    1    1    2    0    0  0.45087816117E+03 -0.35144674496E+02 -0.11427226192E+04  0.12289594170E+04  0.00000000000E+00 0. -1.
<mgrwt>
<rscale>  0 0.26307100E+04</rscale>
<asrwt>0</asrwt>
<pdfrwt beam="1">  1        1 0.18841180E+00 0.26307100E+04</pdfrwt>
<pdfrwt beam="2">  1       -1 0.21734575E+00 0.26307100E+04</pdfrwt>
<totfact> 0.10325300E+00</totfact>
</mgrwt>
</event>
<event>
 6    1  0.8968082E-007  0.3349686E+04  0.7818608E-02  0.8150367E-01
          2   -1    0    0  501    0  0.00000000000E+00  0.00000000000E+00  0.37133931006E+04  0.37133931006E+04  0.00000000000E+00 0. -1.
         -2   -1    0    0    0  501 -0.00000000000E+00 -0.00000000000E+00 -0.75540047659E+03  0.75540047659E+03  0.00000000000E+00 0.  1.
         23    2    1    2    0    0  0.43998255964E+03  0.16078266079E+04  0.12819703726E+04  0.21049531340E+04  0.93212691905E+02 0.  0.
         13    1    3    3    0    0  0.46329714397E+02  0.12691594828E+03  0.13410429423E+03  0.19036297459E+03  0.00000000000E+00 0. -1.
        -13    1    3    3    0    0  0.39365284524E+03  0.14809106596E+04  0.11478660784E+04  0.19145901594E+04  0.00000000000E+00 0.  1.
         22    1    1    2    0    0 -0.43998255964E+03 -0.16078266079E+04  0.16760222514E+04  0.23638404432E+04  0.00000000000E+00 0.  1.
<mgrwt>
<rscale>  0 0.33496859E+04</rscale>
<asrwt>0</asrwt>
<pdfrwt beam="1">  1        2 0.57129123E+00 0.33496859E+04</pdfrwt>
<pdfrwt beam="2">  1       -2 0.11621546E+00 0.33496859E+04</pdfrwt>
<totfact> 0.27223992E-01</totfact>
</mgrwt>
</event>
<event>
 6    1  0.8968082E-007  0.5423291E+04  0.7818608E-02  0.7766333E-01
         -2   -1    0    0    0  501 -0.00000000000E+00  0.00000000000E+00  0.24326022712E+04  0.24326022712E+04  0.00000000000E+00 0.  1.
          2   -1    0    0  501    0  0.00000000000E+00 -0.00000000000E+00 -0.30226981082E+04  0.30226981082E+04  0.00000000000E+00 0. -1.
         23    2    1    2    0    0  0.16879664950E+04  0.20010749322E+04  0.41266165748E+03  0.26518998791E+04  0.93549734548E+02 0.  0.
         13    1    3    3    0    0  0.55526741638E+03  0.72045512423E+03  0.12369716682E+03  0.91797520598E+03  0.00000000000E+00 0.  1.
        -13    1    3    3    0    0  0.11326990786E+04  0.12806198080E+04  0.28896449065E+03  0.17339246731E+04  0.00000000000E+00 0. -1.
         22    1    1    2    0    0 -0.16879664950E+04 -0.20010749322E+04 -0.10027574945E+04  0.28034005003E+04  0.00000000000E+00 0.  1.
<mgrwt>
<rscale>  0 0.54232914E+04</rscale>
<asrwt>0</asrwt>
<pdfrwt beam="1">  1        2 0.46503048E+00 0.54232914E+04</pdfrwt>
<pdfrwt beam="2">  1       -2 0.37424650E+00 0.54232914E+04</pdfrwt>
<totfact> 0.12933358E-02</totfact>
</mgrwt>
</event>
<event>
 6    1  0.8968082E-007  0.3826333E+03  0.7818608E-02  0.1049965E+00
         -2   -1    0    0    0  501 -0.00000000000E+00  0.00000000000E+00  0.22143069798E+02  0.22143069798E+02  0.00000000000E+00 0.  1.
          2   -1    0    0  501    0  0.00000000000E+00 -0.00000000000E+00 -0.16529806925E+04  0.16529806925E+04  0.00000000000E+00 0. -1.
         23    2    1    2    0    0 -0.45406200680E+02 -0.56175061126E+02 -0.15854570173E+04  0.15898198357E+04  0.92928981327E+02 0.  0.
         13    1    3    3    0    0 -0.10512702457E+02 -0.43688043660E+02 -0.13986742732E+04  0.13993958999E+04  0.00000000000E+00 0. -1.
        -13    1    3    3    0    0 -0.34893498224E+02 -0.12487017467E+02 -0.18678274412E+03  0.19042393580E+03  0.00000000000E+00 0.  1.
         22    1    1    2    0    0  0.45406200680E+02  0.56175061126E+02 -0.45380605376E+02  0.85303926622E+02  0.00000000000E+00 0.  1.
<mgrwt>
<rscale>  0 0.38263333E+03</rscale>
<asrwt>0</asrwt>
<pdfrwt beam="1">  1        2 0.25430476E+00 0.38263333E+03</pdfrwt>
<pdfrwt beam="2">  1       -2 0.34066256E-02 0.38263333E+03</pdfrwt>
<totfact> 0.39612593E+03</totfact>
</mgrwt>
</event>
<event>
 6    1  0.8968082E-007  0.1338088E+04  0.7818608E-02  0.8999895E-01
         -2   -1    0    0    0  501 -0.00000000000E+00  0.00000000000E+00  0.47585153188E+03  0.47585153188E+03  0.00000000000E+00 0.  1.
          2   -1    0    0  501    0  0.00000000000E+00 -0.00000000000E+00 -0.94067139458E+03  0.94067139458E+03  0.00000000000E+00 0. -1.
         23    2    1    2    0    0  0.12163743227E+03 -0.62380079143E+03 -0.44399370391E+03  0.78063235317E+03  0.91287290383E+02 0.  0.
         11    1    3    3    0    0 -0.95452778145E+00 -0.10892367419E+03 -0.10990077809E+03  0.15473674078E+03  0.00000000000E+00 0. -1.
        -11    1    3    3    0    0  0.12259196005E+03 -0.51487711724E+03 -0.33409292582E+03  0.62589561239E+03  0.00000000000E+00 0.  1.
         22    1    1    2    0    0 -0.12163743227E+03  0.62380079143E+03 -0.20826158798E+02  0.63589057329E+03  0.00000000000E+00 0.  1.
<mgrwt>
<rscale>  0 0.13380881E+04</rscale>
<asrwt>0</asrwt>
<pdfrwt beam="1">  1        2 0.14471867E+00 0.13380881E+04</pdfrwt>
<pdfrwt beam="2">  1       -2 0.73207929E-01 0.13380881E+04</pdfrwt>
<totfact> 0.45365739E+01</totfact>
</mgrwt>
</event>
<event>
 6    1  0.8968082E-007  0.6495437E+03  0.7818608E-02  0.9807636E-01
         -1   -1    0    0    0  501 -0.00000000000E+00  0.00000000000E+00  0.16790407563E+03  0.16790407563E+03  0.00000000000E+00 0.  1.
          1   -1    0    0  501    0  0.00000000000E+00 -0.00000000000E+00 -0.62819653245E+03  0.62819653245E+03  0.00000000000E+00 0. -1.
         23    2    1    2    0    0 -0.30953552441E+03  0.72962380920E+02 -0.25415136713E+03  0.41711525380E+03  0.90865106821E+02 0.  0.
         11    1    3    3    0    0 -0.17561197731E+03  0.79528795544E+02 -0.18070826883E+03  0.26423450629E+03  0.00000000000E+00 0. -1.
        -11    1    3    3    0    0 -0.13392354710E+03 -0.65664146241E+01 -0.73443098303E+02  0.15288074750E+03  0.00000000000E+00 0.  1.
         22    1    1    2    0    0  0.30953552441E+03 -0.72962380920E+02 -0.20614108969E+03  0.37898535428E+03  0.00000000000E+00 0. -1.
<mgrwt>
<rscale>  0 0.64954371E+03</rscale>
<asrwt>0</asrwt>
<pdfrwt beam="1">  1        1 0.96645621E-01 0.64954371E+03</pdfrwt>
<pdfrwt beam="2">  1       -1 0.25831396E-01 0.64954371E+03</pdfrwt>
<totfact> 0.42868065E+02</totfact>
</mgrwt>
</event>
<event>
 6    1  0.8968082E-007  0.6216125E+03  0.7818608E-02  0.9861554E-01
          1   -1    0    0  501    0  0.00000000000E+00  0.00000000000E+00  0.40738789594E+02  0.40738789594E+02  0.00000000000E+00 0. -1.
         -1   -1    0    0    0  501 -0.00000000000E+00 -0.00000000000E+00 -0.23712175416E+04  0.23712175416E+04  0.00000000000E+00 0.  1.
         23    2    1    2    0    0 -0.61178448238E+02 -0.26518023675E+03 -0.17166309779E+04  0.17404859668E+04  0.91684926956E+02 0.  0.
         13    1    3    3    0    0 -0.59408633276E+02 -0.23462602744E+03 -0.12732215734E+04  0.12960215791E+04  0.00000000000E+00 0.  1.
        -13    1    3    3    0    0 -0.17698149620E+01 -0.30554209309E+02 -0.44340940442E+03  0.44446438764E+03  0.00000000000E+00 0. -1.
         22    1    1    2    0    0  0.61178448238E+02  0.26518023675E+03 -0.61384777410E+03  0.67147036439E+03  0.00000000000E+00 0. -1.
<mgrwt>
<rscale>  0 0.62161252E+03</rscale>
<asrwt>0</asrwt>
<pdfrwt beam="1">  1        1 0.62675061E-02 0.62161252E+03</pdfrwt>
<pdfrwt beam="2">  1       -1 0.36480270E+00 0.62161252E+03</pdfrwt>
<totfact> 0.17104222E+01</totfact>
</mgrwt>
</event>
<event>
 6    1  0.8968082E-007  0.3061818E+04  0.7818608E-02  0.8226295E-01
          1   -1    0    0  501    0  0.00000000000E+00  0.00000000000E+00  0.25529239055E+04  0.25529239055E+04  0.00000000000E+00 0. -1.
         -1   -1    0    0    0  501 -0.00000000000E+00 -0.00000000000E+00 -0.91803837134E+03  0.91803837134E+03  0.00000000000E+00 0.  1.
         23    2    1    2    0    0 -0.11062784585E+04 -0.66216418566E+03 -0.11465854166E+03  0.12976657233E+04  0.92066887736E+02 0.  0.
         13    1    3    3    0    0 -0.50615948891E+03 -0.26536135254E+03 -0.18240032297E+02  0.57179259738E+03  0.00000000000E+00 0.  1.
        -13    1    3    3    0    0 -0.60011896955E+03 -0.39680283312E+03 -0.96418509360E+02  0.72587312592E+03  0.00000000000E+00 0. -1.
         22    1    1    2    0    0  0.11062784585E+04  0.66216418566E+03  0.17495440758E+04  0.21732965535E+04  0.00000000000E+00 0. -1.
<mgrwt>
<rscale>  0 0.30618178E+04</rscale>
<asrwt>0</asrwt>
<pdfrwt beam="1">  1        1 0.39275752E+00 0.30618178E+04</pdfrwt>
<pdfrwt beam="2">  1       -1 0.14123667E+00 0.30618178E+04</pdfrwt>
<totfact> 0.43139378E-01</totfact>
</mgrwt>
</event>
<event>
 6    1  0.8968082E-007  0.2540660E+04  0.7818608E-02  0.8388642E-01
          1   -1    0    0  501    0  0.00000000000E+00  0.00000000000E+00  0.67755839794E+03  0.67755839794E+03  0.00000000000E+00 0. -1.
         -1   -1    0    0    0  501 -0.00000000000E+00 -0.00000000000E+00 -0.23816963642E+04  0.23816963642E+04  0.00000000000E+00 0.  1.
         23    2    1    2    0    0  0.67691551101E+03  0.23585422889E+03 -0.21135372746E+04  0.22337551437E+04  0.93703812976E+02 0.  0.
         13    1    3    3    0    0  0.19556430132E+03  0.37006968636E+02 -0.49611566815E+03  0.53455183833E+03  0.00000000000E+00 0.  1.
        -13    1    3    3    0    0  0.48135120970E+03  0.19884726026E+03 -0.16174216064E+04  0.16992033054E+04  0.00000000000E+00 0. -1.
         22    1    1    2    0    0 -0.67691551101E+03 -0.23585422889E+03  0.40939930835E+03  0.82549961842E+03  0.00000000000E+00 0. -1.
<mgrwt>
<rscale>  0 0.25406601E+04</rscale>
<asrwt>0</asrwt>
<pdfrwt beam="1">  1        1 0.10423975E+00 0.25406601E+04</pdfrwt>
<pdfrwt beam="2">  1       -1 0.36641483E+00 0.25406601E+04</pdfrwt>
<totfact> 0.30607137E-01</totfact>
</mgrwt>
</event>
<event>
 6    1  0.8968082E-007  0.1512518E+04  0.7818608E-02  0.8876171E-01
          2   -1    0    0  501    0  0.00000000000E+00  0.00000000000E+00  0.17143846379E+04  0.17143846379E+04  0.00000000000E+00 0. -1.
         -2   -1    0    0    0  501 -0.00000000000E+00 -0.00000000000E+00 -0.33360527942E+03  0.33360527942E+03  0.00000000000E+00 0.  1.
         23    2    1    2    0    0 -0.11050148284E+03 -0.52136971446E+03 -0.28013737404E+02  0.54175788212E+03  0.93165854729E+02 0.  0.
         11    1    3    3    0    0 -0.89691286952E+02 -0.43175889895E+03  0.12691923336E+02  0.44115910814E+03  0.00000000000E+00 0. -1.
        -11    1    3    3    0    0 -0.20810195892E+02 -0.89610815504E+02 -0.40705660740E+02  0.10059877397E+03  0.00000000000E+00 0.  1.
         22    1    1    2    0    0  0.11050148284E+03  0.52136971446E+03  0.14087930959E+04  0.15062320352E+04  0.00000000000E+00 0. -1.
<mgrwt>
<rscale>  0 0.15125181E+04</rscale>
<asrwt>0</asrwt>
<pdfrwt beam="1">  1        2 0.26375148E+00 0.15125181E+04</pdfrwt>
<pdfrwt beam="2">  1       -2 0.51323890E-01 0.15125181E+04</pdfrwt>
<totfact> 0.33332202E+01</totfact>
</mgrwt>
</event>
<event>
 6    1  0.8968082E-007  0.1170733E+04  0.7818608E-02  0.9138866E-01
          2   -1    0    0  501    0  0.00000000000E+00  0.00000000000E+00  0.90969932541E+03  0.90969932541E+03  0.00000000000E+00 0. -1.
         -2   -1    0    0    0  501 -0.00000000000E+00 -0.00000000000E+00 -0.37666752348E+03  0.37666752348E+03  0.00000000000E+00 0.  1.
         23    2    1    2    0    0  0.55270976343E+03  0.17733998302E+03  0.21353500521E+03  0.62378420854E+03  0.81067800025E+02 0.  0.
         13    1    3    3    0    0  0.15102760497E+03  0.81235441520E+02  0.41977962461E+02  0.17655221254E+03  0.00000000000E+00 0.  1.
        -13    1    3    3    0    0  0.40168215846E+03  0.96104541501E+02  0.17155704275E+03  0.44723199600E+03  0.00000000000E+00 0. -1.
         22    1    1    2    0    0 -0.55270976343E+03 -0.17733998302E+03  0.31949679672E+03  0.66258264034E+03  0.00000000000E+00 0.  1.
<mgrwt>
<rscale>  0 0.11707334E+04</rscale>
<asrwt>0</asrwt>
<pdfrwt beam="1">  1        2 0.13995374E+00 0.11707334E+04</pdfrwt>
<pdfrwt beam="2">  1       -2 0.57948850E-01 0.11707334E+04</pdfrwt>
<totfact> 0.79593351E+01</totfact>
</mgrwt>
</event>
<event>
 6    1  0.8968082E-007  0.2732768E+04  0.7818608E-02  0.8324450E-01
          1   -1    0    0  501    0  0.00000000000E+00  0.00000000000E+00  0.28827123230E+04  0.28827123230E+04  0.00000000000E+00 0. -1.
         -1   -1    0    0    0  501 -0.00000000000E+00 -0.00000000000E+00 -0.64765586150E+03  0.64765586150E+03  0.00000000000E+00 0.  1.
         23    2    1    2    0    0 -0.54985476030E+03 -0.99314821570E+03  0.20984527356E+04  0.23869766445E+04  0.73959325427E+02 0.  0.
         11    1    3    3    0    0 -0.26799979091E+03 -0.55353653922E+03  0.11663204414E+04  0.13185332610E+04  0.00000000000E+00 0. -1.
        -11    1    3    3    0    0 -0.28185496940E+03 -0.43961167648E+03  0.93213229420E+03  0.10684433835E+04  0.00000000000E+00 0.  1.
         22    1    1    2    0    0  0.54985476030E+03  0.99314821570E+03  0.13660372582E+03  0.11433915400E+04  0.00000000000E+00 0.  1.
<mgrwt>
<rscale>  0 0.27327682E+04</rscale>
<asrwt>0</asrwt>
<pdfrwt beam="1">  1        1 0.44349420E+00 0.27327682E+04</pdfrwt>
<pdfrwt beam="2">  1       -1 0.99639365E-01 0.27327682E+04</pdfrwt>
<totfact> 0.60806875E-01</totfact>
</mgrwt>
</event>
<event>
 6    1  0.8968082E-007  0.2913163E+04  0.7818608E-02  0.8268972E-01
          2   -1    0    0  501    0  0.00000000000E+00  0.00000000000E+00  0.31047055016E+04  0.31047055016E+04  0.00000000000E+00 0. -1.
         -2   -1    0    0    0  501 -0.00000000000E+00 -0.00000000000E+00 -0.68335930253E+03  0.68335930253E+03  0.00000000000E+00 0.  1.
         23    2    1    2    0    0  0.89404112171E+03 -0.78149704858E+03  0.11804135263E+03  0.11966828601E+04  0.89827292433E+02 0.  0.
         13    1    3    3    0    0  0.32748717947E+03 -0.28371430482E+03  0.86584212377E+02  0.44185799224E+03  0.00000000000E+00 0. -1.
        -13    1    3    3    0    0  0.56655394224E+03 -0.49778274377E+03  0.31457140251E+02  0.75482486785E+03  0.00000000000E+00 0.  1.
         22    1    1    2    0    0 -0.89404112171E+03  0.78149704858E+03  0.23033048465E+04  0.25913819441E+04  0.00000000000E+00 0. -1.
<mgrwt>
<rscale>  0 0.29131628E+04</rscale>
<asrwt>0</asrwt>
<pdfrwt beam="1">  1        2 0.47764699E+00 0.29131628E+04</pdfrwt>
<pdfrwt beam="2">  1       -2 0.10513220E+00 0.29131628E+04</pdfrwt>
<totfact> 0.94369718E-01</totfact>
</mgrwt>
</event>
<event>
 6    1  0.8968082E-007  0.2272357E+04  0.7818608E-02  0.8488901E-01
         -4   -1    0    0    0  501 -0.00000000000E+00  0.00000000000E+00  0.12941194460E+04  0.12941194460E+04  0.00000000000E+00 0.  1.
          4   -1    0    0  501    0  0.00000000000E+00 -0.00000000000E+00 -0.99751311158E+03  0.99751311158E+03  0.00000000000E+00 0. -1.
         23    2    1    2    0    0 -0.10525805432E+04 -0.37921986034E+03 -0.40116552818E+02  0.11232508540E+04  0.91376369002E+02 0.  0.
         13    1    3    3    0    0 -0.70987236544E+03 -0.20984536639E+03 -0.29384833137E+02  0.74082205787E+03  0.00000000000E+00 0. -1.
        -13    1    3    3    0    0 -0.34270817778E+03 -0.16937449395E+03 -0.10731719681E+02  0.38242879616E+03  0.00000000000E+00 0.  1.
         22    1    1    2    0    0  0.10525805432E+04  0.37921986034E+03  0.33672288725E+03  0.11683817036E+04  0.00000000000E+00 0. -1.
<mgrwt>
<rscale>  0 0.22723566E+04</rscale>
<asrwt>0</asrwt>
<pdfrwt beam="1">  1        4 0.15346356E+00 0.22723566E+04</pdfrwt>
<pdfrwt beam="2">  1       -4 0.19909530E+00 0.22723566E+04</pdfrwt>
<totfact> 0.67863511E-02</totfact>
</mgrwt>
</event>
<event>
 6    1  0.8968082E-007  0.1589503E+04  0.7818608E-02  0.8827023E-01
         -1   -1    0    0    0  501 -0.00000000000E+00  0.00000000000E+00  0.35645708163E+03  0.35645708163E+03  0.00000000000E+00 0.  1.
          1   -1    0    0  501    0  0.00000000000E+00 -0.00000000000E+00 -0.17719662014E+04  0.17719662014E+04  0.00000000000E+00 0. -1.
         23    2    1    2    0    0  0.55517448710E+03 -0.18203493889E+03 -0.14264479303E+04  0.15440645853E+04  0.89589707186E+02 0.  0.
         13    1    3    3    0    0  0.54586546197E+03 -0.16286979612E+03 -0.13685893520E+04  0.14824076657E+04  0.00000000000E+00 0.  1.
        -13    1    3    3    0    0  0.93090251285E+01 -0.19165142777E+02 -0.57858578281E+02  0.61656919541E+02  0.00000000000E+00 0. -1.
         22    1    1    2    0    0 -0.55517448710E+03  0.18203493889E+03  0.10938810463E+02  0.58435869778E+03  0.00000000000E+00 0.  1.
<mgrwt>
<rscale>  0 0.15895029E+04</rscale>
<asrwt>0</asrwt>
<pdfrwt beam="1">  1        1 0.27261018E+00 0.15895029E+04</pdfrwt>
<pdfrwt beam="2">  1       -1 0.54839551E-01 0.15895029E+04</pdfrwt>
<totfact> 0.13737893E+01</totfact>
</mgrwt>
</event>
<event>
 6    1  0.8968082E-007  0.2527134E+04  0.7818608E-02  0.8393382E-01
          2   -1    0    0  501    0  0.00000000000E+00  0.00000000000E+00  0.25964186464E+04  0.25964186464E+04  0.00000000000E+00 0. -1.
         -2   -1    0    0    0  501 -0.00000000000E+00 -0.00000000000E+00 -0.61492446700E+03  0.61492446700E+03  0.00000000000E+00 0.  1.
         23    2    1    2    0    0 -0.28646947253E+03  0.83005014541E+03 -0.15961448223E+03  0.89717062555E+03  0.91598830883E+02 0.  0.
         13    1    3    3    0    0 -0.17824903505E+03  0.59917022496E+03 -0.81035620643E+02  0.63035263844E+03  0.00000000000E+00 0. -1.
        -13    1    3    3    0    0 -0.10822043748E+03  0.23087992046E+03 -0.78578861591E+02  0.26681798712E+03  0.00000000000E+00 0.  1.
         22    1    1    2    0    0  0.28646947253E+03 -0.83005014541E+03  0.21411086616E+04  0.23141724878E+04  0.00000000000E+00 0. -1.
<mgrwt>
<rscale>  0 0.25271338E+04</rscale>
<asrwt>0</asrwt>
<pdfrwt beam="1">  1        2 0.39944902E+00 0.25271338E+04</pdfrwt>
<pdfrwt beam="2">  1       -2 0.94603765E-01 0.25271338E+04</pdfrwt>
<totfact> 0.25607214E+00</totfact>
</mgrwt>
</event>
<event>
 6    1  0.8968082E-007  0.5399266E+03  0.7818608E-02  0.1003853E+00
          1   -1    0    0  501    0  0.00000000000E+00  0.00000000000E+00  0.68156776580E+03  0.68156776580E+03  0.00000000000E+00 0. -1.
         -1   -1    0    0    0  501 -0.00000000000E+00 -0.00000000000E+00 -0.10693022255E+03  0.10693022255E+03  0.00000000000E+00 0.  1.
         23    2    1    2    0    0  0.19522659000E+03 -0.27484163441E+02  0.50290490544E+02  0.22831174043E+03  0.10357758780E+03 0.  0.
         13    1    3    3    0    0  0.18440054282E+03 -0.37936494096E+01  0.68262205981E+02  0.19666641995E+03  0.00000000000E+00 0. -1.
        -13    1    3    3    0    0  0.10826047180E+02 -0.23690514032E+02 -0.17971715437E+02  0.31645320481E+02  0.00000000000E+00 0.  1.
         22    1    1    2    0    0 -0.19522659000E+03  0.27484163441E+02  0.52434705270E+03  0.56018624792E+03  0.00000000000E+00 0. -1.
<mgrwt>
<rscale>  0 0.53992664E+03</rscale>
<asrwt>0</asrwt>
<pdfrwt beam="1">  1        1 0.10485658E+00 0.53992664E+03</pdfrwt>
<pdfrwt beam="2">  1       -1 0.16450804E-01 0.53992664E+03</pdfrwt>
<totfact> 0.80900887E+02</totfact>
</mgrwt>
</event>
<event>
 6    1  0.8968082E-007  0.2649632E+04  0.7818608E-02  0.8351535E-01
         -1   -1    0    0    0  501 -0.00000000000E+00  0.00000000000E+00  0.22042216599E+04  0.22042216599E+04  0.00000000000E+00 0.  1.
          1   -1    0    0  501    0  0.00000000000E+00 -0.00000000000E+00 -0.79626149319E+03  0.79626149319E+03  0.00000000000E+00 0. -1.
         23    2    1    2    0    0  0.10315348138E+04  0.76969309829E+03  0.35691455401E+03  0.13388007474E+04  0.92238303562E+02 0.  0.
         11    1    3    3    0    0  0.57761014988E+03  0.46362049515E+03  0.24388599613E+03  0.77978062804E+03  0.00000000000E+00 0.  1.
        -11    1    3    3    0    0  0.45392466391E+03  0.30607260314E+03  0.11302855788E+03  0.55902011932E+03  0.00000000000E+00 0. -1.
         22    1    1    2    0    0 -0.10315348138E+04 -0.76969309829E+03  0.10510456127E+04  0.16616824058E+04  0.00000000000E+00 0.  1.
<mgrwt>
<rscale>  0 0.26496315E+04</rscale>
<asrwt>0</asrwt>
<pdfrwt beam="1">  1        1 0.12250177E+00 0.26496315E+04</pdfrwt>
<pdfrwt beam="2">  1       -1 0.33911102E+00 0.26496315E+04</pdfrwt>
<totfact> 0.35829653E-01</totfact>
</mgrwt>
</event>
<event>
 6    1  0.8968082E-007  0.3515053E+04  0.7818608E-02  0.8110232E-01
          1   -1    0    0  501    0  0.00000000000E+00  0.00000000000E+00  0.23556024173E+04  0.23556024173E+04  0.00000000000E+00 0. -1.
         -1   -1    0    0    0  501 -0.00000000000E+00 -0.00000000000E+00 -0.13112994596E+04  0.13112994596E+04  0.00000000000E+00 0.  1.
         23    2    1    2    0    0  0.76970042682E+03 -0.13052296103E+04  0.14490089055E+04  0.20985109859E+04  0.89768965193E+02 0.  0.
         11    1    3    3    0    0  0.34421230926E+03 -0.66973114254E+03  0.70472513590E+03  0.10313386613E+04  0.00000000000E+00 0. -1.
        -11    1    3    3    0    0  0.42548811756E+03 -0.63549846778E+03  0.74428376963E+03  0.10671723246E+04  0.00000000000E+00 0.  1.
         22    1    1    2    0    0 -0.76970042682E+03  0.13052296103E+04 -0.40470594775E+03  0.15683908910E+04  0.00000000000E+00 0.  1.
<mgrwt>
<rscale>  0 0.35150534E+04</rscale>
<asrwt>0</asrwt>
<pdfrwt beam="1">  1        1 0.36240037E+00 0.35150534E+04</pdfrwt>
<pdfrwt beam="2">  1       -1 0.20173838E+00 0.35150534E+04</pdfrwt>
<totfact> 0.20333669E-01</totfact>
</mgrwt>
</event>
<event>
 6    1  0.8968082E-007  0.2885233E+04  0.7818608E-02  0.8277285E-01
         -1   -1    0    0    0  501 -0.00000000000E+00  0.00000000000E+00  0.17577951736E+04  0.17577951736E+04  0.00000000000E+00 0.  1.
          1   -1    0    0  501    0  0.00000000000E+00 -0.00000000000E+00 -0.11839502317E+04  0.11839502317E+04  0.00000000000E+00 0. -1.
         23    2    1    2    0    0 -0.19565733305E+03  0.47784238869E+03 -0.10845797990E+04  0.12047975761E+04  0.92783181187E+02 0.  0.
         11    1    3    3    0    0 -0.96580522603E+02  0.32920257991E+03 -0.77146434010E+03  0.84430999284E+03  0.00000000000E+00 0.  1.
        -11    1    3    3    0    0 -0.99076810444E+02  0.14863980878E+03 -0.31311545886E+03  0.36048758328E+03  0.00000000000E+00 0. -1.
         22    1    1    2    0    0  0.19565733305E+03 -0.47784238869E+03  0.16584247408E+04  0.17369478292E+04  0.00000000000E+00 0.  1.
<mgrwt>
<rscale>  0 0.28852327E+04</rscale>
<asrwt>0</asrwt>
<pdfrwt beam="1">  1        1 0.18214619E+00 0.28852327E+04</pdfrwt>
<pdfrwt beam="2">  1       -1 0.27043003E+00 0.28852327E+04</pdfrwt>
<totfact> 0.48440573E-01</totfact>
</mgrwt>
</event>
<event>
 6    1  0.8968082E-007  0.3408228E+04  0.7818608E-02  0.8135890E-01
         -2   -1    0    0    0  501 -0.00000000000E+00  0.00000000000E+00  0.21429248680E+04  0.21429248680E+04  0.00000000000E+00 0.  1.
          2   -1    0    0  501    0  0.00000000000E+00 -0.00000000000E+00 -0.13551594373E+04  0.13551594373E+04  0.00000000000E+00 0. -1.
         23    2    1    2    0    0 -0.16863483364E+04  0.19509407210E+03  0.53175583046E+03  0.17812927269E+04  0.91690279028E+02 0.  0.
         11    1    3    3    0    0 -0.59003006571E+03  0.29282348460E+02  0.20602350239E+03  0.62565055575E+03  0.00000000000E+00 0. -1.
        -11    1    3    3    0    0 -0.10963182706E+04  0.16581172364E+03  0.32573232808E+03  0.11556421712E+04  0.00000000000E+00 0.  1.
         22    1    1    2    0    0  0.16863483364E+04 -0.19509407210E+03  0.25600960025E+03  0.17167915785E+04  0.00000000000E+00 0. -1.
<mgrwt>
<rscale>  0 0.34082282E+04</rscale>
<asrwt>0</asrwt>
<pdfrwt beam="1">  1        2 0.20848607E+00 0.34082282E+04</pdfrwt>
<pdfrwt beam="2">  1       -2 0.32968075E+00 0.34082282E+04</pdfrwt>
<totfact> 0.26504067E-01</totfact>
</mgrwt>
</event>
<event>
 6    1  0.8968082E-007  0.1655565E+04  0.7818608E-02  0.8787121E-01
         -1   -1    0    0    0  501 -0.00000000000E+00  0.00000000000E+00  0.90879704918E+03  0.90879704918E+03  0.00000000000E+00 0.  1.
          1   -1    0    0  501    0  0.00000000000E+00 -0.00000000000E+00 -0.75399008818E+03  0.75399008818E+03  0.00000000000E+00 0. -1.
         23    2    1    2    0    0  0.70349185623E+03 -0.62101257412E+01  0.51087653810E+03  0.87429179737E+03  0.91934500265E+02 0.  0.
         11    1    3    3    0    0  0.33920816908E+03 -0.48934646095E+02  0.24626262148E+03  0.42202139791E+03  0.00000000000E+00 0. -1.
        -11    1    3    3    0    0  0.36428368714E+03  0.42724520353E+02  0.26461391662E+03  0.45227039946E+03  0.00000000000E+00 0.  1.
         22    1    1    2    0    0 -0.70349185623E+03  0.62101257412E+01 -0.35606957710E+03  0.78849533998E+03  0.00000000000E+00 0. -1.
<mgrwt>
<rscale>  0 0.16555651E+04</rscale>
<asrwt>0</asrwt>
<pdfrwt beam="1">  1        1 0.11599847E+00 0.16555651E+04</pdfrwt>
<pdfrwt beam="2">  1       -1 0.13981493E+00 0.16555651E+04</pdfrwt>
<totfact> 0.97598501E+00</totfact>
</mgrwt>
</event>
<event>
 6    1  0.8968082E-007  0.3223826E+04  0.7818608E-02  0.8182553E-01
          2   -1    0    0  501    0  0.00000000000E+00  0.00000000000E+00  0.18458647508E+04  0.18458647508E+04  0.00000000000E+00 0. -1.
         -2   -1    0    0    0  501 -0.00000000000E+00 -0.00000000000E+00 -0.14076132843E+04  0.14076132843E+04  0.00000000000E+00 0.  1.
         23    2    1    2    0    0 -0.77098517436E+03 -0.12476598525E+04 -0.45235134187E+03  0.15375973257E+04  0.92252657298E+02 0.  0.
         11    1    3    3    0    0 -0.34282208232E+03 -0.62896000226E+03 -0.19487546108E+03  0.74235713097E+03  0.00000000000E+00 0.  1.
        -11    1    3    3    0    0 -0.42816309205E+03 -0.61869985025E+03 -0.25747588079E+03  0.79524019470E+03  0.00000000000E+00 0. -1.
         22    1    1    2    0    0  0.77098517436E+03  0.12476598525E+04  0.89060280832E+03  0.17158807094E+04  0.00000000000E+00 0. -1.
<mgrwt>
<rscale>  0 0.32238261E+04</rscale>
<asrwt>0</asrwt>
<pdfrwt beam="1">  1        2 0.28397919E+00 0.32238261E+04</pdfrwt>
<pdfrwt beam="2">  1       -2 0.21655589E+00 0.32238261E+04</pdfrwt>
<totfact> 0.71092979E-01</totfact>
</mgrwt>
</event>
<event>
 6    1  0.8968082E-007  0.1583971E+04  0.7818608E-02  0.8830456E-01
         -2   -1    0    0    0  501 -0.00000000000E+00  0.00000000000E+00  0.22509058520E+03  0.22509058520E+03  0.00000000000E+00 0.  1.
          2   -1    0    0  501    0  0.00000000000E+00 -0.00000000000E+00 -0.27866151905E+04  0.27866151905E+04  0.00000000000E+00 0. -1.
         23    2    1    2    0    0 -0.41502123230E+03  0.18838510675E+03 -0.60124508846E+02  0.46912165433E+03  0.93426967713E+02 0.  0.
         13    1    3    3    0    0 -0.77623113266E+02  0.99727318136E+01 -0.37512451593E+02  0.86787021595E+02  0.00000000000E+00 0. -1.
        -13    1    3    3    0    0 -0.33739811903E+03  0.17841237493E+03 -0.22612057254E+02  0.38233463273E+03  0.00000000000E+00 0.  1.
         22    1    1    2    0    0  0.41502123230E+03 -0.18838510675E+03 -0.25014000964E+04  0.25425841213E+04  0.00000000000E+00 0. -1.
<mgrwt>
<rscale>  0 0.15839708E+04</rscale>
<asrwt>0</asrwt>
<pdfrwt beam="1">  1        2 0.42871006E+00 0.15839708E+04</pdfrwt>
<pdfrwt beam="2">  1       -2 0.34629319E-01 0.15839708E+04</pdfrwt>
<totfact> 0.17760362E+01</totfact>
</mgrwt>
</event>
<event>
 6    1  0.8968082E-007  0.8986421E+03  0.7818608E-02  0.9427280E-01
         -2   -1    0    0    0  501 -0.00000000000E+00  0.00000000000E+00  0.21123032636E+03  0.21123032636E+03  0.00000000000E+00 0.  1.
          2   -1    0    0  501    0  0.00000000000E+00 -0.00000000000E+00 -0.95577858040E+03  0.95577858040E+03  0.00000000000E+00 0. -1.
         23    2    1    2    0    0 -0.33671229028E+03  0.27632140968E+01  0.46362885115E+01  0.34563184318E+03  0.77827206525E+02 0.  0.
         13    1    3    3    0    0 -0.16176526247E+03 -0.17214353911E+02 -0.31951785618E+02  0.16578676282E+03  0.00000000000E+00 0.  1.
        -13    1    3    3    0    0 -0.17494702781E+03  0.19977568008E+02  0.36588074129E+02  0.17984508037E+03  0.00000000000E+00 0. -1.
         22    1    1    2    0    0  0.33671229028E+03 -0.27632140968E+01 -0.74918454255E+03  0.82137706358E+03  0.00000000000E+00 0.  1.
<mgrwt>
<rscale>  0 0.89864213E+03</rscale>
<asrwt>0</asrwt>
<pdfrwt beam="1">  1        2 0.14704286E+00 0.89864213E+03</pdfrwt>
<pdfrwt beam="2">  1       -2 0.32496973E-01 0.89864213E+03</pdfrwt>
<totfact> 0.23779172E+02</totfact>
</mgrwt>
</event>
<event>
 6    1  0.8968082E-007  0.2814582E+04  0.7818608E-02  0.8298756E-01
         -2   -1    0    0    0  501 -0.00000000000E+00  0.00000000000E+00  0.19167272530E+04  0.19167272530E+04  0.00000000000E+00 0.  1.
          2   -1    0    0  501    0  0.00000000000E+00 -0.00000000000E+00 -0.10332548397E+04  0.10332548397E+04  0.00000000000E+00 0. -1.
         23    2    1    2    0    0 -0.12079389925E+04  0.70111965464E+03  0.27438223330E+03  0.14262773224E+04  0.91082438580E+02 0.  0.
         13    1    3    3    0    0 -0.44669250709E+03  0.29889935563E+03  0.13412000094E+03  0.55395234032E+03  0.00000000000E+00 0.  1.
        -13    1    3    3    0    0 -0.76124648542E+03  0.40222029901E+03  0.14026223236E+03  0.87232498206E+03  0.00000000000E+00 0. -1.
         22    1    1    2    0    0  0.12079389925E+04 -0.70111965464E+03  0.60909018001E+03  0.15237047703E+04  0.00000000000E+00 0. -1.
<mgrwt>
<rscale>  0 0.28145818E+04</rscale>
<asrwt>0</asrwt>
<pdfrwt beam="1">  1        2 0.15896228E+00 0.28145818E+04</pdfrwt>
<pdfrwt beam="2">  1       -2 0.29488111E+00 0.28145818E+04</pdfrwt>
<totfact> 0.71211463E-01</totfact>
</mgrwt>
</event>
<event>
 6    1  0.8968082E-007  0.2413410E+04  0.7818608E-02  0.8434500E-01
          2   -1    0    0  501    0  0.00000000000E+00  0.00000000000E+00  0.23819577659E+04  0.23819577659E+04  0.00000000000E+00 0. -1.
         -2   -1    0    0    0  501 -0.00000000000E+00 -0.00000000000E+00 -0.61131951726E+03  0.61131951726E+03  0.00000000000E+00 0.  1.
         23    2    1    2    0    0 -0.60921070958E+02 -0.63824848945E+03 -0.37872470881E+03  0.75032529213E+03  0.92103896628E+02 0.  0.
         11    1    3    3    0    0 -0.26595068124E+02 -0.57603713838E+03 -0.33500857366E+03  0.66690091232E+03  0.00000000000E+00 0.  1.
        -11    1    3    3    0    0 -0.34326002834E+02 -0.62211351077E+02 -0.43716135156E+02  0.83424379808E+02  0.00000000000E+00 0. -1.
         22    1    1    2    0    0  0.60921070958E+02  0.63824848945E+03  0.21493629575E+04  0.22429519910E+04  0.00000000000E+00 0. -1.
<mgrwt>
<rscale>  0 0.24134103E+04</rscale>
<asrwt>0</asrwt>
<pdfrwt beam="1">  1        2 0.36645504E+00 0.24134103E+04</pdfrwt>
<pdfrwt beam="2">  1       -2 0.94049157E-01 0.24134103E+04</pdfrwt>
<totfact> 0.34888653E+00</totfact>
</mgrwt>
</event>
<event>
 6    1  0.8968082E-007  0.2135651E+04  0.7818608E-02  0.8545699E-01
         -1   -1    0    0    0  501 -0.00000000000E+00  0.00000000000E+00  0.19381957990E+04  0.19381957990E+04  0.00000000000E+00 0.  1.
          1   -1    0    0  501    0  0.00000000000E+00 -0.00000000000E+00 -0.58830560991E+03  0.58830560991E+03  0.00000000000E+00 0. -1.
         23    2    1    2    0    0 -0.60278442719E+03  0.62321419863E+03  0.14098194169E+04  0.16574004278E+04  0.87409305565E+02 0.  0.
         13    1    3    3    0    0 -0.19628456048E+03  0.24162931381E+03  0.44518069637E+03  0.54322942335E+03  0.00000000000E+00 0.  1.
        -13    1    3    3    0    0 -0.40649986671E+03  0.38158488482E+03  0.96463872058E+03  0.11141710045E+04  0.00000000000E+00 0. -1.
         22    1    1    2    0    0  0.60278442719E+03 -0.62321419863E+03 -0.59929227822E+02  0.86910098112E+03  0.00000000000E+00 0. -1.
<mgrwt>
<rscale>  0 0.21356512E+04</rscale>
<asrwt>0</asrwt>
<pdfrwt beam="1">  1        1 0.90508556E-01 0.21356512E+04</pdfrwt>
<pdfrwt beam="2">  1       -1 0.29818397E+00 0.21356512E+04</pdfrwt>
<totfact> 0.10967019E+00</totfact>
</mgrwt>
</event>
<event>
 6    1  0.8968082E-007  0.1443022E+04  0.7818608E-02  0.8923253E-01
          1   -1    0    0  501    0  0.00000000000E+00  0.00000000000E+00  0.16263862442E+04  0.16263862442E+04  0.00000000000E+00 0. -1.
         -1   -1    0    0    0  501 -0.00000000000E+00 -0.00000000000E+00 -0.32008251530E+03  0.32008251530E+03  0.00000000000E+00 0.  1.
         23    2    1    2    0    0  0.46887132864E+03 -0.27427702067E+03  0.12904612819E+04  0.14030359762E+04  0.90285234650E+02 0.  0.
         13    1    3    3    0    0  0.16470893159E+03 -0.14687444517E+03  0.53615708608E+03  0.57979785766E+03  0.00000000000E+00 0. -1.
        -13    1    3    3    0    0  0.30416239705E+03 -0.12740257550E+03  0.75430419579E+03  0.82323811854E+03  0.00000000000E+00 0.  1.
         22    1    1    2    0    0 -0.46887132864E+03  0.27427702067E+03  0.15842447068E+02  0.54343278335E+03  0.00000000000E+00 0.  1.
<mgrwt>
<rscale>  0 0.14430216E+04</rscale>
<asrwt>0</asrwt>
<pdfrwt beam="1">  1        1 0.25021326E+00 0.14430216E+04</pdfrwt>
<pdfrwt beam="2">  1       -1 0.49243465E-01 0.14430216E+04</pdfrwt>
<totfact> 0.21491679E+01</totfact>
</mgrwt>
</event>
<event>
 6    1  0.8968082E-007  0.3451362E+04  0.7818608E-02  0.8125414E-01
         -2   -1    0    0    0  501 -0.00000000000E+00  0.00000000000E+00  0.21486963118E+04  0.21486963118E+04  0.00000000000E+00 0.  1.
          2   -1    0    0  501    0  0.00000000000E+00 -0.00000000000E+00 -0.13859447998E+04  0.13859447998E+04  0.00000000000E+00 0. -1.
         23    2    1    2    0    0 -0.87847779758E+03  0.13457452442E+04 -0.25866226955E+03  0.16304248381E+04  0.92873461794E+02 0.  0.
         13    1    3    3    0    0 -0.50107022992E+03  0.70880890729E+03 -0.10583179973E+03  0.87446086945E+03  0.00000000000E+00 0. -1.
        -13    1    3    3    0    0 -0.37740756766E+03  0.63693633693E+03 -0.15283046983E+03  0.75596396868E+03  0.00000000000E+00 0.  1.
         22    1    1    2    0    0  0.87847779758E+03 -0.13457452442E+04  0.10214137815E+04  0.19042162735E+04  0.00000000000E+00 0.  1.
<mgrwt>
<rscale>  0 0.34513617E+04</rscale>
<asrwt>0</asrwt>
<pdfrwt beam="1">  1        2 0.21322228E+00 0.34513617E+04</pdfrwt>
<pdfrwt beam="2">  1       -2 0.33056866E+00 0.34513617E+04</pdfrwt>
<totfact> 0.25034083E-01</totfact>
</mgrwt>
</event>
<event>
 6    1  0.8968082E-007  0.1201955E+04  0.7818608E-02  0.9111147E-01
         -2   -1    0    0    0  501 -0.00000000000E+00  0.00000000000E+00  0.12751966493E+03  0.12751966493E+03  0.00000000000E+00 0.  1.
          2   -1    0    0  501    0  0.00000000000E+00 -0.00000000000E+00 -0.28323012926E+04  0.28323012926E+04  0.00000000000E+00 0. -1.
         23    2    1    2    0    0  0.29371870377E+03  0.48694782617E+03 -0.90713231293E+03  0.10743682477E+04  0.89382526546E+02 0.  0.
         13    1    3    3    0    0  0.77866277419E+02  0.18120977003E+03 -0.25370561103E+03  0.32135132641E+03  0.00000000000E+00 0. -1.
        -13    1    3    3    0    0  0.21585242635E+03  0.30573805614E+03 -0.65342670190E+03  0.75301692125E+03  0.00000000000E+00 0.  1.
         22    1    1    2    0    0 -0.29371870377E+03 -0.48694782617E+03 -0.17976493147E+04  0.18854527098E+04  0.00000000000E+00 0. -1.
<mgrwt>
<rscale>  0 0.12019553E+04</rscale>
<asrwt>0</asrwt>
<pdfrwt beam="1">  1        2 0.43573865E+00 0.12019553E+04</pdfrwt>
<pdfrwt beam="2">  1       -2 0.19618410E-01 0.12019553E+04</pdfrwt>
<totfact> 0.48771302E+01</totfact>
</mgrwt>
</event>
<event>
 6    1  0.8968082E-007  0.2274248E+04  0.7818608E-02  0.8488145E-01
          1   -1    0    0  501    0  0.00000000000E+00  0.00000000000E+00  0.25311776052E+04  0.25311776052E+04  0.00000000000E+00 0. -1.
         -1   -1    0    0    0  501 -0.00000000000E+00 -0.00000000000E+00 -0.51084938674E+03  0.51084938674E+03  0.00000000000E+00 0.  1.
         23    2    1    2    0    0  0.45337455724E+03  0.97720240617E+03  0.53062326799E+03  0.12036326188E+04  0.81837624093E+02 0.  0.
         11    1    3    3    0    0  0.25857655588E+03  0.60689723720E+03  0.36231206958E+03  0.75263279727E+03  0.00000000000E+00 0.  1.
        -11    1    3    3    0    0  0.19479800136E+03  0.37030516897E+03  0.16831119841E+03  0.45099982152E+03  0.00000000000E+00 0. -1.
         22    1    1    2    0    0 -0.45337455724E+03 -0.97720240617E+03  0.14897049505E+04  0.18383943732E+04  0.00000000000E+00 0. -1.
<mgrwt>
<rscale>  0 0.22742476E+04</rscale>
<asrwt>0</asrwt>
<pdfrwt beam="1">  1        1 0.38941193E+00 0.22742476E+04</pdfrwt>
<pdfrwt beam="2">  1       -1 0.78592215E-01 0.22742476E+04</pdfrwt>
<totfact> 0.18911974E+00</totfact>
</mgrwt>
</event>
<event>
 6    1  0.8968082E-007  0.1070285E+04  0.7818608E-02  0.9234648E-01
          2   -1    0    0  501    0  0.00000000000E+00  0.00000000000E+00  0.10092528203E+04  0.10092528203E+04  0.00000000000E+00 0. -1.
         -2   -1    0    0    0  501 -0.00000000000E+00 -0.00000000000E+00 -0.28375178612E+03  0.28375178612E+03  0.00000000000E+00 0.  1.
         23    2    1    2    0    0 -0.21140139658E+03  0.42870074252E+03  0.64549635217E+03  0.80836491938E+03  0.91177985865E+02 0.  0.
         11    1    3    3    0    0 -0.18272339811E+03  0.27740780619E+03  0.42478378211E+03  0.53924409380E+03  0.00000000000E+00 0.  1.
        -11    1    3    3    0    0 -0.28677998471E+02  0.15129293633E+03  0.22071257007E+03  0.26912082559E+03  0.00000000000E+00 0. -1.
         22    1    1    2    0    0  0.21140139658E+03 -0.42870074252E+03  0.80004682013E+02  0.48463968705E+03  0.00000000000E+00 0.  1.
<mgrwt>
<rscale>  0 0.10702846E+04</rscale>
<asrwt>0</asrwt>
<pdfrwt beam="1">  1        2 0.15526966E+00 0.10702846E+04</pdfrwt>
<pdfrwt beam="2">  1       -2 0.43654122E-01 0.10702846E+04</pdfrwt>
<totfact> 0.12289435E+02</totfact>
</mgrwt>
</event>
<event>
 6    1  0.8968082E-007  0.7422037E+03  0.7818608E-02  0.9647662E-01
          1   -1    0    0  501    0  0.00000000000E+00  0.00000000000E+00  0.47860406613E+03  0.47860406613E+03  0.00000000000E+00 0. -1.
         -1   -1    0    0    0  501 -0.00000000000E+00 -0.00000000000E+00 -0.28774637203E+03  0.28774637203E+03  0.00000000000E+00 0.  1.
         23    2    1    2    0    0  0.32913767308E+03  0.84447084778E+01  0.26186902832E+03  0.42953367710E+03  0.86722954417E+02 0.  0.
         13    1    3    3    0    0  0.21128810291E+03 -0.14052126264E+02  0.21189070650E+03  0.29956267489E+03  0.00000000000E+00 0. -1.
        -13    1    3    3    0    0  0.11784957017E+03  0.22496834742E+02  0.49978321818E+02  0.12997100221E+03  0.00000000000E+00 0.  1.
         22    1    1    2    0    0 -0.32913767308E+03 -0.84447084778E+01 -0.71011334218E+02  0.33681676106E+03  0.00000000000E+00 0.  1.
<mgrwt>
<rscale>  0 0.74220370E+03</rscale>
<asrwt>0</asrwt>
<pdfrwt beam="1">  1        1 0.73631395E-01 0.74220370E+03</pdfrwt>
<pdfrwt beam="2">  1       -1 0.44268673E-01 0.74220370E+03</pdfrwt>
<totfact> 0.24068895E+02</totfact>
</mgrwt>
</event>
<event>
 6    1  0.8968082E-007  0.1494841E+04  0.7818608E-02  0.8887891E-01
         -2   -1    0    0    0  501 -0.00000000000E+00  0.00000000000E+00  0.31524126852E+03  0.31524126852E+03  0.00000000000E+00 0.  1.
          2   -1    0    0  501    0  0.00000000000E+00 -0.00000000000E+00 -0.17720941913E+04  0.17720941913E+04  0.00000000000E+00 0. -1.
         23    2    1    2    0    0 -0.32536788504E+03 -0.22653911570E+03  0.14910087266E+03  0.43316744397E+03  0.90657226572E+02 0.  0.
         11    1    3    3    0    0 -0.70126370618E+02 -0.98450228408E+02  0.51274976704E+02  0.13129843322E+03  0.00000000000E+00 0.  1.
        -11    1    3    3    0    0 -0.25524151442E+03 -0.12808888729E+03  0.97825895957E+02  0.30186901075E+03  0.00000000000E+00 0. -1.
         22    1    1    2    0    0  0.32536788504E+03  0.22653911570E+03 -0.16059537954E+04  0.16541680158E+04  0.00000000000E+00 0. -1.
<mgrwt>
<rscale>  0 0.14948408E+04</rscale>
<asrwt>0</asrwt>
<pdfrwt beam="1">  1        2 0.27262988E+00 0.14948408E+04</pdfrwt>
<pdfrwt beam="2">  1       -2 0.48498656E-01 0.14948408E+04</pdfrwt>
<totfact> 0.34802199E+01</totfact>
</mgrwt>
</event>
<event>
 6    1  0.8968082E-007  0.1400658E+04  0.7818608E-02  0.8953342E-01
         -1   -1    0    0    0  501 -0.00000000000E+00  0.00000000000E+00  0.65140171508E+03  0.65140171508E+03  0.00000000000E+00 0.  1.
          1   -1    0    0  501    0  0.00000000000E+00 -0.00000000000E+00 -0.75293113362E+03  0.75293113362E+03  0.00000000000E+00 0. -1.
         23    2    1    2    0    0 -0.37066393772E+02 -0.69590104348E+03 -0.67965303732E+02  0.70663755012E+03  0.95211159296E+02 0.  0.
         13    1    3    3    0    0 -0.58792360979E+02 -0.62125854021E+03 -0.75259332810E+02  0.62855602985E+03  0.00000000000E+00 0. -1.
        -13    1    3    3    0    0  0.21725967207E+02 -0.74642503274E+02  0.72940290777E+01  0.78081520261E+02  0.00000000000E+00 0.  1.
         22    1    1    2    0    0  0.37066393772E+02  0.69590104348E+03 -0.33564114813E+02  0.69769529859E+03  0.00000000000E+00 0.  1.
<mgrwt>
<rscale>  0 0.14006579E+04</rscale>
<asrwt>0</asrwt>
<pdfrwt beam="1">  1        1 0.11583556E+00 0.14006579E+04</pdfrwt>
<pdfrwt beam="2">  1       -1 0.10021565E+00 0.14006579E+04</pdfrwt>
<totfact> 0.22520709E+01</totfact>
</mgrwt>
</event>
<event>
 6    1  0.8968082E-007  0.3240893E+04  0.7818608E-02  0.8178100E-01
         -1   -1    0    0    0  501 -0.00000000000E+00  0.00000000000E+00  0.26607978249E+04  0.26607978249E+04  0.00000000000E+00 0.  1.
          1   -1    0    0  501    0  0.00000000000E+00 -0.00000000000E+00 -0.98686423488E+03  0.98686423488E+03  0.00000000000E+00 0. -1.
         23    2    1    2    0    0 -0.42666776603E+03  0.11800217422E+04  0.19893996089E+04  0.23538245491E+04  0.91008293947E+02 0.  0.
         13    1    3    3    0    0 -0.25226901567E+03  0.63226709895E+03  0.11521743815E+04  0.13382477895E+04  0.00000000000E+00 0. -1.
        -13    1    3    3    0    0 -0.17439875037E+03  0.54775464329E+03  0.83722522736E+03  0.10155767596E+04  0.00000000000E+00 0.  1.
         22    1    1    2    0    0  0.42666776603E+03 -0.11800217422E+04 -0.31546601891E+03  0.12938375106E+04  0.00000000000E+00 0. -1.
<mgrwt>
<rscale>  0 0.32408926E+04</rscale>
<asrwt>0</asrwt>
<pdfrwt beam="1">  1        1 0.15182527E+00 0.32408926E+04</pdfrwt>
<pdfrwt beam="2">  1       -1 0.40935351E+00 0.32408926E+04</pdfrwt>
<totfact> 0.79661003E-02</totfact>
</mgrwt>
</event>
<event>
 6    1  0.8968082E-007  0.2030249E+04  0.7818608E-02  0.8592607E-01
         -1   -1    0    0    0  501 -0.00000000000E+00  0.00000000000E+00  0.27068661483E+04  0.27068661483E+04  0.00000000000E+00 0.  1.
          1   -1    0    0  501    0  0.00000000000E+00 -0.00000000000E+00 -0.38069047962E+03  0.38069047962E+03  0.00000000000E+00 0. -1.
         23    2    1    2    0    0  0.18381050641E+03  0.55063817232E+03  0.24277521526E+04  0.24982294852E+04  0.10090266130E+03 0.  0.
         11    1    3    3    0    0  0.19420322928E+03  0.48526347811E+03  0.21271648025E+04  0.21904395984E+04  0.00000000000E+00 0. -1.
        -11    1    3    3    0    0 -0.10392722866E+02  0.65374694210E+02  0.30058735009E+03  0.30778988672E+03  0.00000000000E+00 0.  1.
         22    1    1    2    0    0 -0.18381050641E+03 -0.55063817232E+03 -0.10157648393E+03  0.58932714274E+03  0.00000000000E+00 0. -1.
<mgrwt>
<rscale>  0 0.20302494E+04</rscale>
<asrwt>0</asrwt>
<pdfrwt beam="1">  1        1 0.58567768E-01 0.20302494E+04</pdfrwt>
<pdfrwt beam="2">  1       -1 0.41644093E+00 0.20302494E+04</pdfrwt>
<totfact> 0.32758853E-01</totfact>
</mgrwt>
</event>
<event>
 6    1  0.8968082E-007  0.3599391E+04  0.7818608E-02  0.8090631E-01
         -2   -1    0    0    0  501 -0.00000000000E+00  0.00000000000E+00  0.16667463391E+04  0.16667463391E+04  0.00000000000E+00 0.  1.
          2   -1    0    0  501    0  0.00000000000E+00 -0.00000000000E+00 -0.19432491655E+04  0.19432491655E+04  0.00000000000E+00 0. -1.
         23    2    1    2    0    0 -0.15685008691E+03  0.17832899597E+04 -0.31233883259E+03  0.18194622742E+04  0.90345950500E+02 0.  0.
         11    1    3    3    0    0 -0.16158202891E+03  0.15733133686E+04 -0.29347726505E+03  0.16085871481E+04  0.00000000000E+00 0.  1.
        -11    1    3    3    0    0  0.47319420052E+01  0.20997659107E+03 -0.18861567541E+02  0.21087512609E+03  0.00000000000E+00 0. -1.
         22    1    1    2    0    0  0.15685008691E+03 -0.17832899597E+04  0.35836006191E+02  0.17905332305E+04  0.00000000000E+00 0.  1.
<mgrwt>
<rscale>  0 0.35993907E+04</rscale>
<asrwt>0</asrwt>
<pdfrwt beam="1">  1        2 0.29896141E+00 0.35993907E+04</pdfrwt>
<pdfrwt beam="2">  1       -2 0.25642251E+00 0.35993907E+04</pdfrwt>
<totfact> 0.34366419E-01</totfact>
</mgrwt>
</event>
<event>
 6    1  0.8968082E-007  0.1533399E+04  0.7818608E-02  0.8862542E-01
          1   -1    0    0  501    0  0.00000000000E+00  0.00000000000E+00  0.88369411174E+03  0.88369411174E+03  0.00000000000E+00 0. -1.
         -1   -1    0    0    0  501 -0.00000000000E+00 -0.00000000000E+00 -0.66519394313E+03  0.66519394313E+03  0.00000000000E+00 0.  1.
         23    2    1    2    0    0  0.51082322803E+03 -0.42619312310E+03 -0.26919958982E+03  0.72400503114E+03  0.95571530712E+02 0.  0.
         11    1    3    3    0    0  0.37200700091E+02 -0.70504443150E+02 -0.35313932638E+02  0.87188545288E+02  0.00000000000E+00 0. -1.
        -11    1    3    3    0    0  0.47362252793E+03 -0.35568867995E+03 -0.23388565718E+03  0.63681648585E+03  0.00000000000E+00 0.  1.
         22    1    1    2    0    0 -0.51082322803E+03  0.42619312310E+03  0.48769975842E+03  0.82488302373E+03  0.00000000000E+00 0. -1.
<mgrwt>
<rscale>  0 0.15333988E+04</rscale>
<asrwt>0</asrwt>
<pdfrwt beam="1">  1        1 0.13595294E+00 0.15333988E+04</pdfrwt>
<pdfrwt beam="2">  1       -1 0.10233753E+00 0.15333988E+04</pdfrwt>
<totfact> 0.16368794E+01</totfact>
</mgrwt>
</event>
<event>
 6    1  0.8968082E-007  0.2247854E+04  0.7818608E-02  0.8498770E-01
          1   -1    0    0  501    0  0.00000000000E+00  0.00000000000E+00  0.24972682549E+04  0.24972682549E+04  0.00000000000E+00 0. -1.
         -1   -1    0    0    0  501 -0.00000000000E+00 -0.00000000000E+00 -0.50583770654E+03  0.50583770654E+03  0.00000000000E+00 0.  1.
         23    2    1    2    0    0  0.49716129198E+03 -0.86626257776E+03  0.31419727950E+03  0.10510066704E+04  0.91186001748E+02 0.  0.
         13    1    3    3    0    0  0.82065297936E+02 -0.21623616369E+03  0.60045764855E+02  0.23895247538E+03  0.00000000000E+00 0. -1.
        -13    1    3    3    0    0  0.41509599404E+03 -0.65002641408E+03  0.25415151464E+03  0.81205419503E+03  0.00000000000E+00 0.  1.
         22    1    1    2    0    0 -0.49716129198E+03  0.86626257776E+03  0.16772332688E+04  0.19520992910E+04  0.00000000000E+00 0. -1.
<mgrwt>
<rscale>  0 0.22478545E+04</rscale>
<asrwt>0</asrwt>
<pdfrwt beam="1">  1        1 0.38419511E+00 0.22478545E+04</pdfrwt>
<pdfrwt beam="2">  1       -1 0.77821187E-01 0.22478545E+04</pdfrwt>
<totfact> 0.20434830E+00</totfact>
</mgrwt>
</event>
<event>
 6    1  0.8968082E-007  0.3614234E+04  0.7818608E-02  0.8087239E-01
          1   -1    0    0  501    0  0.00000000000E+00  0.00000000000E+00  0.18882937862E+04  0.18882937862E+04  0.00000000000E+00 0. -1.
         -1   -1    0    0    0  501 -0.00000000000E+00 -0.00000000000E+00 -0.17294300967E+04  0.17294300967E+04  0.00000000000E+00 0.  1.
         23    2    1    2    0    0 -0.21085515837E+02 -0.54076933454E+03  0.18040625097E+04  0.18858014740E+04  0.93432265248E+02 0.  0.
         13    1    3    3    0    0 -0.29789966260E+02 -0.13672856744E+03  0.58469497854E+03  0.60120741943E+03  0.00000000000E+00 0. -1.
        -13    1    3    3    0    0  0.87044504238E+01 -0.40404076710E+03  0.12193675312E+04  0.12845940546E+04  0.00000000000E+00 0.  1.
         22    1    1    2    0    0  0.21085515837E+02  0.54076933454E+03 -0.16451988202E+04  0.17319224088E+04  0.00000000000E+00 0.  1.
<mgrwt>
<rscale>  0 0.36142341E+04</rscale>
<asrwt>0</asrwt>
<pdfrwt beam="1">  1        1 0.29050674E+00 0.36142341E+04</pdfrwt>
<pdfrwt beam="2">  1       -1 0.26606617E+00 0.36142341E+04</pdfrwt>
<totfact> 0.15713708E-01</totfact>
</mgrwt>
</event>
<event>
 6    1  0.9012793E-007  0.2264006E+04  0.7818608E-02  0.8492250E-01
         -1   -1    0    0    0  501 -0.00000000000E+00  0.00000000000E+00  0.66638409001E+03  0.66638409001E+03  0.00000000000E+00 0.  1.
          1   -1    0    0  501    0  0.00000000000E+00 -0.00000000000E+00 -0.19229609738E+04  0.19229609738E+04  0.00000000000E+00 0. -1.
         23    2    1    2    0    0  0.94686056036E+03  0.49110836069E+03 -0.10565847534E+04  0.15041127407E+04  0.90837509588E+02 0.  0.
         13    1    3    3    0    0  0.50579638884E+03  0.31215541605E+03 -0.57397574872E+03  0.82626820757E+03  0.00000000000E+00 0.  1.
        -13    1    3    3    0    0  0.44106417151E+03  0.17895294464E+03 -0.48260900464E+03  0.67784453317E+03  0.00000000000E+00 0. -1.
         22    1    1    2    0    0 -0.94686056036E+03 -0.49110836069E+03 -0.19999213038E+03  0.10852323230E+04  0.00000000000E+00 0. -1.
<mgrwt>
<rscale>  0 0.22640058E+04</rscale>
<asrwt>0</asrwt>
<pdfrwt beam="1">  1        1 0.29584015E+00 0.22640058E+04</pdfrwt>
<pdfrwt beam="2">  1       -1 0.10252063E+00 0.22640058E+04</pdfrwt>
<totfact> 0.27423500E+00</totfact>
</mgrwt>
</event>
<event>
 6    1  0.8968082E-007  0.1701639E+04  0.7818608E-02  0.8760430E-01
         -2   -1    0    0    0  501 -0.00000000000E+00  0.00000000000E+00  0.69786885722E+03  0.69786885722E+03  0.00000000000E+00 0.  1.
          2   -1    0    0  501    0  0.00000000000E+00 -0.00000000000E+00 -0.10372917278E+04  0.10372917278E+04  0.00000000000E+00 0. -1.
         23    2    1    2    0    0 -0.54333250439E+03  0.62894865375E+03  0.33384903021E+01  0.83612111430E+03  0.91108467683E+02 0.  0.
         13    1    3    3    0    0 -0.30324947552E+03  0.41304791454E+03  0.20047844420E+02  0.51280672789E+03  0.00000000000E+00 0.  1.
        -13    1    3    3    0    0 -0.24008302887E+03  0.21590073922E+03 -0.16709354118E+02  0.32331438641E+03  0.00000000000E+00 0. -1.
         22    1    1    2    0    0  0.54333250439E+03 -0.62894865375E+03 -0.34276136087E+03  0.89903947071E+03  0.00000000000E+00 0.  1.
<mgrwt>
<rscale>  0 0.17016387E+04</rscale>
<asrwt>0</asrwt>
<pdfrwt beam="1">  1        2 0.15958334E+00 0.17016387E+04</pdfrwt>
<pdfrwt beam="2">  1       -2 0.10736444E+00 0.17016387E+04</pdfrwt>
<totfact> 0.15808501E+01</totfact>
</mgrwt>
</event>
<event>
 6    1  0.8968082E-007  0.4146086E+04  0.7818608E-02  0.7975708E-01
          2   -1    0    0  501    0  0.00000000000E+00  0.00000000000E+00  0.35074027423E+04  0.35074027423E+04  0.00000000000E+00 0. -1.
         -2   -1    0    0    0  501 -0.00000000000E+00 -0.00000000000E+00 -0.12252677326E+04  0.12252677326E+04  0.00000000000E+00 0.  1.
         23    2    1    2    0    0 -0.56490491241E+03  0.19836611382E+04  0.13679719818E+04  0.24766290053E+04  0.91185608635E+02 0.  0.
         11    1    3    3    0    0 -0.20660172794E+03  0.85098120190E+03  0.54559798681E+03  0.10317608459E+04  0.00000000000E+00 0. -1.
        -11    1    3    3    0    0 -0.35830318446E+03  0.11326799363E+04  0.82237399501E+03  0.14448681593E+04  0.00000000000E+00 0.  1.
         22    1    1    2    0    0  0.56490491241E+03 -0.19836611382E+04  0.91416302786E+03  0.22560414697E+04  0.00000000000E+00 0. -1.
<mgrwt>
<rscale>  0 0.41460861E+04</rscale>
<asrwt>0</asrwt>
<pdfrwt beam="1">  1        2 0.53960042E+00 0.41460861E+04</pdfrwt>
<pdfrwt beam="2">  1       -2 0.18850273E+00 0.41460861E+04</pdfrwt>
<totfact> 0.99170835E-02</totfact>
</mgrwt>
</event>
<event>
 6    1  0.8968082E-007  0.3904573E+04  0.7818608E-02  0.8024079E-01
         -1   -1    0    0    0  501 -0.00000000000E+00  0.00000000000E+00  0.25133298356E+04  0.25133298356E+04  0.00000000000E+00 0.  1.
          1   -1    0    0  501    0  0.00000000000E+00 -0.00000000000E+00 -0.15164829506E+04  0.15164829506E+04  0.00000000000E+00 0. -1.
         23    2    1    2    0    0 -0.11576130299E+04  0.15529210157E+04  0.25494823327E+03  0.19556755639E+04  0.89647652724E+02 0.  0.
         13    1    3    3    0    0 -0.10054918376E+04  0.13697232605E+04  0.19652217566E+03  0.17104901669E+04  0.00000000000E+00 0. -1.
        -13    1    3    3    0    0 -0.15212119230E+03  0.18319775519E+03  0.58426057610E+02  0.24518539692E+03  0.00000000000E+00 0.  1.
         22    1    1    2    0    0  0.11576130299E+04 -0.15529210157E+04  0.74189865174E+03  0.20741372224E+04  0.00000000000E+00 0.  1.
<mgrwt>
<rscale>  0 0.39045726E+04</rscale>
<asrwt>0</asrwt>
<pdfrwt beam="1">  1        1 0.23330507E+00 0.39045726E+04</pdfrwt>
<pdfrwt beam="2">  1       -1 0.38666613E+00 0.39045726E+04</pdfrwt>
<totfact> 0.44287504E-02</totfact>
</mgrwt>
</event>
<event>
 6    1  0.8968082E-007  0.1845723E+04  0.7818608E-02  0.8682356E-01
         -1   -1    0    0    0  501 -0.00000000000E+00  0.00000000000E+00  0.23589412597E+03  0.23589412597E+03  0.00000000000E+00 0.  1.
          1   -1    0    0  501    0  0.00000000000E+00 -0.00000000000E+00 -0.36104035146E+04  0.36104035146E+04  0.00000000000E+00 0. -1.
         23    2    1    2    0    0 -0.80866390439E+03  0.15274328437E+03 -0.83170099768E+03  0.11736318675E+04  0.91746334007E+02 0.  0.
         11    1    3    3    0    0 -0.29656143846E+03  0.69208840860E+02 -0.36886553850E+03  0.47833078087E+03  0.00000000000E+00 0. -1.
        -11    1    3    3    0    0 -0.51210246592E+03  0.83534443508E+02 -0.46283545918E+03  0.69530108667E+03  0.00000000000E+00 0.  1.
         22    1    1    2    0    0  0.80866390439E+03 -0.15274328437E+03 -0.25428083909E+04  0.26726657730E+04  0.00000000000E+00 0.  1.
<mgrwt>
<rscale>  0 0.18457226E+04</rscale>
<asrwt>0</asrwt>
<pdfrwt beam="1">  1        1 0.55544667E+00 0.18457226E+04</pdfrwt>
<pdfrwt beam="2">  1       -1 0.36291405E-01 0.18457226E+04</pdfrwt>
<totfact> 0.14039133E+00</totfact>
</mgrwt>
</event>
<event>
 6    1  0.8968082E-007  0.1321777E+04  0.7818608E-02  0.9012472E-01
         -2   -1    0    0    0  501 -0.00000000000E+00  0.00000000000E+00  0.13933570996E+03  0.13933570996E+03  0.00000000000E+00 0.  1.
          2   -1    0    0  501    0  0.00000000000E+00 -0.00000000000E+00 -0.31346843658E+04  0.31346843658E+04  0.00000000000E+00 0. -1.
         23    2    1    2    0    0 -0.56710369343E+03 -0.17339507884E+03 -0.80054145550E+03  0.10005093326E+04  0.92086102170E+02 0.  0.
         11    1    3    3    0    0 -0.17015916707E+03 -0.83015552617E+02 -0.30755329191E+03  0.36115751616E+03  0.00000000000E+00 0.  1.
        -11    1    3    3    0    0 -0.39694452636E+03 -0.90379526218E+02 -0.49298816359E+03  0.63935181645E+03  0.00000000000E+00 0. -1.
         22    1    1    2    0    0  0.56710369343E+03  0.17339507884E+03 -0.21948072003E+04  0.22735107431E+04  0.00000000000E+00 0. -1.
<mgrwt>
<rscale>  0 0.13217768E+04</rscale>
<asrwt>0</asrwt>
<pdfrwt beam="1">  1        2 0.48225914E+00 0.13217768E+04</pdfrwt>
<pdfrwt beam="2">  1       -2 0.21436263E-01 0.13217768E+04</pdfrwt>
<totfact> 0.26805389E+01</totfact>
</mgrwt>
</event>
<event>
 6    1  0.1060303E-006  0.2009255E+04  0.7818608E-02  0.8602306E-01
         -3   -1    0    0    0  501 -0.00000000000E+00  0.00000000000E+00  0.14472443905E+04  0.14472443905E+04  0.00000000000E+00 0.  1.
          3   -1    0    0  501    0  0.00000000000E+00 -0.00000000000E+00 -0.69737798940E+03  0.69737798940E+03  0.00000000000E+00 0. -1.
         23    2    1    2    0    0  0.12228769998E+03  0.25341418353E+03  0.14028246050E+04  0.14336178468E+04  0.90389316170E+02 0.  0.
         11    1    3    3    0    0  0.24914521617E+02  0.12558620603E+03  0.47358931013E+03  0.49059093265E+03  0.00000000000E+00 0. -1.
        -11    1    3    3    0    0  0.97373178364E+02  0.12782797750E+03  0.92923529484E+03  0.94302691419E+03  0.00000000000E+00 0.  1.
         22    1    1    2    0    0 -0.12228769998E+03 -0.25341418353E+03 -0.65295820389E+03  0.71100453304E+03  0.00000000000E+00 0. -1.
<mgrwt>
<rscale>  0 0.20092550E+04</rscale>
<asrwt>0</asrwt>
<pdfrwt beam="1">  1        3 0.10728892E+00 0.20092550E+04</pdfrwt>
<pdfrwt beam="2">  1       -3 0.22265298E+00 0.20092550E+04</pdfrwt>
<totfact> 0.19070675E-01</totfact>
</mgrwt>
</event>
<event>
 6    1  0.8968082E-007  0.1215821E+04  0.7818608E-02  0.9099120E-01
          1   -1    0    0  501    0  0.00000000000E+00  0.00000000000E+00  0.14793126253E+04  0.14793126253E+04  0.00000000000E+00 0. -1.
         -1   -1    0    0    0  501 -0.00000000000E+00 -0.00000000000E+00 -0.24981555318E+03  0.24981555318E+03  0.00000000000E+00 0.  1.
         23    2    1    2    0    0  0.42495173685E+03 -0.40330577188E+03  0.40627323004E+03  0.71871389788E+03  0.90841649458E+02 0.  0.
         13    1    3    3    0    0  0.10404878717E+03 -0.49548453534E+02  0.79525830117E+02  0.14001984507E+03  0.00000000000E+00 0. -1.
        -13    1    3    3    0    0  0.32090294968E+03 -0.35375731834E+03  0.32674739993E+03  0.57869405281E+03  0.00000000000E+00 0.  1.
         22    1    1    2    0    0 -0.42495173685E+03  0.40330577188E+03  0.82322384211E+03  0.10104142806E+04  0.00000000000E+00 0. -1.
<mgrwt>
<rscale>  0 0.12158212E+04</rscale>
<asrwt>0</asrwt>
<pdfrwt beam="1">  1        1 0.22758655E+00 0.12158212E+04</pdfrwt>
<pdfrwt beam="2">  1       -1 0.38433163E-01 0.12158212E+04</pdfrwt>
<totfact> 0.43788754E+01</totfact>
</mgrwt>
</event>
<event>
 6    1  0.8968082E-007  0.1487988E+04  0.7818608E-02  0.8892480E-01
         -1   -1    0    0    0  501 -0.00000000000E+00  0.00000000000E+00  0.84505362411E+03  0.84505362411E+03  0.00000000000E+00 0.  1.
          1   -1    0    0  501    0  0.00000000000E+00 -0.00000000000E+00 -0.65501991885E+03  0.65501991885E+03  0.00000000000E+00 0. -1.
         23    2    1    2    0    0  0.38442341667E+03  0.28370129562E+03 -0.47576760844E+03  0.68058639984E+03  0.92602602483E+02 0.  0.
         11    1    3    3    0    0 -0.54310560914E+00  0.16114550741E+02 -0.27840739695E+02  0.32172666909E+02  0.00000000000E+00 0.  1.
        -11    1    3    3    0    0  0.38496652228E+03  0.26758674488E+03 -0.44792686875E+03  0.64841373293E+03  0.00000000000E+00 0. -1.
         22    1    1    2    0    0 -0.38442341667E+03 -0.28370129562E+03  0.66580131369E+03  0.81948714312E+03  0.00000000000E+00 0.  1.
<mgrwt>
<rscale>  0 0.14879878E+04</rscale>
<asrwt>0</asrwt>
<pdfrwt beam="1">  1        1 0.10077229E+00 0.14879878E+04</pdfrwt>
<pdfrwt beam="2">  1       -1 0.13000825E+00 0.14879878E+04</pdfrwt>
<totfact> 0.14787261E+01</totfact>
</mgrwt>
</event>
<event>
 6    1  0.8968082E-007  0.2266134E+04  0.7818608E-02  0.8491395E-01
          2   -1    0    0  501    0  0.00000000000E+00  0.00000000000E+00  0.54824190506E+03  0.54824190506E+03  0.00000000000E+00 0. -1.
         -2   -1    0    0    0  501 -0.00000000000E+00 -0.00000000000E+00 -0.23417411829E+04  0.23417411829E+04  0.00000000000E+00 0.  1.
         23    2    1    2    0    0  0.61063405902E+03  0.77225118900E+03 -0.18748169065E+03  0.10062266431E+04  0.89982332175E+02 0.  0.
         11    1    3    3    0    0  0.28911508341E+03  0.38432767229E+03 -0.13581043973E+03  0.49973969892E+03  0.00000000000E+00 0. -1.
        -11    1    3    3    0    0  0.32151897561E+03  0.38792351672E+03 -0.51671250913E+02  0.50648694423E+03  0.00000000000E+00 0.  1.
         22    1    1    2    0    0 -0.61063405902E+03 -0.77225118900E+03 -0.16060175872E+04  0.18837564448E+04  0.00000000000E+00 0.  1.
<mgrwt>
<rscale>  0 0.22661338E+04</rscale>
<asrwt>0</asrwt>
<pdfrwt beam="1">  1        2 0.84344907E-01 0.22661338E+04</pdfrwt>
<pdfrwt beam="2">  1       -2 0.36026788E+00 0.22661338E+04</pdfrwt>
<totfact> 0.67379797E-01</totfact>
</mgrwt>
</event>
<event>
 6    1  0.8968082E-007  0.4371892E+04  0.7818608E-02  0.7933457E-01
         -1   -1    0    0    0  501 -0.00000000000E+00  0.00000000000E+00  0.95333694117E+03  0.95333694117E+03  0.00000000000E+00 0.  1.
          1   -1    0    0  501    0  0.00000000000E+00 -0.00000000000E+00 -0.50122461460E+04  0.50122461460E+04  0.00000000000E+00 0. -1.
         23    2    1    2    0    0 -0.16426930555E+03  0.10084698874E+04  0.60516664474E+03  0.11908999093E+04  0.89554494343E+02 0.  0.
         11    1    3    3    0    0 -0.10214678160E+03  0.73257352423E+03  0.47910707074E+03  0.88127266985E+03  0.00000000000E+00 0. -1.
        -11    1    3    3    0    0 -0.62122523942E+02  0.27589636321E+03  0.12605957399E+03  0.30962723944E+03  0.00000000000E+00 0.  1.
         22    1    1    2    0    0  0.16426930555E+03 -0.10084698874E+04 -0.46640758495E+04  0.47746831779E+04  0.00000000000E+00 0. -1.
<mgrwt>
<rscale>  0 0.43718918E+04</rscale>
<asrwt>0</asrwt>
<pdfrwt beam="1">  1        1 0.77111479E+00 0.43718918E+04</pdfrwt>
<pdfrwt beam="2">  1       -1 0.14666722E+00 0.43718918E+04</pdfrwt>
<totfact> 0.23178157E-03</totfact>
</mgrwt>
</event>
<event>
 6    1  0.8968082E-007  0.1322041E+04  0.7818608E-02  0.9012266E-01
         -1   -1    0    0    0  501 -0.00000000000E+00  0.00000000000E+00  0.11334894535E+04  0.11334894535E+04  0.00000000000E+00 0.  1.
          1   -1    0    0  501    0  0.00000000000E+00 -0.00000000000E+00 -0.38548955987E+03  0.38548955987E+03  0.00000000000E+00 0. -1.
         23    2    1    2    0    0  0.34996413936E+03  0.42075748739E+03 -0.43270863098E+02  0.55688693227E+03  0.93482221373E+02 0.  0.
         13    1    3    3    0    0  0.12301054835E+03  0.17394583532E+03  0.25634906410E+02  0.21458307729E+03  0.00000000000E+00 0. -1.
        -13    1    3    3    0    0  0.22695359100E+03  0.24681165207E+03 -0.68905769508E+02  0.34230385499E+03  0.00000000000E+00 0.  1.
         22    1    1    2    0    0 -0.34996413936E+03 -0.42075748739E+03  0.79127075671E+03  0.96209208107E+03  0.00000000000E+00 0.  1.
<mgrwt>
<rscale>  0 0.13220414E+04</rscale>
<asrwt>0</asrwt>
<pdfrwt beam="1">  1        1 0.59306086E-01 0.13220414E+04</pdfrwt>
<pdfrwt beam="2">  1       -1 0.17438299E+00 0.13220414E+04</pdfrwt>
<totfact> 0.14127306E+01</totfact>
</mgrwt>
</event>
<event>
 6    1  0.8968082E-007  0.1261644E+04  0.7818608E-02  0.9060547E-01
         -1   -1    0    0    0  501 -0.00000000000E+00  0.00000000000E+00  0.52309594850E+03  0.52309594850E+03  0.00000000000E+00 0.  1.
          1   -1    0    0  501    0  0.00000000000E+00 -0.00000000000E+00 -0.76073317491E+03  0.76073317491E+03  0.00000000000E+00 0. -1.
         23    2    1    2    0    0 -0.30618507808E+03 -0.22837173725E+03  0.38717797479E+03  0.55150611541E+03  0.91374278425E+02 0.  0.
         11    1    3    3    0    0 -0.11360450029E+03 -0.34137534555E+02  0.10329651072E+03  0.15729438285E+03  0.00000000000E+00 0. -1.
        -11    1    3    3    0    0 -0.19258057779E+03 -0.19423420270E+03  0.28388146407E+03  0.39421173255E+03  0.00000000000E+00 0.  1.
         22    1    1    2    0    0  0.30618507808E+03  0.22837173725E+03 -0.62481520119E+03  0.73232300800E+03  0.00000000000E+00 0. -1.
<mgrwt>
<rscale>  0 0.12616441E+04</rscale>
<asrwt>0</asrwt>
<pdfrwt beam="1">  1        1 0.11703587E+00 0.12616441E+04</pdfrwt>
<pdfrwt beam="2">  1       -1 0.80476300E-01 0.12616441E+04</pdfrwt>
<totfact> 0.36367651E+01</totfact>
</mgrwt>
</event>
<event>
 6    1  0.8968082E-007  0.2259504E+04  0.7818608E-02  0.8494061E-01
         -1   -1    0    0    0  501 -0.00000000000E+00  0.00000000000E+00  0.65507045600E+03  0.65507045600E+03  0.00000000000E+00 0.  1.
          1   -1    0    0  501    0  0.00000000000E+00 -0.00000000000E+00 -0.19484010105E+04  0.19484010105E+04  0.00000000000E+00 0. -1.
         23    2    1    2    0    0 -0.75710407702E+03  0.61447083483E+03  0.58192151140E+01  0.97910355430E+03  0.88481164553E+02 0.  0.
         13    1    3    3    0    0 -0.50812315364E+03  0.43981069688E+03  0.39031340687E+02  0.67316122430E+03  0.00000000000E+00 0. -1.
        -13    1    3    3    0    0 -0.24898092339E+03  0.17466013795E+03 -0.33212125574E+02  0.30594233000E+03  0.00000000000E+00 0.  1.
         22    1    1    2    0    0  0.75710407702E+03 -0.61447083483E+03 -0.12991497697E+04  0.16243679122E+04  0.00000000000E+00 0. -1.
<mgrwt>
<rscale>  0 0.22595043E+04</rscale>
<asrwt>0</asrwt>
<pdfrwt beam="1">  1        1 0.29975400E+00 0.22595043E+04</pdfrwt>
<pdfrwt beam="2">  1       -1 0.10078007E+00 0.22595043E+04</pdfrwt>
<totfact> 0.27427580E+00</totfact>
</mgrwt>
</event>
<event>
 6    1  0.8968082E-007  0.2090987E+04  0.7818608E-02  0.8565224E-01
         -1   -1    0    0    0  501 -0.00000000000E+00  0.00000000000E+00  0.10832276722E+04  0.10832276722E+04  0.00000000000E+00 0.  1.
          1   -1    0    0  501    0  0.00000000000E+00 -0.00000000000E+00 -0.10090735086E+04  0.10090735086E+04  0.00000000000E+00 0. -1.
         23    2    1    2    0    0  0.41774088310E+03  0.22256390790E+02 -0.91917939984E+03  0.10144726412E+04  0.96235016216E+02 0.  0.
         13    1    3    3    0    0  0.76434462332E+02  0.31522648833E+02 -0.24836996614E+03  0.26177002216E+03  0.00000000000E+00 0. -1.
        -13    1    3    3    0    0  0.34130642077E+03 -0.92662580430E+01 -0.67080943370E+03  0.75270261906E+03  0.00000000000E+00 0.  1.
         22    1    1    2    0    0 -0.41774088310E+03 -0.22256390790E+02  0.99333356345E+03  0.10778285395E+04  0.00000000000E+00 0.  1.
<mgrwt>
<rscale>  0 0.20909867E+04</rscale>
<asrwt>0</asrwt>
<pdfrwt beam="1">  1        1 0.15524208E+00 0.20909867E+04</pdfrwt>
<pdfrwt beam="2">  1       -1 0.16665041E+00 0.20909867E+04</pdfrwt>
<totfact> 0.35693423E+00</totfact>
</mgrwt>
</event>
<event>
 6    1  0.8968082E-007  0.8603249E+03  0.7818608E-02  0.9476583E-01
          2   -1    0    0  501    0  0.00000000000E+00  0.00000000000E+00  0.13688114888E+04  0.13688114888E+04  0.00000000000E+00 0. -1.
         -2   -1    0    0    0  501 -0.00000000000E+00 -0.00000000000E+00 -0.13518278843E+03  0.13518278843E+03  0.00000000000E+00 0.  1.
         23    2    1    2    0    0 -0.41051917841E+03  0.98989226237E+02  0.71481971780E+03  0.83504912018E+03  0.89526205056E+02 0.  0.
         11    1    3    3    0    0 -0.23098100813E+03  0.84675443914E+02  0.47723321321E+03  0.53691125590E+03  0.00000000000E+00 0.  1.
        -11    1    3    3    0    0 -0.17953817028E+03  0.14313782323E+02  0.23758650460E+03  0.29813786428E+03  0.00000000000E+00 0. -1.
         22    1    1    2    0    0  0.41051917841E+03 -0.98989226237E+02  0.51880898257E+03  0.66894515706E+03  0.00000000000E+00 0. -1.
<mgrwt>
<rscale>  0 0.86032495E+03</rscale>
<asrwt>0</asrwt>
<pdfrwt beam="1">  1        2 0.21058637E+00 0.86032495E+03</pdfrwt>
<pdfrwt beam="2">  1       -2 0.20797353E-01 0.86032495E+03</pdfrwt>
<totfact> 0.30187875E+02</totfact>
</mgrwt>
</event>
<event>
 6    1  0.8968082E-007  0.2935595E+04  0.7818608E-02  0.8262365E-01
         -2   -1    0    0    0  501 -0.00000000000E+00  0.00000000000E+00  0.90353464480E+03  0.90353464480E+03  0.00000000000E+00 0.  1.
          2   -1    0    0  501    0  0.00000000000E+00 -0.00000000000E+00 -0.23844460148E+04  0.23844460148E+04  0.00000000000E+00 0. -1.
         23    2    1    2    0    0 -0.13630133012E+04  0.59349207205E+02 -0.13427730678E+04  0.19167003170E+04  0.96814285318E+02 0.  0.
         13    1    3    3    0    0 -0.12431665505E+04  0.29897411918E+02 -0.12396736462E+04  0.17558894260E+04  0.00000000000E+00 0.  1.
        -13    1    3    3    0    0 -0.11984675068E+03  0.29451795286E+02 -0.10309942164E+03  0.16081089092E+03  0.00000000000E+00 0. -1.
         22    1    1    2    0    0  0.13630133012E+04 -0.59349207205E+02 -0.13813830221E+03  0.13712803426E+04  0.00000000000E+00 0. -1.
<mgrwt>
<rscale>  0 0.29355951E+04</rscale>
<asrwt>0</asrwt>
<pdfrwt beam="1">  1        2 0.36683784E+00 0.29355951E+04</pdfrwt>
<pdfrwt beam="2">  1       -2 0.13900533E+00 0.29355951E+04</pdfrwt>
<totfact> 0.12774796E+00</totfact>
</mgrwt>
</event>
<event>
 6    1  0.8968082E-007  0.1329852E+04  0.7818608E-02  0.9006221E-01
         -1   -1    0    0    0  501 -0.00000000000E+00  0.00000000000E+00  0.10200764790E+04  0.10200764790E+04  0.00000000000E+00 0.  1.
          1   -1    0    0  501    0  0.00000000000E+00 -0.00000000000E+00 -0.43342525546E+03  0.43342525546E+03  0.00000000000E+00 0. -1.
         23    2    1    2    0    0  0.85470669323E+02  0.25646107351E+03 -0.36552884254E+03  0.46369145173E+03  0.91219022893E+02 0.  0.
         11    1    3    3    0    0 -0.52554443304E+01  0.12364335190E+03 -0.17517855877E+03  0.21448269305E+03  0.00000000000E+00 0.  1.
        -11    1    3    3    0    0  0.90726113653E+02  0.13281772161E+03 -0.19035028377E+03  0.24920875868E+03  0.00000000000E+00 0. -1.
         22    1    1    2    0    0 -0.85470669323E+02 -0.25646107351E+03  0.95218006606E+03  0.98981028270E+03  0.00000000000E+00 0.  1.
<mgrwt>
<rscale>  0 0.13298525E+04</rscale>
<asrwt>0</asrwt>
<pdfrwt beam="1">  1        1 0.66680809E-01 0.13298525E+04</pdfrwt>
<pdfrwt beam="2">  1       -1 0.15693484E+00 0.13298525E+04</pdfrwt>
<totfact> 0.16286651E+01</totfact>
</mgrwt>
</event>
<event>
 6    1  0.8968082E-007  0.3562692E+04  0.7818608E-02  0.8099091E-01
         -2   -1    0    0    0  501 -0.00000000000E+00  0.00000000000E+00  0.18981662179E+04  0.18981662179E+04  0.00000000000E+00 0.  1.
          2   -1    0    0  501    0  0.00000000000E+00 -0.00000000000E+00 -0.16717151214E+04  0.16717151214E+04  0.00000000000E+00 0. -1.
         23    2    1    2    0    0 -0.44784180531E+03 -0.10553677847E+04 -0.12512719603E+04  0.16995795251E+04  0.92334175177E+02 0.  0.
         11    1    3    3    0    0 -0.25241420451E+03 -0.59120089618E+03 -0.63342425516E+03  0.90247311168E+03  0.00000000000E+00 0.  1.
        -11    1    3    3    0    0 -0.19542760080E+03 -0.46416688856E+03 -0.61784770515E+03  0.79710641344E+03  0.00000000000E+00 0. -1.
         22    1    1    2    0    0  0.44784180531E+03  0.10553677847E+04  0.14777230567E+04  0.18703018142E+04  0.00000000000E+00 0.  1.
<mgrwt>
<rscale>  0 0.35626918E+04</rscale>
<asrwt>0</asrwt>
<pdfrwt beam="1">  1        2 0.25718694E+00 0.35626918E+04</pdfrwt>
<pdfrwt beam="2">  1       -2 0.29202557E+00 0.35626918E+04</pdfrwt>
<totfact> 0.29562945E-01</totfact>
</mgrwt>
</event>
<event>
 6    1  0.8968082E-007  0.1579948E+04  0.7818608E-02  0.8832962E-01
         -2   -1    0    0    0  501 -0.00000000000E+00  0.00000000000E+00  0.36333395459E+03  0.36333395459E+03  0.00000000000E+00 0.  1.
          2   -1    0    0  501    0  0.00000000000E+00 -0.00000000000E+00 -0.17175914386E+04  0.17175914386E+04  0.00000000000E+00 0. -1.
         23    2    1    2    0    0 -0.72356750755E+03 -0.18216089462E+03 -0.10106005088E+04  0.12594434116E+04  0.90287258716E+02 0.  0.
         13    1    3    3    0    0 -0.18749037888E+03 -0.10740445345E+02 -0.22574406908E+03  0.29364669939E+03  0.00000000000E+00 0. -1.
        -13    1    3    3    0    0 -0.53607712867E+03 -0.17142044927E+03 -0.78485643976E+03  0.96579671223E+03  0.00000000000E+00 0.  1.
         22    1    1    2    0    0  0.72356750755E+03  0.18216089462E+03 -0.34365697521E+03  0.82148198161E+03  0.00000000000E+00 0.  1.
<mgrwt>
<rscale>  0 0.15799485E+04</rscale>
<asrwt>0</asrwt>
<pdfrwt beam="1">  1        2 0.26424484E+00 0.15799485E+04</pdfrwt>
<pdfrwt beam="2">  1       -2 0.55897532E-01 0.15799485E+04</pdfrwt>
<totfact> 0.27676051E+01</totfact>
</mgrwt>
</event>
<event>
 6    1  0.8968082E-007  0.1618665E+04  0.7818608E-02  0.8809163E-01
          2   -1    0    0  501    0  0.00000000000E+00  0.00000000000E+00  0.79895420558E+03  0.79895420558E+03  0.00000000000E+00 0. -1.
         -2   -1    0    0    0  501 -0.00000000000E+00 -0.00000000000E+00 -0.81984568250E+03  0.81984568250E+03  0.00000000000E+00 0.  1.
         23    2    1    2    0    0 -0.48201719234E+03 -0.64566416441E+03 -0.50300016094E+02  0.81251975743E+03  0.91844856524E+02 0.  0.
         11    1    3    3    0    0 -0.30075996497E+03 -0.32746281405E+03 -0.20220608984E+02  0.44508125567E+03  0.00000000000E+00 0. -1.
        -11    1    3    3    0    0 -0.18125722737E+03 -0.31820135036E+03 -0.30079407110E+02  0.36743850176E+03  0.00000000000E+00 0.  1.
         22    1    1    2    0    0  0.48201719234E+03  0.64566416441E+03  0.29408539171E+02  0.80628013066E+03  0.00000000000E+00 0.  1.
<mgrwt>
<rscale>  0 0.16186651E+04</rscale>
<asrwt>0</asrwt>
<pdfrwt beam="1">  1        2 0.12291603E+00 0.16186651E+04</pdfrwt>
<pdfrwt beam="2">  1       -2 0.12613011E+00 0.16186651E+04</pdfrwt>
<totfact> 0.15486292E+01</totfact>
</mgrwt>
</event>
<event>
 6    1  0.8968082E-007  0.1323951E+04  0.7818608E-02  0.9010785E-01
         -2   -1    0    0    0  501 -0.00000000000E+00  0.00000000000E+00  0.18073232366E+04  0.18073232366E+04  0.00000000000E+00 0.  1.
          2   -1    0    0  501    0  0.00000000000E+00 -0.00000000000E+00 -0.24246429785E+03  0.24246429785E+03  0.00000000000E+00 0. -1.
         23    2    1    2    0    0  0.24352427339E+03 -0.39107782953E+03  0.15154965665E+04  0.15864490142E+04  0.88570262013E+02 0.  0.
         11    1    3    3    0    0  0.14574022189E+03 -0.22463162828E+03  0.10231813361E+04  0.10576387035E+04  0.00000000000E+00 0. -1.
        -11    1    3    3    0    0  0.97784051506E+02 -0.16644620125E+03  0.49231523041E+03  0.52881031073E+03  0.00000000000E+00 0.  1.
         22    1    1    2    0    0 -0.24352427339E+03  0.39107782953E+03  0.49362372253E+02  0.46333852018E+03  0.00000000000E+00 0. -1.
<mgrwt>
<rscale>  0 0.13239507E+04</rscale>
<asrwt>0</asrwt>
<pdfrwt beam="1">  1        2 0.37302201E-01 0.13239507E+04</pdfrwt>
<pdfrwt beam="2">  1       -2 0.27804972E+00 0.13239507E+04</pdfrwt>
<totfact> 0.59225081E+00</totfact>
</mgrwt>
</event>
<event>
 6    1  0.8968082E-007  0.3104154E+04  0.7818608E-02  0.8214599E-01
          2   -1    0    0  501    0  0.00000000000E+00  0.00000000000E+00  0.25716754912E+04  0.25716754912E+04  0.00000000000E+00 0. -1.
         -2   -1    0    0    0  501 -0.00000000000E+00 -0.00000000000E+00 -0.93672099447E+03  0.93672099447E+03  0.00000000000E+00 0.  1.
         23    2    1    2    0    0  0.97163458649E+03 -0.12085822916E+04  0.80976002517E+03  0.17517830276E+04  0.91035993839E+02 0.  0.
         11    1    3    3    0    0  0.46217483665E+03 -0.50547599754E+03  0.34320496285E+03  0.76609477889E+03  0.00000000000E+00 0. -1.
        -11    1    3    3    0    0  0.50945974984E+03 -0.70310629405E+03  0.46655506232E+03  0.98568824869E+03  0.00000000000E+00 0.  1.
         22    1    1    2    0    0 -0.97163458649E+03  0.12085822916E+04  0.82519447155E+03  0.17566134581E+04  0.00000000000E+00 0.  1.
<mgrwt>
<rscale>  0 0.31041536E+04</rscale>
<asrwt>0</asrwt>
<pdfrwt beam="1">  1        2 0.39564238E+00 0.31041536E+04</pdfrwt>
<pdfrwt beam="2">  1       -2 0.14411092E+00 0.31041536E+04</pdfrwt>
<totfact> 0.89343190E-01</totfact>
</mgrwt>
</event>
<event>
 6    1  0.8968082E-007  0.2342806E+04  0.7818608E-02  0.8461232E-01
          2   -1    0    0  501    0  0.00000000000E+00  0.00000000000E+00  0.56108767948E+03  0.56108767948E+03  0.00000000000E+00 0. -1.
         -2   -1    0    0    0  501 -0.00000000000E+00 -0.00000000000E+00 -0.24455811186E+04  0.24455811186E+04  0.00000000000E+00 0.  1.
         23    2    1    2    0    0 -0.42406426564E+03 -0.36375389103E+03 -0.22623531526E+04  0.23321872507E+04  0.93317684823E+02 0.  0.
         11    1    3    3    0    0 -0.21362064947E+03 -0.12239867047E+03 -0.99372211768E+03  0.10237669967E+04  0.00000000000E+00 0.  1.
        -11    1    3    3    0    0 -0.21044361617E+03 -0.24135522056E+03 -0.12686310350E+04  0.13084202539E+04  0.00000000000E+00 0. -1.
         22    1    1    2    0    0  0.42406426564E+03  0.36375389103E+03  0.37785971355E+03  0.67448154738E+03  0.00000000000E+00 0. -1.
<mgrwt>
<rscale>  0 0.23428064E+04</rscale>
<asrwt>0</asrwt>
<pdfrwt beam="1">  1        2 0.86321180E-01 0.23428064E+04</pdfrwt>
<pdfrwt beam="2">  1       -2 0.37624325E+00 0.23428064E+04</pdfrwt>
<totfact> 0.51470603E-01</totfact>
</mgrwt>
</event>
<event>
 6    1  0.8968082E-007  0.9812159E+03  0.7818608E-02  0.9329390E-01
         -1   -1    0    0    0  501 -0.00000000000E+00  0.00000000000E+00  0.33446354145E+03  0.33446354145E+03  0.00000000000E+00 0.  1.
          1   -1    0    0  501    0  0.00000000000E+00 -0.00000000000E+00 -0.71964839727E+03  0.71964839727E+03  0.00000000000E+00 0. -1.
         23    2    1    2    0    0 -0.19760953386E+03 -0.27447217271E+03 -0.56983270487E+03  0.66878178208E+03  0.90417139035E+02 0.  0.
         13    1    3    3    0    0 -0.99876372077E+02 -0.21077697182E+03 -0.39001357122E+03  0.45443680230E+03  0.00000000000E+00 0. -1.
        -13    1    3    3    0    0 -0.97733161779E+02 -0.63695200894E+02 -0.17981913365E+03  0.21434497977E+03  0.00000000000E+00 0.  1.
         22    1    1    2    0    0  0.19760953386E+03  0.27447217271E+03  0.18464784905E+03  0.38533015665E+03  0.00000000000E+00 0.  1.
<mgrwt>
<rscale>  0 0.98121588E+03</rscale>
<asrwt>0</asrwt>
<pdfrwt beam="1">  1        1 0.11071514E+00 0.98121588E+03</pdfrwt>
<pdfrwt beam="2">  1       -1 0.51455930E-01 0.98121588E+03</pdfrwt>
<totfact> 0.99558211E+01</totfact>
</mgrwt>
</event>
<event>
 6    1  0.8968082E-007  0.2236908E+04  0.7818608E-02  0.8503222E-01
         -2   -1    0    0    0  501 -0.00000000000E+00  0.00000000000E+00  0.86890103477E+03  0.86890103477E+03  0.00000000000E+00 0.  1.
          2   -1    0    0  501    0  0.00000000000E+00 -0.00000000000E+00 -0.14396792527E+04  0.14396792527E+04  0.00000000000E+00 0. -1.
         23    2    1    2    0    0 -0.14495153975E+03  0.71237536291E+02 -0.14260555279E+04  0.14381866912E+04  0.93063713111E+02 0.  0.
         13    1    3    3    0    0  0.13185476729E+02  0.31581635792E+01 -0.76351167199E+02  0.77545673809E+02  0.00000000000E+00 0. -1.
        -13    1    3    3    0    0 -0.15813701648E+03  0.68079372712E+02 -0.13497043607E+04  0.13606410174E+04  0.00000000000E+00 0.  1.
         22    1    1    2    0    0  0.14495153975E+03 -0.71237536291E+02  0.85527730996E+03  0.87039359625E+03  0.00000000000E+00 0.  1.
<mgrwt>
<rscale>  0 0.22369075E+04</rscale>
<asrwt>0</asrwt>
<pdfrwt beam="1">  1        2 0.22148911E+00 0.22369075E+04</pdfrwt>
<pdfrwt beam="2">  1       -2 0.13367708E+00 0.22369075E+04</pdfrwt>
<totfact> 0.50645237E+00</totfact>
</mgrwt>
</event>
<event>
 6    1  0.8968082E-007  0.1571193E+04  0.7818608E-02  0.8838443E-01
          2   -1    0    0  501    0  0.00000000000E+00  0.00000000000E+00  0.43424379633E+04  0.43424379633E+04  0.00000000000E+00 0. -1.
         -2   -1    0    0    0  501 -0.00000000000E+00 -0.00000000000E+00 -0.14212338597E+03  0.14212338597E+03  0.00000000000E+00 0.  1.
         23    2    1    2    0    0 -0.75845006253E+03 -0.10209626622E+03  0.25787896353E+04  0.26915155376E+04  0.91813731651E+02 0.  0.
         11    1    3    3    0    0 -0.50392751435E+03 -0.51685591445E+02  0.18413858838E+04  0.19097948354E+04  0.00000000000E+00 0. -1.
        -11    1    3    3    0    0 -0.25452254818E+03 -0.50410674773E+02  0.73740375147E+03  0.78172070227E+03  0.00000000000E+00 0.  1.
         22    1    1    2    0    0  0.75845006253E+03  0.10209626622E+03  0.16215249420E+04  0.17930458116E+04  0.00000000000E+00 0. -1.
<mgrwt>
<rscale>  0 0.15711932E+04</rscale>
<asrwt>0</asrwt>
<pdfrwt beam="1">  1        2 0.66806728E+00 0.15711932E+04</pdfrwt>
<pdfrwt beam="2">  1       -2 0.21865140E-01 0.15711932E+04</pdfrwt>
<totfact> 0.31321252E+00</totfact>
</mgrwt>
</event>
<event>
 6    1  0.8968082E-007  0.3237674E+04  0.7818608E-02  0.8178938E-01
          2   -1    0    0  501    0  0.00000000000E+00  0.00000000000E+00  0.39680987994E+04  0.39680987994E+04  0.00000000000E+00 0. -1.
         -2   -1    0    0    0  501 -0.00000000000E+00 -0.00000000000E+00 -0.66042557320E+03  0.66042557320E+03  0.00000000000E+00 0.  1.
         23    2    1    2    0    0 -0.61894371436E+03  0.13658144873E+04  0.25221175846E+04  0.29357047716E+04  0.93513958225E+02 0.  0.
         13    1    3    3    0    0 -0.12834729436E+03  0.37283161449E+03  0.69777193478E+03  0.80147496137E+03  0.00000000000E+00 0. -1.
        -13    1    3    3    0    0 -0.49059642001E+03  0.99298287285E+03  0.18243456498E+04  0.21342298102E+04  0.00000000000E+00 0.  1.
         22    1    1    2    0    0  0.61894371436E+03 -0.13658144873E+04  0.78555564167E+03  0.16928196010E+04  0.00000000000E+00 0.  1.
<mgrwt>
<rscale>  0 0.32376744E+04</rscale>
<asrwt>0</asrwt>
<pdfrwt beam="1">  1        2 0.61047673E+00 0.32376744E+04</pdfrwt>
<pdfrwt beam="2">  1       -2 0.10160394E+00 0.32376744E+04</pdfrwt>
<totfact> 0.24189702E-01</totfact>
</mgrwt>
</event>
<event>
 6    1  0.8968082E-007  0.3955635E+03  0.7818608E-02  0.1045327E+00
         -2   -1    0    0    0  501 -0.00000000000E+00  0.00000000000E+00  0.64271309052E+02  0.64271309052E+02  0.00000000000E+00 0.  1.
          2   -1    0    0  501    0  0.00000000000E+00 -0.00000000000E+00 -0.60863285465E+03  0.60863285465E+03  0.00000000000E+00 0. -1.
         23    2    1    2    0    0 -0.12079831737E+03  0.29408087476E+02 -0.48420733277E+02  0.16161720082E+03  0.91205718569E+02 0.  0.
         11    1    3    3    0    0 -0.10742322377E+03  0.41760103499E+02 -0.68849372517E+02  0.13425308691E+03  0.00000000000E+00 0.  1.
        -11    1    3    3    0    0 -0.13375093608E+02 -0.12352016023E+02  0.20428639240E+02  0.27364113909E+02  0.00000000000E+00 0. -1.
         22    1    1    2    0    0  0.12079831737E+03 -0.29408087476E+02 -0.49594081232E+03  0.51128696288E+03  0.00000000000E+00 0. -1.
<mgrwt>
<rscale>  0 0.39556355E+03</rscale>
<asrwt>0</asrwt>
<pdfrwt beam="1">  1        2 0.93635824E-01 0.39556355E+03</pdfrwt>
<pdfrwt beam="2">  1       -2 0.98878937E-02 0.39556355E+03</pdfrwt>
<totfact> 0.33713220E+03</totfact>
</mgrwt>
</event>
<event>
 6    1  0.8968082E-007  0.2470994E+04  0.7818608E-02  0.8413393E-01
         -2   -1    0    0    0  501 -0.00000000000E+00  0.00000000000E+00  0.96318196142E+03  0.96318196142E+03  0.00000000000E+00 0.  1.
          2   -1    0    0  501    0  0.00000000000E+00 -0.00000000000E+00 -0.15848017805E+04  0.15848017805E+04  0.00000000000E+00 0. -1.
         23    2    1    2    0    0  0.12245546327E+04 -0.35100399788E+02 -0.15984083757E+03  0.12387832553E+04  0.90932797757E+02 0.  0.
         11    1    3    3    0    0  0.53657434753E+03 -0.58968918176E+02 -0.82117882005E+02  0.54601530224E+03  0.00000000000E+00 0. -1.
        -11    1    3    3    0    0  0.68798028514E+03  0.23868518388E+02 -0.77722955564E+02  0.69276795302E+03  0.00000000000E+00 0.  1.
         22    1    1    2    0    0 -0.12245546327E+04  0.35100399788E+02 -0.46177898149E+03  0.13092004866E+04  0.00000000000E+00 0.  1.
<mgrwt>
<rscale>  0 0.24709937E+04</rscale>
<asrwt>0</asrwt>
<pdfrwt beam="1">  1        2 0.24381566E+00 0.24709937E+04</pdfrwt>
<pdfrwt beam="2">  1       -2 0.14818184E+00 0.24709937E+04</pdfrwt>
<totfact> 0.31468624E+00</totfact>
</mgrwt>
</event>
<event>
 6    1  0.8968082E-007  0.1802787E+04  0.7818608E-02  0.8704819E-01
          2   -1    0    0  501    0  0.00000000000E+00  0.00000000000E+00  0.23676754717E+04  0.23676754717E+04  0.00000000000E+00 0. -1.
         -2   -1    0    0    0  501 -0.00000000000E+00 -0.00000000000E+00 -0.34316782186E+03  0.34316782186E+03  0.00000000000E+00 0.  1.
         23    2    1    2    0    0  0.53709838031E+03 -0.72198521029E+03  0.10456098715E+04  0.13811898897E+04  0.68177664775E+02 0.  0.
         13    1    3    3    0    0  0.12322922845E+03 -0.12280443315E+03  0.21437103474E+03  0.27608207491E+03  0.00000000000E+00 0.  1.
        -13    1    3    3    0    0  0.41386915186E+03 -0.59918077714E+03  0.83123883679E+03  0.11051078148E+04  0.00000000000E+00 0. -1.
         22    1    1    2    0    0 -0.53709838031E+03  0.72198521029E+03  0.97889777835E+03  0.13296534039E+04  0.00000000000E+00 0.  1.
<mgrwt>
<rscale>  0 0.18027868E+04</rscale>
<asrwt>0</asrwt>
<pdfrwt beam="1">  1        2 0.36425776E+00 0.18027868E+04</pdfrwt>
<pdfrwt beam="2">  1       -2 0.52795051E-01 0.18027868E+04</pdfrwt>
<totfact> 0.13260872E+01</totfact>
</mgrwt>
</event>
<event>
 6    1  0.9196282E-007  0.2783918E+04  0.7818608E-02  0.8308279E-01
          1   -1    0    0  501    0  0.00000000000E+00  0.00000000000E+00  0.22415316026E+04  0.22415316026E+04  0.00000000000E+00 0. -1.
         -1   -1    0    0    0  501 -0.00000000000E+00 -0.00000000000E+00 -0.86438663286E+03  0.86438663286E+03  0.00000000000E+00 0.  1.
         23    2    1    2    0    0 -0.13126045120E+04 -0.45761041406E+03  0.73102877892E+03  0.15730111841E+04  0.87311016774E+02 0.  0.
         13    1    3    3    0    0 -0.53676067981E+03 -0.14805546105E+03  0.31689474281E+03  0.64066740588E+03  0.00000000000E+00 0.  1.
        -13    1    3    3    0    0 -0.77584383223E+03 -0.30955495302E+03  0.41413403610E+03  0.93234377823E+03  0.00000000000E+00 0. -1.
         22    1    1    2    0    0  0.13126045120E+04  0.45761041406E+03  0.64611619084E+03  0.15329070514E+04  0.00000000000E+00 0.  1.
<mgrwt>
<rscale>  0 0.27839181E+04</rscale>
<asrwt>0</asrwt>
<pdfrwt beam="1">  1        1 0.34485101E+00 0.27839181E+04</pdfrwt>
<pdfrwt beam="2">  1       -1 0.13298256E+00 0.27839181E+04</pdfrwt>
<totfact> 0.84677173E-01</totfact>
</mgrwt>
</event>
<event>
 6    1  0.8968082E-007  0.2255910E+03  0.7818608E-02  0.1129782E+00
          1   -1    0    0  501    0  0.00000000000E+00  0.00000000000E+00  0.64306023274E+02  0.64306023274E+02  0.00000000000E+00 0. -1.
         -1   -1    0    0    0  501 -0.00000000000E+00 -0.00000000000E+00 -0.19784810233E+03  0.19784810233E+03  0.00000000000E+00 0.  1.
         23    2    1    2    0    0  0.85079568317E+02 -0.39356267842E+02 -0.81200796498E+02  0.15478998530E+03  0.92622467221E+02 0.  0.
         11    1    3    3    0    0  0.36018930064E+02 -0.66527452048E+02 -0.44583536544E+02  0.87812054581E+02  0.00000000000E+00 0.  1.
        -11    1    3    3    0    0  0.49060638253E+02  0.27171184206E+02 -0.36617259954E+02  0.66977930720E+02  0.00000000000E+00 0. -1.
         22    1    1    2    0    0 -0.85079568317E+02  0.39356267842E+02 -0.52341282559E+02  0.10736414030E+03  0.00000000000E+00 0.  1.
<mgrwt>
<rscale>  0 0.22559100E+03</rscale>
<asrwt>0</asrwt>
<pdfrwt beam="1">  1        1 0.98932343E-02 0.22559100E+03</pdfrwt>
<pdfrwt beam="2">  1       -1 0.30438170E-01 0.22559100E+03</pdfrwt>
<totfact> 0.63683239E+03</totfact>
</mgrwt>
</event>
<event>
 6    1  0.8968082E-007  0.4356518E+04  0.7818608E-02  0.7936249E-01
         -2   -1    0    0    0  501 -0.00000000000E+00  0.00000000000E+00  0.15634995645E+04  0.15634995645E+04  0.00000000000E+00 0.  1.
          2   -1    0    0  501    0  0.00000000000E+00 -0.00000000000E+00 -0.30347384358E+04  0.30347384358E+04  0.00000000000E+00 0. -1.
         23    2    1    2    0    0  0.14901819567E+04 -0.76321728255E+03 -0.22050954575E+04  0.27702094520E+04  0.92041004334E+02 0.  0.
         11    1    3    3    0    0  0.71522754693E+03 -0.33436706156E+03 -0.10989901751E+04  0.13531929576E+04  0.00000000000E+00 0. -1.
        -11    1    3    3    0    0  0.77495440978E+03 -0.42885022098E+03 -0.11061052825E+04  0.14170164943E+04  0.00000000000E+00 0.  1.
         22    1    1    2    0    0 -0.14901819567E+04  0.76321728255E+03  0.73385658620E+03  0.18280285484E+04  0.00000000000E+00 0.  1.
<mgrwt>
<rscale>  0 0.43565180E+04</rscale>
<asrwt>0</asrwt>
<pdfrwt beam="1">  1        2 0.46688284E+00 0.43565180E+04</pdfrwt>
<pdfrwt beam="2">  1       -2 0.24053839E+00 0.43565180E+04</pdfrwt>
<totfact> 0.93233489E-02</totfact>
</mgrwt>
</event>
<event>
 6    1  0.8968082E-007  0.1062323E+04  0.7818608E-02  0.9242713E-01
          2   -1    0    0  501    0  0.00000000000E+00  0.00000000000E+00  0.26195126154E+04  0.26195126154E+04  0.00000000000E+00 0. -1.
         -2   -1    0    0    0  501 -0.00000000000E+00 -0.00000000000E+00 -0.10770430409E+03  0.10770430409E+03  0.00000000000E+00 0.  1.
         23    2    1    2    0    0  0.32497704905E+03 -0.31658195010E+03  0.57407451746E+03  0.73707962036E+03  0.88829058404E+02 0.  0.
         13    1    3    3    0    0  0.23965437669E+03 -0.27541472310E+03  0.42304726979E+03  0.55879914320E+03  0.00000000000E+00 0.  1.
        -13    1    3    3    0    0  0.85322672360E+02 -0.41167227005E+02  0.15102724767E+03  0.17828047716E+03  0.00000000000E+00 0. -1.
         22    1    1    2    0    0 -0.32497704905E+03  0.31658195010E+03  0.19377337938E+04  0.19901372991E+04  0.00000000000E+00 0. -1.
<mgrwt>
<rscale>  0 0.10623235E+04</rscale>
<asrwt>0</asrwt>
<pdfrwt beam="1">  1        2 0.40300189E+00 0.10623235E+04</pdfrwt>
<pdfrwt beam="2">  1       -2 0.16569895E-01 0.10623235E+04</pdfrwt>
<totfact> 0.88469845E+01</totfact>
</mgrwt>
</event>
<event>
 6    1  0.8968082E-007  0.1831023E+04  0.7818608E-02  0.8689974E-01
          1   -1    0    0  501    0  0.00000000000E+00  0.00000000000E+00  0.20342536081E+04  0.20342536081E+04  0.00000000000E+00 0. -1.
         -1   -1    0    0    0  501 -0.00000000000E+00 -0.00000000000E+00 -0.41202397353E+03  0.41202397353E+03  0.00000000000E+00 0.  1.
         23    2    1    2    0    0 -0.10163679199E+02 -0.38209298035E+03  0.19211460299E+04  0.19610463404E+04  0.93820759679E+02 0.  0.
         11    1    3    3    0    0  0.29545026592E+02 -0.16410288034E+03  0.98667347528E+03  0.10006633853E+04  0.00000000000E+00 0.  1.
        -11    1    3    3    0    0 -0.39708705791E+02 -0.21799010002E+03  0.93447255465E+03  0.96038295508E+03  0.00000000000E+00 0. -1.
         22    1    1    2    0    0  0.10163679199E+02  0.38209298035E+03 -0.29891639538E+03  0.48523124120E+03  0.00000000000E+00 0.  1.
<mgrwt>
<rscale>  0 0.18310229E+04</rscale>
<asrwt>0</asrwt>
<pdfrwt beam="1">  1        1 0.31296209E+00 0.18310229E+04</pdfrwt>
<pdfrwt beam="2">  1       -1 0.63388305E-01 0.18310229E+04</pdfrwt>
<totfact> 0.67105651E+00</totfact>
</mgrwt>
</event>
<event>
 6    1  0.8968082E-007  0.4495849E+04  0.7818608E-02  0.7911364E-01
         -1   -1    0    0    0  501 -0.00000000000E+00  0.00000000000E+00  0.14230848887E+04  0.14230848887E+04  0.00000000000E+00 0.  1.
          1   -1    0    0  501    0  0.00000000000E+00 -0.00000000000E+00 -0.35508520363E+04  0.35508520363E+04  0.00000000000E+00 0. -1.
         23    2    1    2    0    0  0.19190908071E+04 -0.68052480512E+03 -0.12882930196E+02  0.20381646603E+04  0.89026268376E+02 0.  0.
         11    1    3    3    0    0  0.17116961398E+04 -0.62256436667E+03 -0.34636969952E+02  0.18217271435E+04  0.00000000000E+00 0. -1.
        -11    1    3    3    0    0  0.20739466734E+03 -0.57960438454E+02  0.21754039756E+02  0.21643751688E+03  0.00000000000E+00 0.  1.
         22    1    1    2    0    0 -0.19190908071E+04  0.68052480512E+03 -0.21148842174E+04  0.29357722646E+04  0.00000000000E+00 0. -1.
<mgrwt>
<rscale>  0 0.44958487E+04</rscale>
<asrwt>0</asrwt>
<pdfrwt beam="1">  1        1 0.54628492E+00 0.44958487E+04</pdfrwt>
<pdfrwt beam="2">  1       -1 0.21893614E+00 0.44958487E+04</pdfrwt>
<totfact> 0.19122567E-02</totfact>
</mgrwt>
</event>
<event>
 6    1  0.8968082E-007  0.2995824E+04  0.7818608E-02  0.8244924E-01
          2   -1    0    0  501    0  0.00000000000E+00  0.00000000000E+00  0.14151588008E+04  0.14151588008E+04  0.00000000000E+00 0. -1.
         -2   -1    0    0    0  501 -0.00000000000E+00 -0.00000000000E+00 -0.15855038911E+04  0.15855038911E+04  0.00000000000E+00 0.  1.
         23    2    1    2    0    0  0.85557308889E+03  0.42480952866E+03  0.10686680560E+04  0.14361749090E+04  0.89880528105E+02 0.  0.
         13    1    3    3    0    0  0.42377599507E+03  0.16048487839E+03  0.49923701623E+03  0.67422480566E+03  0.00000000000E+00 0. -1.
        -13    1    3    3    0    0  0.43179709382E+03  0.26432465028E+03  0.56943103977E+03  0.76195010337E+03  0.00000000000E+00 0.  1.
         22    1    1    2    0    0 -0.85557308889E+03 -0.42480952866E+03 -0.12390131462E+04  0.15644877828E+04  0.00000000000E+00 0.  1.
<mgrwt>
<rscale>  0 0.29958236E+04</rscale>
<asrwt>0</asrwt>
<pdfrwt beam="1">  1        2 0.21771674E+00 0.29958236E+04</pdfrwt>
<pdfrwt beam="2">  1       -2 0.24392368E+00 0.29958236E+04</pdfrwt>
<totfact> 0.85086656E-01</totfact>
</mgrwt>
</event>
<event>
 6    1  0.8968082E-007  0.3522100E+04  0.7818608E-02  0.8108572E-01
          1   -1    0    0  501    0  0.00000000000E+00  0.00000000000E+00  0.14584145208E+04  0.14584145208E+04  0.00000000000E+00 0. -1.
         -1   -1    0    0    0  501 -0.00000000000E+00 -0.00000000000E+00 -0.21264854508E+04  0.21264854508E+04  0.00000000000E+00 0.  1.
         23    2    1    2    0    0  0.14501589924E+04 -0.87350564001E+03  0.15499103393E+03  0.17025067601E+04  0.92378791372E+02 0.  0.
         11    1    3    3    0    0  0.41670540646E+03 -0.24799271770E+03  0.86364965616E+02  0.49254714606E+03  0.00000000000E+00 0.  1.
        -11    1    3    3    0    0  0.10334535860E+04 -0.62551292230E+03  0.68626068313E+02  0.12099596140E+04  0.00000000000E+00 0. -1.
         22    1    1    2    0    0 -0.14501589924E+04  0.87350564001E+03 -0.82306196389E+03  0.18823932115E+04  0.00000000000E+00 0.  1.
<mgrwt>
<rscale>  0 0.35221001E+04</rscale>
<asrwt>0</asrwt>
<pdfrwt beam="1">  1        1 0.22437146E+00 0.35221001E+04</pdfrwt>
<pdfrwt beam="2">  1       -1 0.32715161E+00 0.35221001E+04</pdfrwt>
<totfact> 0.12509725E-01</totfact>
</mgrwt>
</event>
<event>
 6    1  0.8968082E-007  0.2163059E+04  0.7818608E-02  0.8533963E-01
         -2   -1    0    0    0  501 -0.00000000000E+00  0.00000000000E+00  0.91165460596E+03  0.91165460596E+03  0.00000000000E+00 0.  1.
          2   -1    0    0  501    0  0.00000000000E+00 -0.00000000000E+00 -0.12830582341E+04  0.12830582341E+04  0.00000000000E+00 0. -1.
         23    2    1    2    0    0 -0.75238013372E+03 -0.48524115355E+03 -0.79826125722E+03  0.12028750115E+04  0.90290728824E+02 0.  0.
         13    1    3    3    0    0 -0.11543980946E+03 -0.11561437785E+03 -0.14837880881E+03  0.22070184611E+03  0.00000000000E+00 0.  1.
        -13    1    3    3    0    0 -0.63694032427E+03 -0.36962677570E+03 -0.64988244841E+03  0.98217316536E+03  0.00000000000E+00 0. -1.
         22    1    1    2    0    0  0.75238013372E+03  0.48524115355E+03  0.42685762908E+03  0.99183782859E+03  0.00000000000E+00 0.  1.
<mgrwt>
<rscale>  0 0.21630589E+04</rscale>
<asrwt>0</asrwt>
<pdfrwt beam="1">  1        2 0.19739357E+00 0.21630589E+04</pdfrwt>
<pdfrwt beam="2">  1       -2 0.14025456E+00 0.21630589E+04</pdfrwt>
<totfact> 0.55437399E+00</totfact>
</mgrwt>
</event>
<event>
 6    1  0.8968082E-007  0.5140037E+04  0.7818608E-02  0.7807261E-01
         -2   -1    0    0    0  501 -0.00000000000E+00  0.00000000000E+00  0.18062512098E+04  0.18062512098E+04  0.00000000000E+00 0.  1.
          2   -1    0    0  501    0  0.00000000000E+00 -0.00000000000E+00 -0.36567423560E+04  0.36567423560E+04  0.00000000000E+00 0. -1.
         23    2    1    2    0    0 -0.14246630061E+04 -0.14810073723E+04 -0.25646275845E+04  0.32874388387E+04  0.83017787506E+02 0.  0.
         13    1    3    3    0    0 -0.85022279947E+03 -0.93031038916E+03 -0.15327852559E+04  0.19843857663E+04  0.00000000000E+00 0.  1.
        -13    1    3    3    0    0 -0.57444020664E+03 -0.55069698318E+03 -0.10318423286E+04  0.13030530724E+04  0.00000000000E+00 0. -1.
         22    1    1    2    0    0  0.14246630061E+04  0.14810073723E+04  0.71413643838E+03  0.21755547271E+04  0.00000000000E+00 0.  1.
<mgrwt>
<rscale>  0 0.51400371E+04</rscale>
<asrwt>0</asrwt>
<pdfrwt beam="1">  1        2 0.56257575E+00 0.51400371E+04</pdfrwt>
<pdfrwt beam="2">  1       -2 0.27788480E+00 0.51400371E+04</pdfrwt>
<totfact> 0.19563001E-02</totfact>
</mgrwt>
</event>
<event>
 6    1  0.8968082E-007  0.2084520E+04  0.7818608E-02  0.8568093E-01
         -1   -1    0    0    0  501 -0.00000000000E+00  0.00000000000E+00  0.98465366824E+03  0.98465366824E+03  0.00000000000E+00 0.  1.
          1   -1    0    0  501    0  0.00000000000E+00 -0.00000000000E+00 -0.11032362445E+04  0.11032362445E+04  0.00000000000E+00 0. -1.
         23    2    1    2    0    0 -0.28616467419E+03 -0.97491242166E+03 -0.28283196207E+03  0.10586560659E+04  0.91729474402E+02 0.  0.
         13    1    3    3    0    0 -0.13731314705E+03 -0.52055058275E+03 -0.10479451701E+03  0.54846121135E+03  0.00000000000E+00 0.  1.
        -13    1    3    3    0    0 -0.14885152714E+03 -0.45436183890E+03 -0.17803744505E+03  0.51019485456E+03  0.00000000000E+00 0. -1.
         22    1    1    2    0    0  0.28616467419E+03  0.97491242166E+03  0.16424938583E+03  0.10292338468E+04  0.00000000000E+00 0.  1.
<mgrwt>
<rscale>  0 0.20845197E+04</rscale>
<asrwt>0</asrwt>
<pdfrwt beam="1">  1        1 0.16972865E+00 0.20845197E+04</pdfrwt>
<pdfrwt beam="2">  1       -1 0.15148518E+00 0.20845197E+04</pdfrwt>
<totfact> 0.39446919E+00</totfact>
</mgrwt>
</event>
<event>
 6    1  0.8968082E-007  0.2332886E+04  0.7818608E-02  0.8465066E-01
          1   -1    0    0  501    0  0.00000000000E+00  0.00000000000E+00  0.69682078453E+03  0.69682078453E+03  0.00000000000E+00 0. -1.
         -1   -1    0    0    0  501 -0.00000000000E+00 -0.00000000000E+00 -0.19525677864E+04  0.19525677864E+04  0.00000000000E+00 0.  1.
         23    2    1    2    0    0 -0.10956240416E+04  0.35333225948E+03 -0.42817169648E+03  0.12316027577E+04  0.90986949907E+02 0.  0.
         11    1    3    3    0    0 -0.41176222137E+03  0.16004068689E+03 -0.12611310232E+03  0.45941883177E+03  0.00000000000E+00 0.  1.
        -11    1    3    3    0    0 -0.68386182022E+03  0.19329157259E+03 -0.30205859415E+03  0.77218392594E+03  0.00000000000E+00 0. -1.
         22    1    1    2    0    0  0.10956240416E+04 -0.35333225948E+03 -0.82757530541E+03  0.14177858132E+04  0.00000000000E+00 0. -1.
<mgrwt>
<rscale>  0 0.23328865E+04</rscale>
<asrwt>0</asrwt>
<pdfrwt beam="1">  1        1 0.10720320E+00 0.23328865E+04</pdfrwt>
<pdfrwt beam="2">  1       -1 0.30039504E+00 0.23328865E+04</pdfrwt>
<totfact> 0.81198349E-01</totfact>
</mgrwt>
</event>
<event>
 6    1  0.8968082E-007  0.1207364E+04  0.7818608E-02  0.9106435E-01
          1   -1    0    0  501    0  0.00000000000E+00  0.00000000000E+00  0.31390166048E+03  0.31390166048E+03  0.00000000000E+00 0. -1.
         -1   -1    0    0    0  501 -0.00000000000E+00 -0.00000000000E+00 -0.11609753471E+04  0.11609753471E+04  0.00000000000E+00 0.  1.
         23    2    1    2    0    0 -0.36400917874E+03 -0.20027544038E+03 -0.95587884445E+03  0.10453988398E+04  0.80879136948E+02 0.  0.
         13    1    3    3    0    0 -0.34219641911E+03 -0.16750380463E+03 -0.82494694489E+03  0.90867671682E+03  0.00000000000E+00 0.  1.
        -13    1    3    3    0    0 -0.21812759628E+02 -0.32771635742E+02 -0.13093189956E+03  0.13672212299E+03  0.00000000000E+00 0. -1.
         22    1    1    2    0    0  0.36400917874E+03  0.20027544038E+03  0.10880515783E+03  0.42947816777E+03  0.00000000000E+00 0. -1.
<mgrwt>
<rscale>  0 0.12073642E+04</rscale>
<asrwt>0</asrwt>
<pdfrwt beam="1">  1        1 0.48292564E-01 0.12073642E+04</pdfrwt>
<pdfrwt beam="2">  1       -1 0.17861159E+00 0.12073642E+04</pdfrwt>
<totfact> 0.17406969E+01</totfact>
</mgrwt>
</event>
<event>
 6    1  0.8968082E-007  0.1542301E+04  0.7818608E-02  0.8856801E-01
          2   -1    0    0  501    0  0.00000000000E+00  0.00000000000E+00  0.18204646807E+04  0.18204646807E+04  0.00000000000E+00 0. -1.
         -2   -1    0    0    0  501 -0.00000000000E+00 -0.00000000000E+00 -0.32665993784E+03  0.32665993784E+03  0.00000000000E+00 0.  1.
         23    2    1    2    0    0  0.70839033512E+03 -0.71270522434E+01  0.33541794675E+03  0.78928529404E+03  0.92727636745E+02 0.  0.
         11    1    3    3    0    0  0.50315658235E+03  0.31460742182E+02  0.26015597371E+03  0.56730719661E+03  0.00000000000E+00 0. -1.
        -11    1    3    3    0    0  0.20523375277E+03 -0.38587794426E+02  0.75261973043E+02  0.22197809743E+03  0.00000000000E+00 0.  1.
         22    1    1    2    0    0 -0.70839033512E+03  0.71270522434E+01  0.11583867961E+04  0.13578393245E+04  0.00000000000E+00 0.  1.
<mgrwt>
<rscale>  0 0.15423007E+04</rscale>
<asrwt>0</asrwt>
<pdfrwt beam="1">  1        2 0.28007148E+00 0.15423007E+04</pdfrwt>
<pdfrwt beam="2">  1       -2 0.50255376E-01 0.15423007E+04</pdfrwt>
<totfact> 0.30319493E+01</totfact>
</mgrwt>
</event>
<event>
 6    1  0.8968082E-007  0.1148760E+04  0.7818608E-02  0.9158928E-01
          1   -1    0    0  501    0  0.00000000000E+00  0.00000000000E+00  0.63180203768E+03  0.63180203768E+03  0.00000000000E+00 0. -1.
         -1   -1    0    0    0  501 -0.00000000000E+00 -0.00000000000E+00 -0.52217704475E+03  0.52217704475E+03  0.00000000000E+00 0.  1.
         23    2    1    2    0    0  0.31932841734E+03 -0.11197444766E+03 -0.40662615361E+03  0.53670753655E+03  0.90560675468E+02 0.  0.
         11    1    3    3    0    0  0.15441804333E+03 -0.73991049541E+01 -0.19296869718E+03  0.24725815851E+03  0.00000000000E+00 0.  1.
        -11    1    3    3    0    0  0.16491037400E+03 -0.10457534271E+03 -0.21365745643E+03  0.28944937803E+03  0.00000000000E+00 0. -1.
         22    1    1    2    0    0 -0.31932841734E+03  0.11197444766E+03  0.51625114655E+03  0.61727154588E+03  0.00000000000E+00 0. -1.
<mgrwt>
<rscale>  0 0.11487602E+04</rscale>
<asrwt>0</asrwt>
<pdfrwt beam="1">  1        1 0.97200313E-01 0.11487602E+04</pdfrwt>
<pdfrwt beam="2">  1       -1 0.80334930E-01 0.11487602E+04</pdfrwt>
<totfact> 0.48799715E+01</totfact>
</mgrwt>
</event>
<event>
 6    1  0.8968082E-007  0.2938521E+04  0.7818608E-02  0.8261508E-01
         -1   -1    0    0    0  501 -0.00000000000E+00  0.00000000000E+00  0.11770380379E+04  0.11770380379E+04  0.00000000000E+00 0.  1.
          1   -1    0    0  501    0  0.00000000000E+00 -0.00000000000E+00 -0.18340333342E+04  0.18340333342E+04  0.00000000000E+00 0. -1.
         23    2    1    2    0    0 -0.55656039750E+03  0.60826144700E+03  0.91569915822E+03  0.12353717039E+04  0.88864135373E+02 0.  0.
         11    1    3    3    0    0 -0.95682541779E+02  0.14925070989E+03  0.22747153854E+03  0.28839941756E+03  0.00000000000E+00 0.  1.
        -11    1    3    3    0    0 -0.46087785572E+03  0.45901073711E+03  0.68822761968E+03  0.94697228638E+03  0.00000000000E+00 0. -1.
         22    1    1    2    0    0  0.55656039750E+03 -0.60826144700E+03 -0.15726944545E+04  0.17756996681E+04  0.00000000000E+00 0. -1.
<mgrwt>
<rscale>  0 0.29385214E+04</rscale>
<asrwt>0</asrwt>
<pdfrwt beam="1">  1        1 0.28215898E+00 0.29385214E+04</pdfrwt>
<pdfrwt beam="2">  1       -1 0.18108277E+00 0.29385214E+04</pdfrwt>
<totfact> 0.67555379E-01</totfact>
</mgrwt>
</event>
<event>
 6    1  0.8968082E-007  0.2563178E+04  0.7818608E-02  0.8380817E-01
         -2   -1    0    0    0  501 -0.00000000000E+00  0.00000000000E+00  0.15994625788E+04  0.15994625788E+04  0.00000000000E+00 0.  1.
          2   -1    0    0  501    0  0.00000000000E+00 -0.00000000000E+00 -0.10268890724E+04  0.10268890724E+04  0.00000000000E+00 0. -1.
         23    2    1    2    0    0  0.70528548898E+03 -0.20320724573E+03  0.13610934528E+04  0.15490937844E+04  0.91626197534E+02 0.  0.
         13    1    3    3    0    0  0.65954578931E+03 -0.20284611366E+03  0.12312086487E+04  0.14113900704E+04  0.00000000000E+00 0. -1.
        -13    1    3    3    0    0  0.45739699664E+02 -0.36113206585E+00  0.12988480409E+03  0.13770371410E+03  0.00000000000E+00 0.  1.
         22    1    1    2    0    0 -0.70528548898E+03  0.20320724573E+03 -0.78851994633E+03  0.10772578667E+04  0.00000000000E+00 0. -1.
<mgrwt>
<rscale>  0 0.25631782E+04</rscale>
<asrwt>0</asrwt>
<pdfrwt beam="1">  1        2 0.15798293E+00 0.25631782E+04</pdfrwt>
<pdfrwt beam="2">  1       -2 0.24607117E+00 0.25631782E+04</pdfrwt>
<totfact> 0.14593576E+00</totfact>
</mgrwt>
</event>
<event>
 6    1  0.8968082E-007  0.2089836E+04  0.7818608E-02  0.8565734E-01
         -2   -1    0    0    0  501 -0.00000000000E+00  0.00000000000E+00  0.70098266859E+03  0.70098266859E+03  0.00000000000E+00 0.  1.
          2   -1    0    0  501    0  0.00000000000E+00 -0.00000000000E+00 -0.15576042511E+04  0.15576042511E+04  0.00000000000E+00 0. -1.
         23    2    1    2    0    0 -0.21915215169E+03  0.48255254721E+03  0.54173514465E+03  0.76316518559E+03  0.89774757778E+02 0.  0.
         11    1    3    3    0    0 -0.89304366562E+02  0.10267662640E+03  0.13685139076E+03  0.19299239014E+03  0.00000000000E+00 0. -1.
        -11    1    3    3    0    0 -0.12984778513E+03  0.37987592080E+03  0.40488375389E+03  0.57017279545E+03  0.00000000000E+00 0.  1.
         22    1    1    2    0    0  0.21915215169E+03 -0.48255254721E+03 -0.13983567272E+04  0.14954217341E+04  0.00000000000E+00 0. -1.
<mgrwt>
<rscale>  0 0.20898360E+04</rscale>
<asrwt>0</asrwt>
<pdfrwt beam="1">  1        2 0.23963142E+00 0.20898360E+04</pdfrwt>
<pdfrwt beam="2">  1       -2 0.10784349E+00 0.20898360E+04</pdfrwt>
<totfact> 0.74893257E+00</totfact>
</mgrwt>
</event>
<event>
 6    1  0.8968082E-007  0.3470748E+04  0.7818608E-02  0.8120757E-01
          2   -1    0    0  501    0  0.00000000000E+00  0.00000000000E+00  0.19596797456E+04  0.19596797456E+04  0.00000000000E+00 0. -1.
         -2   -1    0    0    0  501 -0.00000000000E+00 -0.00000000000E+00 -0.15367423641E+04  0.15367423641E+04  0.00000000000E+00 0.  1.
         23    2    1    2    0    0 -0.18014514321E+03 -0.15057183135E+04  0.10590884346E+04  0.18519379733E+04  0.91466018486E+02 0.  0.
         11    1    3    3    0    0 -0.65122923970E+02 -0.84691549695E+03  0.62628925126E+03  0.10553412152E+04  0.00000000000E+00 0. -1.
        -11    1    3    3    0    0 -0.11502221924E+03 -0.65880281652E+03  0.43279918338E+03  0.79659675816E+03  0.00000000000E+00 0.  1.
         22    1    1    2    0    0  0.18014514321E+03  0.15057183135E+04 -0.63615105315E+03  0.16444841363E+04  0.00000000000E+00 0.  1.
<mgrwt>
<rscale>  0 0.34707480E+04</rscale>
<asrwt>0</asrwt>
<pdfrwt beam="1">  1        2 0.30148919E+00 0.34707480E+04</pdfrwt>
<pdfrwt beam="2">  1       -2 0.23642190E+00 0.34707480E+04</pdfrwt>
<totfact> 0.45180593E-01</totfact>
</mgrwt>
</event>
<event>
 6    1  0.8968082E-007  0.1641613E+04  0.7818608E-02  0.8795384E-01
          2   -1    0    0  501    0  0.00000000000E+00  0.00000000000E+00  0.21213514588E+04  0.21213514588E+04  0.00000000000E+00 0. -1.
         -2   -1    0    0    0  501 -0.00000000000E+00 -0.00000000000E+00 -0.31759148994E+03  0.31759148994E+03  0.00000000000E+00 0.  1.
         23    2    1    2    0    0 -0.67888186451E+03  0.34971932129E+03  0.13420513534E+04  0.15465534400E+04  0.86841914716E+02 0.  0.
         11    1    3    3    0    0 -0.27528903362E+03  0.17090261177E+03  0.50003949651E+03  0.59584499059E+03  0.00000000000E+00 0.  1.
        -11    1    3    3    0    0 -0.40359283089E+03  0.17881670951E+03  0.84201185685E+03  0.95070844944E+03  0.00000000000E+00 0. -1.
         22    1    1    2    0    0  0.67888186451E+03 -0.34971932129E+03  0.46170861549E+03  0.89238950872E+03  0.00000000000E+00 0. -1.
<mgrwt>
<rscale>  0 0.16416128E+04</rscale>
<asrwt>0</asrwt>
<pdfrwt beam="1">  1        2 0.32636175E+00 0.16416128E+04</pdfrwt>
<pdfrwt beam="2">  1       -2 0.48860230E-01 0.16416128E+04</pdfrwt>
<totfact> 0.21682603E+01</totfact>
</mgrwt>
</event>
<event>
 6    1  0.8968082E-007  0.1252120E+04  0.7818608E-02  0.9068420E-01
         -2   -1    0    0    0  501 -0.00000000000E+00  0.00000000000E+00  0.27165577370E+03  0.27165577370E+03  0.00000000000E+00 0.  1.
          2   -1    0    0  501    0  0.00000000000E+00 -0.00000000000E+00 -0.14428235683E+04  0.14428235683E+04  0.00000000000E+00 0. -1.
         23    2    1    2    0    0 -0.10471539051E+03  0.29044345122E+03  0.15167056598E+03  0.35608910368E+03  0.92047693131E+02 0.  0.
         13    1    3    3    0    0 -0.97725407916E+01  0.38599659885E+01  0.27880000019E+02  0.29794232529E+02  0.00000000000E+00 0.  1.
        -13    1    3    3    0    0 -0.94942849720E+02  0.28658348523E+03  0.12379056596E+03  0.32629487115E+03  0.00000000000E+00 0. -1.
         22    1    1    2    0    0  0.10471539051E+03 -0.29044345122E+03 -0.13228383606E+04  0.13583902384E+04  0.00000000000E+00 0. -1.
<mgrwt>
<rscale>  0 0.12521204E+04</rscale>
<asrwt>0</asrwt>
<pdfrwt beam="1">  1        2 0.22197285E+00 0.12521204E+04</pdfrwt>
<pdfrwt beam="2">  1       -2 0.41793197E-01 0.12521204E+04</pdfrwt>
<totfact> 0.72936482E+01</totfact>
</mgrwt>
</event>
<event>
 6    1  0.8968082E-007  0.1743287E+04  0.7818608E-02  0.8737054E-01
         -2   -1    0    0    0  501 -0.00000000000E+00  0.00000000000E+00  0.28725633047E+03  0.28725633047E+03  0.00000000000E+00 0.  1.
          2   -1    0    0  501    0  0.00000000000E+00 -0.00000000000E+00 -0.26448927972E+04  0.26448927972E+04  0.00000000000E+00 0. -1.
         23    2    1    2    0    0  0.11205876036E+03  0.74008548908E+03 -0.19244117068E+04  0.20672980483E+04  0.10038479056E+03 0.  0.
         13    1    3    3    0    0  0.10557660495E+03  0.42801672259E+03 -0.12041063542E+04  0.12822701925E+04  0.00000000000E+00 0. -1.
        -13    1    3    3    0    0  0.64821554060E+01  0.31206876649E+03 -0.72030535264E+03  0.78502785582E+03  0.00000000000E+00 0.  1.
         22    1    1    2    0    0 -0.11205876036E+03 -0.74008548908E+03 -0.43322475993E+03  0.86485107940E+03  0.00000000000E+00 0.  1.
<mgrwt>
<rscale>  0 0.17432868E+04</rscale>
<asrwt>0</asrwt>
<pdfrwt beam="1">  1        2 0.40690659E+00 0.17432868E+04</pdfrwt>
<pdfrwt beam="2">  1       -2 0.44193280E-01 0.17432868E+04</pdfrwt>
<totfact> 0.13212869E+01</totfact>
</mgrwt>
</event>
<event>
 6    1  0.8968082E-007  0.3384142E+04  0.7818608E-02  0.8141809E-01
          2   -1    0    0  501    0  0.00000000000E+00  0.00000000000E+00  0.96472082411E+03  0.96472082411E+03  0.00000000000E+00 0. -1.
         -2   -1    0    0    0  501 -0.00000000000E+00 -0.00000000000E+00 -0.29678061955E+04  0.29678061955E+04  0.00000000000E+00 0.  1.
         23    2    1    2    0    0  0.14614929283E+04 -0.22454187962E+03 -0.19551882224E+04  0.24531099818E+04  0.92773716454E+02 0.  0.
         11    1    3    3    0    0  0.65853214291E+03 -0.14767254558E+03 -0.88279487849E+03  0.11112149034E+04  0.00000000000E+00 0.  1.
        -11    1    3    3    0    0  0.80296078537E+03 -0.76869334035E+02 -0.10723933439E+04  0.13418950784E+04  0.00000000000E+00 0. -1.
         22    1    1    2    0    0 -0.14614929283E+04  0.22454187962E+03 -0.47897149041E+02  0.14794170379E+04  0.00000000000E+00 0. -1.
<mgrwt>
<rscale>  0 0.33841421E+04</rscale>
<asrwt>0</asrwt>
<pdfrwt beam="1">  1        2 0.14841859E+00 0.33841421E+04</pdfrwt>
<pdfrwt beam="2">  1       -2 0.45658556E+00 0.33841421E+04</pdfrwt>
<totfact> 0.69070305E-02</totfact>
</mgrwt>
</event>
<event>
 6    1  0.1589156E-006  0.3288410E+04  0.7818608E-02  0.8165851E-01
         -1   -1    0    0    0  501 -0.00000000000E+00  0.00000000000E+00  0.14540783334E+04  0.14540783334E+04  0.00000000000E+00 0.  1.
          1   -1    0    0  501    0  0.00000000000E+00 -0.00000000000E+00 -0.18591911754E+04  0.18591911754E+04  0.00000000000E+00 0. -1.
         23    2    1    2    0    0  0.29428634665E+03  0.24281111574E+03  0.14073748205E+04  0.14610618482E+04  0.91848501771E+02 0.  0.
         11    1    3    3    0    0  0.19792970579E+03  0.11787730031E+03  0.72672523002E+03  0.76236525780E+03  0.00000000000E+00 0. -1.
        -11    1    3    3    0    0  0.96356640864E+02  0.12493381543E+03  0.68064959044E+03  0.69869659040E+03  0.00000000000E+00 0.  1.
         22    1    1    2    0    0 -0.29428634665E+03 -0.24281111574E+03 -0.18124876624E+04  0.18522076607E+04  0.00000000000E+00 0. -1.
<mgrwt>
<rscale>  0 0.32884097E+04</rscale>
<asrwt>0</asrwt>
<pdfrwt beam="1">  1        1 0.28602941E+00 0.32884097E+04</pdfrwt>
<pdfrwt beam="2">  1       -1 0.22370436E+00 0.32884097E+04</pdfrwt>
<totfact> 0.32058533E-01</totfact>
</mgrwt>
</event>
<event>
 6    1  0.9095968E-007  0.3873045E+04  0.7818608E-02  0.8030659E-01
         -1   -1    0    0    0  501 -0.00000000000E+00  0.00000000000E+00  0.14186912332E+04  0.14186912332E+04  0.00000000000E+00 0.  1.
          1   -1    0    0  501    0  0.00000000000E+00 -0.00000000000E+00 -0.26433648322E+04  0.26433648322E+04  0.00000000000E+00 0. -1.
         23    2    1    2    0    0  0.57041818221E+02 -0.93934772769E+03 -0.23864607042E+04  0.25669382772E+04  0.91375618314E+02 0.  0.
         13    1    3    3    0    0  0.68623007182E+02 -0.38731885760E+03 -0.99570484465E+03  0.10705854250E+04  0.00000000000E+00 0.  1.
        -13    1    3    3    0    0 -0.11581188961E+02 -0.55202887009E+03 -0.13907558596E+04  0.14963528522E+04  0.00000000000E+00 0. -1.
         22    1    1    2    0    0 -0.57041818221E+02  0.93934772769E+03  0.11617871053E+04  0.14951177882E+04  0.00000000000E+00 0.  1.
<mgrwt>
<rscale>  0 0.38730445E+04</rscale>
<asrwt>0</asrwt>
<pdfrwt beam="1">  1        1 0.40667151E+00 0.38730445E+04</pdfrwt>
<pdfrwt beam="2">  1       -1 0.21826019E+00 0.38730445E+04</pdfrwt>
<totfact> 0.96170834E-02</totfact>
</mgrwt>
</event>
<event>
 6    1  0.8968082E-007  0.2469934E+04  0.7818608E-02  0.8413776E-01
          2   -1    0    0  501    0  0.00000000000E+00  0.00000000000E+00  0.14351808491E+04  0.14351808491E+04  0.00000000000E+00 0. -1.
         -2   -1    0    0    0  501 -0.00000000000E+00 -0.00000000000E+00 -0.10626836494E+04  0.10626836494E+04  0.00000000000E+00 0.  1.
         23    2    1    2    0    0 -0.66757118075E+03 -0.46199680173E+03  0.11262497163E+04  0.13900580251E+04  0.68779091551E+02 0.  0.
         11    1    3    3    0    0 -0.18394158642E+03 -0.92977126420E+02  0.26850031649E+03  0.33848437661E+03  0.00000000000E+00 0.  1.
        -11    1    3    3    0    0 -0.48362959433E+03 -0.36901967531E+03  0.85774939986E+03  0.10515736485E+04  0.00000000000E+00 0. -1.
         22    1    1    2    0    0  0.66757118075E+03  0.46199680173E+03 -0.75375251668E+03  0.11078064734E+04  0.00000000000E+00 0.  1.
<mgrwt>
<rscale>  0 0.24699338E+04</rscale>
<asrwt>0</asrwt>
<pdfrwt beam="1">  1        2 0.22079705E+00 0.24699338E+04</pdfrwt>
<pdfrwt beam="2">  1       -2 0.16348979E+00 0.24699338E+04</pdfrwt>
<totfact> 0.29335699E+00</totfact>
</mgrwt>
</event>
<event>
 6    1  0.8968082E-007  0.5377382E+03  0.7818608E-02  0.1004373E+00
         -2   -1    0    0    0  501 -0.00000000000E+00  0.00000000000E+00  0.39326834315E+02  0.39326834315E+02  0.00000000000E+00 0.  1.
          2   -1    0    0  501    0  0.00000000000E+00 -0.00000000000E+00 -0.18382000053E+04  0.18382000053E+04  0.00000000000E+00 0. -1.
         23    2    1    2    0    0 -0.15493314988E+03  0.17437600780E+03 -0.13350271920E+04  0.13583309563E+04  0.91400822894E+02 0.  0.
         13    1    3    3    0    0 -0.14125493376E+03  0.17580807675E+03 -0.10988845907E+04  0.11217882064E+04  0.00000000000E+00 0. -1.
        -13    1    3    3    0    0 -0.13678216120E+02 -0.14320689464E+01 -0.23614260130E+03  0.23654274997E+03  0.00000000000E+00 0.  1.
         22    1    1    2    0    0  0.15493314988E+03 -0.17437600780E+03 -0.46384597894E+03  0.51919588327E+03  0.00000000000E+00 0.  1.
<mgrwt>
<rscale>  0 0.53773818E+03</rscale>
<asrwt>0</asrwt>
<pdfrwt beam="1">  1        2 0.28279992E+00 0.53773818E+03</pdfrwt>
<pdfrwt beam="2">  1       -2 0.60502839E-02 0.53773818E+03</pdfrwt>
<totfact> 0.12972608E+03</totfact>
</mgrwt>
</event>
<event>
 6    1  0.8968082E-007  0.3429787E+04  0.7818608E-02  0.8130634E-01
          2   -1    0    0  501    0  0.00000000000E+00  0.00000000000E+00  0.18251634739E+04  0.18251634739E+04  0.00000000000E+00 0. -1.
         -2   -1    0    0    0  501 -0.00000000000E+00 -0.00000000000E+00 -0.16112854744E+04  0.16112854744E+04  0.00000000000E+00 0.  1.
         23    2    1    2    0    0  0.62642888224E+03  0.52177035583E+03 -0.14019083628E+04  0.16266359698E+04  0.12625399670E+03 0.  0.
         11    1    3    3    0    0  0.11190689143E+03  0.79645962782E+02 -0.15476563273E+03  0.20692760282E+03  0.00000000000E+00 0. -1.
        -11    1    3    3    0    0  0.51452199081E+03  0.44212439304E+03 -0.12471427301E+04  0.14197083670E+04  0.00000000000E+00 0.  1.
         22    1    1    2    0    0 -0.62642888224E+03 -0.52177035583E+03  0.16157863623E+04  0.18098129785E+04  0.00000000000E+00 0. -1.
<mgrwt>
<rscale>  0 0.34297868E+04</rscale>
<asrwt>0</asrwt>
<pdfrwt beam="1">  1        2 0.28079438E+00 0.34297868E+04</pdfrwt>
<pdfrwt beam="2">  1       -2 0.24789007E+00 0.34297868E+04</pdfrwt>
<totfact> 0.45725647E-01</totfact>
</mgrwt>
</event>
<event>
 6    1  0.8968082E-007  0.3114724E+04  0.7818608E-02  0.8211709E-01
         -2   -1    0    0    0  501 -0.00000000000E+00  0.00000000000E+00  0.10118504742E+04  0.10118504742E+04  0.00000000000E+00 0.  1.
          2   -1    0    0  501    0  0.00000000000E+00 -0.00000000000E+00 -0.23969715193E+04  0.23969715193E+04  0.00000000000E+00 0. -1.
         23    2    1    2    0    0 -0.15342403326E+04 -0.14761176892E+03 -0.45950482698E+03  0.16109209907E+04  0.90769597375E+02 0.  0.
         13    1    3    3    0    0 -0.73768734134E+03 -0.89556835222E+02 -0.26470359102E+03  0.78884157560E+03  0.00000000000E+00 0. -1.
        -13    1    3    3    0    0 -0.79655299127E+03 -0.58054933693E+02 -0.19480123597E+03  0.82207941512E+03  0.00000000000E+00 0.  1.
         22    1    1    2    0    0  0.15342403326E+04  0.14761176892E+03 -0.92561621812E+03  0.17979010028E+04  0.00000000000E+00 0. -1.
<mgrwt>
<rscale>  0 0.31147242E+04</rscale>
<asrwt>0</asrwt>
<pdfrwt beam="1">  1        2 0.36876485E+00 0.31147242E+04</pdfrwt>
<pdfrwt beam="2">  1       -2 0.15566930E+00 0.31147242E+04</pdfrwt>
<totfact> 0.91833707E-01</totfact>
</mgrwt>
</event>
<event>
 6    1  0.8968082E-007  0.3669925E+04  0.7818608E-02  0.8074660E-01
          2   -1    0    0  501    0  0.00000000000E+00  0.00000000000E+00  0.43679432628E+04  0.43679432628E+04  0.00000000000E+00 0. -1.
         -2   -1    0    0    0  501 -0.00000000000E+00 -0.00000000000E+00 -0.77086338030E+03  0.77086338030E+03  0.00000000000E+00 0.  1.
         23    2    1    2    0    0 -0.37773690810E+03 -0.17572551275E+03  0.43003251567E+04  0.43214214565E+04  0.91226770466E+02 0.  0.
         13    1    3    3    0    0 -0.22580656819E+03 -0.10172010475E+03  0.29908473535E+04  0.30010837173E+04  0.00000000000E+00 0. -1.
        -13    1    3    3    0    0 -0.15193033992E+03 -0.74005408006E+02  0.13094778032E+04  0.13203377392E+04  0.00000000000E+00 0.  1.
         22    1    1    2    0    0  0.37773690810E+03  0.17572551275E+03 -0.70324527421E+03  0.81738518660E+03  0.00000000000E+00 0.  1.
<mgrwt>
<rscale>  0 0.36699251E+04</rscale>
<asrwt>0</asrwt>
<pdfrwt beam="1">  1        2 0.67199126E+00 0.36699251E+04</pdfrwt>
<pdfrwt beam="2">  1       -2 0.11859437E+00 0.36699251E+04</pdfrwt>
<totfact> 0.72496345E-02</totfact>
</mgrwt>
</event>
<event>
 6    1  0.8968082E-007  0.1747110E+04  0.7818608E-02  0.8734943E-01
          2   -1    0    0  501    0  0.00000000000E+00  0.00000000000E+00  0.99255515209E+03  0.99255515209E+03  0.00000000000E+00 0. -1.
         -2   -1    0    0    0  501 -0.00000000000E+00 -0.00000000000E+00 -0.76882209750E+03  0.76882209750E+03  0.00000000000E+00 0.  1.
         23    2    1    2    0    0  0.29171225311E+03 -0.82091680277E+03  0.11952510429E+03  0.88396073927E+03  0.89999457402E+02 0.  0.
         11    1    3    3    0    0  0.13950488088E+03 -0.29696457177E+03  0.15114967308E+02  0.32844791202E+03  0.00000000000E+00 0. -1.
        -11    1    3    3    0    0  0.15220737222E+03 -0.52395223100E+03  0.10441013698E+03  0.55551282725E+03  0.00000000000E+00 0.  1.
         22    1    1    2    0    0 -0.29171225311E+03  0.82091680277E+03  0.10420795030E+03  0.87741651032E+03  0.00000000000E+00 0. -1.
<mgrwt>
<rscale>  0 0.17471100E+04</rscale>
<asrwt>0</asrwt>
<pdfrwt beam="1">  1        2 0.15270079E+00 0.17471100E+04</pdfrwt>
<pdfrwt beam="2">  1       -2 0.11828032E+00 0.17471100E+04</pdfrwt>
<totfact> 0.13289679E+01</totfact>
</mgrwt>
</event>
<event>
 6    1  0.8968082E-007  0.2019305E+04  0.7818608E-02  0.8597648E-01
         -2   -1    0    0    0  501 -0.00000000000E+00  0.00000000000E+00  0.52865644834E+03  0.52865644834E+03  0.00000000000E+00 0.  1.
          2   -1    0    0  501    0  0.00000000000E+00 -0.00000000000E+00 -0.19282810631E+04  0.19282810631E+04  0.00000000000E+00 0. -1.
         23    2    1    2    0    0  0.62878078377E+03 -0.88158452846E+02 -0.16531139556E+04  0.17732752902E+04  0.92640800361E+02 0.  0.
         13    1    3    3    0    0  0.43119834542E+03 -0.74910266827E+02 -0.12443114512E+04  0.13190354616E+04  0.00000000000E+00 0. -1.
        -13    1    3    3    0    0  0.19758243834E+03 -0.13248186019E+02 -0.40880250434E+03  0.45423982864E+03  0.00000000000E+00 0.  1.
         22    1    1    2    0    0 -0.62878078377E+03  0.88158452846E+02  0.25348934081E+03  0.68366222124E+03  0.00000000000E+00 0.  1.
<mgrwt>
<rscale>  0 0.20193050E+04</rscale>
<asrwt>0</asrwt>
<pdfrwt beam="1">  1        2 0.29665862E+00 0.20193050E+04</pdfrwt>
<pdfrwt beam="2">  1       -2 0.81331762E-01 0.20193050E+04</pdfrwt>
<totfact> 0.90467552E+00</totfact>
</mgrwt>
</event>
<event>
 6    1  0.8968082E-007  0.1461621E+04  0.7818608E-02  0.8910383E-01
         -2   -1    0    0    0  501 -0.00000000000E+00  0.00000000000E+00  0.28617688854E+03  0.28617688854E+03  0.00000000000E+00 0.  1.
          2   -1    0    0  501    0  0.00000000000E+00 -0.00000000000E+00 -0.18662723166E+04  0.18662723166E+04  0.00000000000E+00 0. -1.
         23    2    1    2    0    0  0.67444061414E+01  0.68592125480E+03 -0.43415221279E+03  0.81688965672E+03  0.91033579443E+02 0.  0.
         11    1    3    3    0    0 -0.33366711189E+02  0.28303168457E+03 -0.21086264488E+03  0.35451844366E+03  0.00000000000E+00 0. -1.
        -11    1    3    3    0    0  0.40111117331E+02  0.40288957023E+03 -0.22328956791E+03  0.46237121306E+03  0.00000000000E+00 0.  1.
         22    1    1    2    0    0 -0.67444061414E+01 -0.68592125480E+03 -0.11459432153E+04  0.13355595485E+04  0.00000000000E+00 0. -1.
<mgrwt>
<rscale>  0 0.14616210E+04</rscale>
<asrwt>0</asrwt>
<pdfrwt beam="1">  1        2 0.28711882E+00 0.14616210E+04</pdfrwt>
<pdfrwt beam="2">  1       -2 0.44027213E-01 0.14616210E+04</pdfrwt>
<totfact> 0.37586166E+01</totfact>
</mgrwt>
</event>
<event>
 6    1  0.8968082E-007  0.2503037E+04  0.7818608E-02  0.8401905E-01
         -1   -1    0    0    0  501 -0.00000000000E+00  0.00000000000E+00  0.89374049836E+03  0.89374049836E+03  0.00000000000E+00 0.  1.
          1   -1    0    0  501    0  0.00000000000E+00 -0.00000000000E+00 -0.17525198935E+04  0.17525198935E+04  0.00000000000E+00 0. -1.
         23    2    1    2    0    0  0.88952731528E+03  0.59806826431E+03  0.24965708551E+03  0.11043213772E+04  0.90843548519E+02 0.  0.
         13    1    3    3    0    0  0.88706937191E+03  0.59857449113E+03  0.24323634123E+03  0.10974276330E+04  0.00000000000E+00 0.  1.
        -13    1    3    3    0    0  0.24579433707E+01 -0.50622681943E+00  0.64207442846E+01  0.68937441477E+01  0.00000000000E+00 0. -1.
         22    1    1    2    0    0 -0.88952731528E+03 -0.59806826431E+03 -0.11084364807E+04  0.15419390147E+04  0.00000000000E+00 0. -1.
<mgrwt>
<rscale>  0 0.25030366E+04</rscale>
<asrwt>0</asrwt>
<pdfrwt beam="1">  1        1 0.26961844E+00 0.25030366E+04</pdfrwt>
<pdfrwt beam="2">  1       -1 0.13749854E+00 0.25030366E+04</pdfrwt>
<totfact> 0.17124713E+00</totfact>
</mgrwt>
</event>
<event>
 6    1  0.8968082E-007  0.1109009E+04  0.7818608E-02  0.9196455E-01
         -1   -1    0    0    0  501 -0.00000000000E+00  0.00000000000E+00  0.44147037650E+03  0.44147037650E+03  0.00000000000E+00 0.  1.
          1   -1    0    0  501    0  0.00000000000E+00 -0.00000000000E+00 -0.69648033525E+03  0.69648033525E+03  0.00000000000E+00 0. -1.
         23    2    1    2    0    0  0.33270192975E+03  0.14805981242E+03  0.29614294626E+03  0.47735869937E+03  0.86939065646E+02 0.  0.
         11    1    3    3    0    0  0.12687242044E+03  0.10108447049E+03  0.14652670050E+03  0.21859724427E+03  0.00000000000E+00 0.  1.
        -11    1    3    3    0    0  0.20582950931E+03  0.46975341921E+02  0.14961624576E+03  0.25876145510E+03  0.00000000000E+00 0. -1.
         22    1    1    2    0    0 -0.33270192975E+03 -0.14805981242E+03 -0.55115290501E+03  0.66059201237E+03  0.00000000000E+00 0. -1.
<mgrwt>
<rscale>  0 0.11090094E+04</rscale>
<asrwt>0</asrwt>
<pdfrwt beam="1">  1        1 0.10715082E+00 0.11090094E+04</pdfrwt>
<pdfrwt beam="2">  1       -1 0.67918520E-01 0.11090094E+04</pdfrwt>
<totfact> 0.60031868E+01</totfact>
</mgrwt>
</event>
<event>
 6    1  0.8968082E-007  0.2200545E+04  0.7818608E-02  0.8518201E-01
          2   -1    0    0  501    0  0.00000000000E+00  0.00000000000E+00  0.78984380214E+03  0.78984380214E+03  0.00000000000E+00 0. -1.
         -2   -1    0    0    0  501 -0.00000000000E+00 -0.00000000000E+00 -0.15327077576E+04  0.15327077576E+04  0.00000000000E+00 0.  1.
         23    2    1    2    0    0  0.36945661114E+02 -0.87369059080E+03 -0.10732337249E+04  0.13877551034E+04  0.96609359668E+02 0.  0.
         13    1    3    3    0    0 -0.23268904321E+02 -0.34109026526E+03 -0.37384605294E+03  0.50660130503E+03  0.00000000000E+00 0. -1.
        -13    1    3    3    0    0  0.60214565435E+02 -0.53260032554E+03 -0.69938767194E+03  0.88115379833E+03  0.00000000000E+00 0.  1.
         22    1    1    2    0    0 -0.36945661114E+02  0.87369059080E+03  0.33036976941E+03  0.93479645638E+03  0.00000000000E+00 0. -1.
<mgrwt>
<rscale>  0 0.22005451E+04</rscale>
<asrwt>0</asrwt>
<pdfrwt beam="1">  1        2 0.12151443E+00 0.22005451E+04</pdfrwt>
<pdfrwt beam="2">  1       -2 0.23580119E+00 0.22005451E+04</pdfrwt>
<totfact> 0.25181175E+00</totfact>
</mgrwt>
</event>
<event>
 6    1  0.8968082E-007  0.4654519E+04  0.7818608E-02  0.7884130E-01
         -1   -1    0    0    0  501 -0.00000000000E+00  0.00000000000E+00  0.14275879689E+04  0.14275879689E+04  0.00000000000E+00 0.  1.
          1   -1    0    0  501    0  0.00000000000E+00 -0.00000000000E+00 -0.37939070090E+04  0.37939070090E+04  0.00000000000E+00 0. -1.
         23    2    1    2    0    0  0.16998778965E+04 -0.10554733673E+02 -0.29652047477E+04  0.34191741529E+04  0.92824712401E+02 0.  0.
         13    1    3    3    0    0  0.10549454472E+04  0.14066645447E+02 -0.17584795544E+04  0.20506969816E+04  0.00000000000E+00 0.  1.
        -13    1    3    3    0    0  0.64493244931E+03 -0.24621379119E+02 -0.12067251932E+04  0.13684771713E+04  0.00000000000E+00 0. -1.
         22    1    1    2    0    0 -0.16998778965E+04  0.10554733673E+02  0.59888570754E+03  0.18023208249E+04  0.00000000000E+00 0.  1.
<mgrwt>
<rscale>  0 0.46545187E+04</rscale>
<asrwt>0</asrwt>
<pdfrwt beam="1">  1        1 0.58367801E+00 0.46545187E+04</pdfrwt>
<pdfrwt beam="2">  1       -1 0.21962892E+00 0.46545187E+04</pdfrwt>
<totfact> 0.11816120E-02</totfact>
</mgrwt>
</event>
<event>
 6    1  0.8968082E-007  0.3291108E+04  0.7818608E-02  0.8165162E-01
          2   -1    0    0  501    0  0.00000000000E+00  0.00000000000E+00  0.23773107127E+04  0.23773107127E+04  0.00000000000E+00 0. -1.
         -2   -1    0    0    0  501 -0.00000000000E+00 -0.00000000000E+00 -0.11390383899E+04  0.11390383899E+04  0.00000000000E+00 0.  1.
         23    2    1    2    0    0 -0.12516357659E+04 -0.88707608318E+02  0.17550529790E+04  0.21593216980E+04  0.89432130940E+02 0.  0.
         11    1    3    3    0    0 -0.49597757209E+03  0.82180691078E+01  0.70273762105E+03  0.86017524535E+03  0.00000000000E+00 0. -1.
        -11    1    3    3    0    0 -0.75565819385E+03 -0.96925677426E+02  0.10523153579E+04  0.12991464527E+04  0.00000000000E+00 0.  1.
         22    1    1    2    0    0  0.12516357659E+04  0.88707608318E+02 -0.51678065610E+03  0.13570274046E+04  0.00000000000E+00 0.  1.
<mgrwt>
<rscale>  0 0.32911081E+04</rscale>
<asrwt>0</asrwt>
<pdfrwt beam="1">  1        2 0.36574011E+00 0.32911081E+04</pdfrwt>
<pdfrwt beam="2">  1       -2 0.17523668E+00 0.32911081E+04</pdfrwt>
<totfact> 0.67006060E-01</totfact>
</mgrwt>
</event>
<event>
 6    1  0.8968082E-007  0.2245857E+04  0.7818608E-02  0.8499580E-01
          1   -1    0    0  501    0  0.00000000000E+00  0.00000000000E+00  0.16205470106E+04  0.16205470106E+04  0.00000000000E+00 0. -1.
         -1   -1    0    0    0  501 -0.00000000000E+00 -0.00000000000E+00 -0.77811253557E+03  0.77811253557E+03  0.00000000000E+00 0.  1.
         23    2    1    2    0    0  0.81969876190E+03 -0.35631509223E+03  0.11447615863E+04  0.14551193046E+04  0.89591271635E+02 0.  0.
         11    1    3    3    0    0  0.27694543544E+03 -0.15589363745E+03  0.36143957087E+03  0.48129010358E+03  0.00000000000E+00 0. -1.
        -11    1    3    3    0    0  0.54275332645E+03 -0.20042145478E+03  0.78332201546E+03  0.97382920105E+03  0.00000000000E+00 0.  1.
         22    1    1    2    0    0 -0.81969876190E+03  0.35631509223E+03 -0.30232711129E+03  0.94354024155E+03  0.00000000000E+00 0.  1.
<mgrwt>
<rscale>  0 0.22458566E+04</rscale>
<asrwt>0</asrwt>
<pdfrwt beam="1">  1        1 0.24931492E+00 0.22458566E+04</pdfrwt>
<pdfrwt beam="2">  1       -1 0.11970962E+00 0.22458566E+04</pdfrwt>
<totfact> 0.30547891E+00</totfact>
</mgrwt>
</event>
<event>
 6    1  0.8968082E-007  0.1038147E+04  0.7818608E-02  0.9267668E-01
         -2   -1    0    0    0  501 -0.00000000000E+00  0.00000000000E+00  0.10513425136E+03  0.10513425136E+03  0.00000000000E+00 0.  1.
          2   -1    0    0  501    0  0.00000000000E+00 -0.00000000000E+00 -0.25627913157E+04  0.25627913157E+04  0.00000000000E+00 0. -1.
         23    2    1    2    0    0 -0.34062464951E+01 -0.12444132712E+03 -0.25227088119E+04  0.25274656929E+04  0.92335436000E+02 0.  0.
         11    1    3    3    0    0  0.26744333514E+02  0.20678800712E+00 -0.44371647398E+03  0.44452177834E+03  0.00000000000E+00 0.  1.
        -11    1    3    3    0    0 -0.30150580009E+02 -0.12464811513E+03 -0.20789923379E+04  0.20829439145E+04  0.00000000000E+00 0. -1.
         22    1    1    2    0    0  0.34062464951E+01  0.12444132712E+03  0.65051747504E+02  0.14045987421E+03  0.00000000000E+00 0.  1.
<mgrwt>
<rscale>  0 0.10381467E+04</rscale>
<asrwt>0</asrwt>
<pdfrwt beam="1">  1        2 0.39427557E+00 0.10381467E+04</pdfrwt>
<pdfrwt beam="2">  1       -2 0.16174501E-01 0.10381467E+04</pdfrwt>
<totfact> 0.99668022E+01</totfact>
</mgrwt>
</event>
<event>
 6    1  0.8968082E-007  0.1422831E+04  0.7818608E-02  0.8937456E-01
          2   -1    0    0  501    0  0.00000000000E+00  0.00000000000E+00  0.13368768637E+04  0.13368768637E+04  0.00000000000E+00 0. -1.
         -2   -1    0    0    0  501 -0.00000000000E+00 -0.00000000000E+00 -0.37857774685E+03  0.37857774685E+03  0.00000000000E+00 0.  1.
         23    2    1    2    0    0 -0.21824105409E+03 -0.16891874441E+03 -0.30544528379E+03  0.42192741328E+03  0.92537672279E+02 0.  0.
         13    1    3    3    0    0 -0.12685318985E+03 -0.44827089285E+02 -0.11542854504E+03  0.17727083437E+03  0.00000000000E+00 0.  1.
        -13    1    3    3    0    0 -0.91387864240E+02 -0.12409165513E+03 -0.19001673874E+03  0.24465657891E+03  0.00000000000E+00 0. -1.
         22    1    1    2    0    0  0.21824105409E+03  0.16891874441E+03  0.12637444006E+04  0.12935271973E+04  0.00000000000E+00 0. -1.
<mgrwt>
<rscale>  0 0.14228307E+04</rscale>
<asrwt>0</asrwt>
<pdfrwt beam="1">  1        2 0.20567336E+00 0.14228307E+04</pdfrwt>
<pdfrwt beam="2">  1       -2 0.58242731E-01 0.14228307E+04</pdfrwt>
<totfact> 0.42158697E+01</totfact>
</mgrwt>
</event>
<event>
 6    1  0.8968082E-007  0.1240757E+04  0.7818608E-02  0.9077911E-01
          1   -1    0    0  501    0  0.00000000000E+00  0.00000000000E+00  0.13397068096E+04  0.13397068096E+04  0.00000000000E+00 0. -1.
         -1   -1    0    0    0  501 -0.00000000000E+00 -0.00000000000E+00 -0.28727910411E+03  0.28727910411E+03  0.00000000000E+00 0.  1.
         23    2    1    2    0    0  0.25542869282E+03  0.47367400324E+03  0.13345025086E+03  0.56203030874E+03  0.91968581776E+02 0.  0.
         13    1    3    3    0    0  0.11099957412E+03  0.26749950055E+03  0.34952448132E+02  0.29171657800E+03  0.00000000000E+00 0.  1.
        -13    1    3    3    0    0  0.14442911870E+03  0.20617450269E+03  0.98497802733E+02  0.27031373075E+03  0.00000000000E+00 0. -1.
         22    1    1    2    0    0 -0.25542869282E+03 -0.47367400324E+03  0.91897745461E+03  0.10649556050E+04  0.00000000000E+00 0. -1.
<mgrwt>
<rscale>  0 0.12407575E+04</rscale>
<asrwt>0</asrwt>
<pdfrwt beam="1">  1        1 0.20610874E+00 0.12407575E+04</pdfrwt>
<pdfrwt beam="2">  1       -1 0.44196786E-01 0.12407575E+04</pdfrwt>
<totfact> 0.42345047E+01</totfact>
</mgrwt>
</event>
<event>
 6    1  0.8968082E-007  0.1149838E+04  0.7818608E-02  0.9157933E-01
          1   -1    0    0  501    0  0.00000000000E+00  0.00000000000E+00  0.12242429036E+04  0.12242429036E+04  0.00000000000E+00 0. -1.
         -1   -1    0    0    0  501 -0.00000000000E+00 -0.00000000000E+00 -0.26998873419E+03  0.26998873419E+03  0.00000000000E+00 0.  1.
         23    2    1    2    0    0  0.19188593748E+03 -0.42705469381E+03  0.52779515662E+02  0.47843024192E+03  0.83149832234E+02 0.  0.
         11    1    3    3    0    0  0.11339924686E+03 -0.31562694768E+03  0.98143250996E+01  0.33552359123E+03  0.00000000000E+00 0.  1.
        -11    1    3    3    0    0  0.78486690628E+02 -0.11142774612E+03  0.42965190562E+02  0.14290665069E+03  0.00000000000E+00 0. -1.
         22    1    1    2    0    0 -0.19188593748E+03  0.42705469381E+03  0.90147465374E+03  0.10158013959E+04  0.00000000000E+00 0. -1.
<mgrwt>
<rscale>  0 0.11498379E+04</rscale>
<asrwt>0</asrwt>
<pdfrwt beam="1">  1        1 0.18834506E+00 0.11498379E+04</pdfrwt>
<pdfrwt beam="2">  1       -1 0.41536729E-01 0.11498379E+04</pdfrwt>
<totfact> 0.57871186E+01</totfact>
</mgrwt>
</event>
<event>
 6    1  0.8968082E-007  0.7245155E+03  0.7818608E-02  0.9676202E-01
          2   -1    0    0  501    0  0.00000000000E+00  0.00000000000E+00  0.31662862700E+03  0.31662862700E+03  0.00000000000E+00 0. -1.
         -2   -1    0    0    0  501 -0.00000000000E+00 -0.00000000000E+00 -0.41446250490E+03  0.41446250490E+03  0.00000000000E+00 0.  1.
         23    2    1    2    0    0  0.19560977769E+03 -0.25495176562E+03  0.10588791387E+03  0.35060965224E+03  0.91930898082E+02 0.  0.
         13    1    3    3    0    0  0.16602984543E+03 -0.14990376285E+03  0.86150598578E+02  0.23970601437E+03  0.00000000000E+00 0.  1.
        -13    1    3    3    0    0  0.29579932258E+02 -0.10504800277E+03  0.19737315295E+02  0.11090363788E+03  0.00000000000E+00 0. -1.
         22    1    1    2    0    0 -0.19560977769E+03  0.25495176562E+03 -0.20372179178E+03  0.38048147966E+03  0.00000000000E+00 0.  1.
<mgrwt>
<rscale>  0 0.72451555E+03</rscale>
<asrwt>0</asrwt>
<pdfrwt beam="1">  1        2 0.48712097E-01 0.72451555E+03</pdfrwt>
<pdfrwt beam="2">  1       -2 0.63763462E-01 0.72451555E+03</pdfrwt>
<totfact> 0.23741584E+02</totfact>
</mgrwt>
</event>
<event>
 6    1  0.8968082E-007  0.2075635E+04  0.7818608E-02  0.8572053E-01
          2   -1    0    0  501    0  0.00000000000E+00  0.00000000000E+00  0.13568071290E+04  0.13568071290E+04  0.00000000000E+00 0. -1.
         -2   -1    0    0    0  501 -0.00000000000E+00 -0.00000000000E+00 -0.79382334780E+03  0.79382334780E+03  0.00000000000E+00 0.  1.
         23    2    1    2    0    0  0.72303938163E+03 -0.13908262551E+03  0.10370568651E+04  0.12749163608E+04  0.88288513376E+02 0.  0.
         11    1    3    3    0    0  0.43499575123E+03 -0.99414295498E+02  0.55726630744E+03  0.71389792207E+03  0.00000000000E+00 0. -1.
        -11    1    3    3    0    0  0.28804363040E+03 -0.39668330014E+02  0.47979055765E+03  0.56101843876E+03  0.00000000000E+00 0.  1.
         22    1    1    2    0    0 -0.72303938163E+03  0.13908262551E+03 -0.47407308386E+03  0.87571411599E+03  0.00000000000E+00 0.  1.
<mgrwt>
<rscale>  0 0.20756350E+04</rscale>
<asrwt>0</asrwt>
<pdfrwt beam="1">  1        2 0.20873956E+00 0.20756350E+04</pdfrwt>
<pdfrwt beam="2">  1       -2 0.12212667E+00 0.20756350E+04</pdfrwt>
<totfact> 0.71922243E+00</totfact>
</mgrwt>
</event>
<event>
 6    1  0.8968082E-007  0.3289159E+04  0.7818608E-02  0.8165659E-01
         -2   -1    0    0    0  501 -0.00000000000E+00  0.00000000000E+00  0.10176533067E+04  0.10176533067E+04  0.00000000000E+00 0.  1.
          2   -1    0    0  501    0  0.00000000000E+00 -0.00000000000E+00 -0.26577233247E+04  0.26577233247E+04  0.00000000000E+00 0. -1.
         23    2    1    2    0    0  0.33056384708E+03  0.15751215766E+04 -0.11916016767E+04  0.20046270119E+04  0.91293278108E+02 0.  0.
         13    1    3    3    0    0  0.24320846203E+03  0.11264940870E+04 -0.80187871856E+03  0.14039760551E+04  0.00000000000E+00 0. -1.
        -13    1    3    3    0    0  0.87355385055E+02  0.44862748964E+03 -0.38972295814E+03  0.60065095676E+03  0.00000000000E+00 0.  1.
         22    1    1    2    0    0 -0.33056384708E+03 -0.15751215766E+04 -0.44846834133E+03  0.16707496196E+04  0.00000000000E+00 0.  1.
<mgrwt>
<rscale>  0 0.32891585E+04</rscale>
<asrwt>0</asrwt>
<pdfrwt beam="1">  1        2 0.40888051E+00 0.32891585E+04</pdfrwt>
<pdfrwt beam="2">  1       -2 0.15656205E+00 0.32891585E+04</pdfrwt>
<totfact> 0.62826329E-01</totfact>
</mgrwt>
</event>
<event>
 6    1  0.1054329E-006  0.2773606E+04  0.7818608E-02  0.8311510E-01
         -2   -1    0    0    0  501 -0.00000000000E+00  0.00000000000E+00  0.76980250266E+03  0.76980250266E+03  0.00000000000E+00 0.  1.
          2   -1    0    0  501    0  0.00000000000E+00 -0.00000000000E+00 -0.24983326391E+04  0.24983326391E+04  0.00000000000E+00 0. -1.
         23    2    1    2    0    0 -0.10362813603E+04  0.66447783639E+03 -0.11622868350E+03  0.12396071464E+04  0.87789052040E+02 0.  0.
         11    1    3    3    0    0 -0.30949294124E+03  0.20021473724E+03  0.54577462997E+01  0.36864835370E+03  0.00000000000E+00 0. -1.
        -11    1    3    3    0    0 -0.72678841910E+03  0.46426309915E+03 -0.12168642980E+03  0.87095879269E+03  0.00000000000E+00 0.  1.
         22    1    1    2    0    0  0.10362813603E+04 -0.66447783639E+03 -0.16123014530E+04  0.20285279954E+04  0.00000000000E+00 0. -1.
<mgrwt>
<rscale>  0 0.27736061E+04</rscale>
<asrwt>0</asrwt>
<pdfrwt beam="1">  1        2 0.38435887E+00 0.27736061E+04</pdfrwt>
<pdfrwt beam="2">  1       -2 0.11843115E+00 0.27736061E+04</pdfrwt>
<totfact> 0.16688414E+00</totfact>
</mgrwt>
</event>
<event>
 6    1  0.8968082E-007  0.1321920E+04  0.7818608E-02  0.9012361E-01
         -1   -1    0    0    0  501 -0.00000000000E+00  0.00000000000E+00  0.34205345424E+03  0.34205345424E+03  0.00000000000E+00 0.  1.
          1   -1    0    0  501    0  0.00000000000E+00 -0.00000000000E+00 -0.12771919668E+04  0.12771919668E+04  0.00000000000E+00 0. -1.
         23    2    1    2    0    0  0.10214248482E+03 -0.51812405981E+03  0.11031219858E+02  0.53567595345E+03  0.89114593260E+02 0.  0.
         13    1    3    3    0    0  0.57967318698E+02 -0.28305564187E+03  0.50343934013E+02  0.29328351151E+03  0.00000000000E+00 0.  1.
        -13    1    3    3    0    0  0.44175166117E+02 -0.23506841794E+03 -0.39312714155E+02  0.24239244194E+03  0.00000000000E+00 0. -1.
         22    1    1    2    0    0 -0.10214248482E+03  0.51812405981E+03 -0.94616973245E+03  0.10835694676E+04  0.00000000000E+00 0. -1.
<mgrwt>
<rscale>  0 0.13219197E+04</rscale>
<asrwt>0</asrwt>
<pdfrwt beam="1">  1        1 0.19649107E+00 0.13219197E+04</pdfrwt>
<pdfrwt beam="2">  1       -1 0.52623609E-01 0.13219197E+04</pdfrwt>
<totfact> 0.33524440E+01</totfact>
</mgrwt>
</event>
<event>
 6    1  0.8968082E-007  0.3197624E+04  0.7818608E-02  0.8189445E-01
          1   -1    0    0  501    0  0.00000000000E+00  0.00000000000E+00  0.12692164766E+04  0.12692164766E+04  0.00000000000E+00 0. -1.
         -1   -1    0    0    0  501 -0.00000000000E+00 -0.00000000000E+00 -0.20139982801E+04  0.20139982801E+04  0.00000000000E+00 0.  1.
         23    2    1    2    0    0 -0.74964248915E+03  0.98955213460E+03  0.65965824346E+03  0.14087470632E+04  0.90785468082E+02 0.  0.
         13    1    3    3    0    0 -0.16962974151E+03  0.29015432201E+03  0.18350515761E+03  0.38293331359E+03  0.00000000000E+00 0. -1.
        -13    1    3    3    0    0 -0.58001274764E+03  0.69939781259E+03  0.47615308585E+03  0.10258137496E+04  0.00000000000E+00 0.  1.
         22    1    1    2    0    0  0.74964248915E+03 -0.98955213460E+03 -0.14044400470E+04  0.18744676936E+04  0.00000000000E+00 0.  1.
<mgrwt>
<rscale>  0 0.31976240E+04</rscale>
<asrwt>0</asrwt>
<pdfrwt beam="1">  1        1 0.19526407E+00 0.31976240E+04</pdfrwt>
<pdfrwt beam="2">  1       -1 0.30984589E+00 0.31976240E+04</pdfrwt>
<totfact> 0.22697302E-01</totfact>
</mgrwt>
</event>
<event>
 6    1  0.8968082E-007  0.2349836E+04  0.7818608E-02  0.8458527E-01
          1   -1    0    0  501    0  0.00000000000E+00  0.00000000000E+00  0.12642702667E+04  0.12642702667E+04  0.00000000000E+00 0. -1.
         -1   -1    0    0    0  501 -0.00000000000E+00 -0.00000000000E+00 -0.10918808737E+04  0.10918808737E+04  0.00000000000E+00 0.  1.
         23    2    1    2    0    0 -0.79687170093E+02  0.10564070321E+04  0.59163390771E+03  0.12168040354E+04  0.90749749911E+02 0.  0.
         13    1    3    3    0    0 -0.17600571099E+01  0.60203982240E+03  0.34797317784E+03  0.69537067672E+03  0.00000000000E+00 0.  1.
        -13    1    3    3    0    0 -0.77927112983E+02  0.45436720972E+03  0.24366072987E+03  0.52143335863E+03  0.00000000000E+00 0. -1.
         22    1    1    2    0    0  0.79687170093E+02 -0.10564070321E+04 -0.41924451478E+03  0.11393471050E+04  0.00000000000E+00 0.  1.
<mgrwt>
<rscale>  0 0.23498362E+04</rscale>
<asrwt>0</asrwt>
<pdfrwt beam="1">  1        1 0.19450312E+00 0.23498362E+04</pdfrwt>
<pdfrwt beam="2">  1       -1 0.16798167E+00 0.23498362E+04</pdfrwt>
<totfact> 0.21995149E+00</totfact>
</mgrwt>
</event>
<event>
 6    1  0.8968082E-007  0.2946764E+04  0.7818608E-02  0.8259098E-01
          1   -1    0    0  501    0  0.00000000000E+00  0.00000000000E+00  0.62319318367E+03  0.62319318367E+03  0.00000000000E+00 0. -1.
         -1   -1    0    0    0  501 -0.00000000000E+00 -0.00000000000E+00 -0.34834381007E+04  0.34834381007E+04  0.00000000000E+00 0.  1.
         23    2    1    2    0    0 -0.54012189101E+03 -0.98839933016E+01 -0.33397463108E+04  0.33843079931E+04  0.88350556234E+02 0.  0.
         11    1    3    3    0    0 -0.39143756502E+03 -0.29203091927E+02 -0.22001360709E+04  0.22348769359E+04  0.00000000000E+00 0. -1.
        -11    1    3    3    0    0 -0.14868432599E+03  0.19319098625E+02 -0.11396102399E+04  0.11494310572E+04  0.00000000000E+00 0.  1.
         22    1    1    2    0    0  0.54012189101E+03  0.98839933016E+01  0.47950139381E+03  0.72232329129E+03  0.00000000000E+00 0. -1.
<mgrwt>
<rscale>  0 0.29467642E+04</rscale>
<asrwt>0</asrwt>
<pdfrwt beam="1">  1        1 0.95875874E-01 0.29467642E+04</pdfrwt>
<pdfrwt beam="2">  1       -1 0.53591356E+00 0.29467642E+04</pdfrwt>
<totfact> 0.24747156E-02</totfact>
</mgrwt>
</event>
<event>
 6    1  0.8968082E-007  0.2069012E+04  0.7818608E-02  0.8575018E-01
         -2   -1    0    0    0  501 -0.00000000000E+00  0.00000000000E+00  0.86144649910E+03  0.86144649910E+03  0.00000000000E+00 0.  1.
          2   -1    0    0  501    0  0.00000000000E+00 -0.00000000000E+00 -0.12423315850E+04  0.12423315850E+04  0.00000000000E+00 0. -1.
         23    2    1    2    0    0 -0.54533830749E+03  0.82221258963E+03  0.11870502276E+03  0.99787678252E+03  0.90773225693E+02 0.  0.
         11    1    3    3    0    0 -0.48382929926E+03  0.67214272413E+03  0.11016890168E+03  0.83546622872E+03  0.00000000000E+00 0. -1.
        -11    1    3    3    0    0 -0.61509008226E+02  0.15006986550E+03  0.85361210769E+01  0.16241055380E+03  0.00000000000E+00 0.  1.
         22    1    1    2    0    0  0.54533830749E+03 -0.82221258963E+03 -0.49959010865E+03  0.11059013016E+04  0.00000000000E+00 0. -1.
<mgrwt>
<rscale>  0 0.20690115E+04</rscale>
<asrwt>0</asrwt>
<pdfrwt beam="1">  1        2 0.19112794E+00 0.20690115E+04</pdfrwt>
<pdfrwt beam="2">  1       -2 0.13253023E+00 0.20690115E+04</pdfrwt>
<totfact> 0.68298234E+00</totfact>
</mgrwt>
</event>
<event>
 6    1  0.8968082E-007  0.5341524E+03  0.7818608E-02  0.1005230E+00
          3   -1    0    0  501    0  0.00000000000E+00  0.00000000000E+00  0.93528831672E+03  0.93528831672E+03  0.00000000000E+00 0. -1.
         -3   -1    0    0    0  501 -0.00000000000E+00 -0.00000000000E+00 -0.76264920919E+02  0.76264920919E+02  0.00000000000E+00 0.  1.
         23    2    1    2    0    0  0.70004613730E+02  0.24092644339E+03  0.57213509175E+03  0.63043501967E+03  0.84637779679E+02 0.  0.
         11    1    3    3    0    0  0.66330511241E+02  0.20346240250E+03  0.54029001655E+03  0.58112820267E+03  0.00000000000E+00 0. -1.
        -11    1    3    3    0    0  0.36741024889E+01  0.37464040884E+02  0.31845075205E+02  0.49306817006E+02  0.00000000000E+00 0.  1.
         22    1    1    2    0    0 -0.70004613730E+02 -0.24092644339E+03  0.28688830405E+03  0.38111821797E+03  0.00000000000E+00 0.  1.
<mgrwt>
<rscale>  0 0.53415237E+03</rscale>
<asrwt>0</asrwt>
<pdfrwt beam="1">  1        3 0.14389050E+00 0.53415237E+03</pdfrwt>
<pdfrwt beam="2">  1       -3 0.11733065E-01 0.53415237E+03</pdfrwt>
<totfact> 0.55573368E+01</totfact>
</mgrwt>
</event>
<event>
 6    1  0.8968082E-007  0.8426884E+03  0.7818608E-02  0.9500203E-01
          1   -1    0    0  501    0  0.00000000000E+00  0.00000000000E+00  0.16713538541E+04  0.16713538541E+04  0.00000000000E+00 0. -1.
         -1   -1    0    0    0  501 -0.00000000000E+00 -0.00000000000E+00 -0.10621984423E+03  0.10621984423E+03  0.00000000000E+00 0.  1.
         23    2    1    2    0    0  0.23375922763E+03  0.11631596730E+03  0.14769408386E+04  0.15019819419E+04  0.80141950778E+02 0.  0.
         13    1    3    3    0    0  0.11180412301E+03  0.26034210876E+02  0.80347370747E+03  0.81163288539E+03  0.00000000000E+00 0. -1.
        -13    1    3    3    0    0  0.12195510462E+03  0.90281756426E+02  0.67346713116E+03  0.69034905652E+03  0.00000000000E+00 0.  1.
         22    1    1    2    0    0 -0.23375922763E+03 -0.11631596730E+03  0.88193171239E+02  0.27559175642E+03  0.00000000000E+00 0.  1.
<mgrwt>
<rscale>  0 0.84268843E+03</rscale>
<asrwt>0</asrwt>
<pdfrwt beam="1">  1        1 0.25713134E+00 0.84268843E+03</pdfrwt>
<pdfrwt beam="2">  1       -1 0.16341516E-01 0.84268843E+03</pdfrwt>
<totfact> 0.14471116E+02</totfact>
</mgrwt>
</event>
<event>
 6    1  0.8968082E-007  0.7131849E+03  0.7818608E-02  0.9694946E-01
         -3   -1    0    0    0  501 -0.00000000000E+00  0.00000000000E+00  0.11286414535E+04  0.11286414535E+04  0.00000000000E+00 0.  1.
          3   -1    0    0  501    0  0.00000000000E+00 -0.00000000000E+00 -0.11266481147E+03  0.11266481147E+03  0.00000000000E+00 0. -1.
         23    2    1    2    0    0  0.11604547072E+03  0.19132731977E+03  0.98653098572E+03  0.10156079237E+04  0.90240647327E+02 0.  0.
         11    1    3    3    0    0  0.43646603653E+02  0.14774003644E+03  0.56102405282E+03  0.58179045388E+03  0.00000000000E+00 0. -1.
        -11    1    3    3    0    0  0.72398867070E+02  0.43587283325E+02  0.42550693290E+03  0.43381746987E+03  0.00000000000E+00 0.  1.
         22    1    1    2    0    0 -0.11604547072E+03 -0.19132731977E+03  0.29445656331E+02  0.22569834125E+03  0.00000000000E+00 0. -1.
<mgrwt>
<rscale>  0 0.71318490E+03</rscale>
<asrwt>0</asrwt>
<pdfrwt beam="1">  1        3 0.17333049E-01 0.71318490E+03</pdfrwt>
<pdfrwt beam="2">  1       -3 0.17363714E+00 0.71318490E+03</pdfrwt>
<totfact> 0.17159013E+01</totfact>
</mgrwt>
</event>
<event>
 6    1  0.8968082E-007  0.2070328E+04  0.7818608E-02  0.8574428E-01
          1   -1    0    0  501    0  0.00000000000E+00  0.00000000000E+00  0.55170175488E+03  0.55170175488E+03  0.00000000000E+00 0. -1.
         -1   -1    0    0    0  501 -0.00000000000E+00 -0.00000000000E+00 -0.19422900784E+04  0.19422900784E+04  0.00000000000E+00 0.  1.
         23    2    1    2    0    0 -0.51450653868E+03 -0.27177914888E+03  0.33196365186E+03  0.67581522140E+03  0.89137327851E+02 0.  0.
         13    1    3    3    0    0 -0.43885856338E+03 -0.26495773679E+03  0.29259804559E+03  0.59026524311E+03  0.00000000000E+00 0.  1.
        -13    1    3    3    0    0 -0.75647975296E+02 -0.68214120881E+01  0.39365606275E+02  0.85549978298E+02  0.00000000000E+00 0. -1.
         22    1    1    2    0    0  0.51450653868E+03  0.27177914888E+03 -0.17225519754E+04  0.18181766119E+04  0.00000000000E+00 0.  1.
<mgrwt>
<rscale>  0 0.20703283E+04</rscale>
<asrwt>0</asrwt>
<pdfrwt beam="1">  1        1 0.84877192E-01 0.20703283E+04</pdfrwt>
<pdfrwt beam="2">  1       -1 0.29881386E+00 0.20703283E+04</pdfrwt>
<totfact> 0.11977147E+00</totfact>
</mgrwt>
</event>
<event>
 6    1  0.8968082E-007  0.6043184E+03  0.7818608E-02  0.9896487E-01
          1   -1    0    0  501    0  0.00000000000E+00  0.00000000000E+00  0.41130066270E+03  0.41130066270E+03  0.00000000000E+00 0. -1.
         -1   -1    0    0    0  501 -0.00000000000E+00 -0.00000000000E+00 -0.22197914270E+03  0.22197914270E+03  0.00000000000E+00 0.  1.
         23    2    1    2    0    0  0.39385043345E+01  0.11677223643E+03  0.38084016522E+03  0.40893485119E+03  0.92397045722E+02 0.  0.
         13    1    3    3    0    0 -0.12360015514E+02  0.12428803026E+03  0.28119754909E+03  0.30768871617E+03  0.00000000000E+00 0.  1.
        -13    1    3    3    0    0  0.16298519848E+02 -0.75157938293E+01  0.99642616132E+02  0.10124613502E+03  0.00000000000E+00 0. -1.
         22    1    1    2    0    0 -0.39385043345E+01 -0.11677223643E+03 -0.19151864521E+03  0.22434495422E+03  0.00000000000E+00 0.  1.
<mgrwt>
<rscale>  0 0.60431835E+03</rscale>
<asrwt>0</asrwt>
<pdfrwt beam="1">  1        1 0.63277025E-01 0.60431835E+03</pdfrwt>
<pdfrwt beam="2">  1       -1 0.34150637E-01 0.60431835E+03</pdfrwt>
<totfact> 0.47396538E+02</totfact>
</mgrwt>
</event>
<event>
 6    1  0.8968082E-007  0.1221603E+04  0.7818608E-02  0.9094154E-01
          2   -1    0    0  501    0  0.00000000000E+00  0.00000000000E+00  0.29643913623E+04  0.29643913623E+04  0.00000000000E+00 0. -1.
         -2   -1    0    0    0  501 -0.00000000000E+00 -0.00000000000E+00 -0.12585340234E+03  0.12585340234E+03  0.00000000000E+00 0.  1.
         23    2    1    2    0    0  0.51461687495E+01 -0.38418254069E+03  0.26171884258E+04  0.26468281165E+04  0.91657593374E+02 0.  0.
         13    1    3    3    0    0  0.11163719020E+02 -0.63484502210E+02  0.25778659079E+03  0.26572323390E+03  0.00000000000E+00 0.  1.
        -13    1    3    3    0    0 -0.60175502704E+01 -0.32069803848E+03  0.23594018350E+04  0.23811048826E+04  0.00000000000E+00 0. -1.
         22    1    1    2    0    0 -0.51461687495E+01  0.38418254069E+03  0.22134953422E+03  0.44341664822E+03  0.00000000000E+00 0.  1.
<mgrwt>
<rscale>  0 0.12216034E+04</rscale>
<asrwt>0</asrwt>
<pdfrwt beam="1">  1        2 0.45606016E+00 0.12216034E+04</pdfrwt>
<pdfrwt beam="2">  1       -2 0.19362064E-01 0.12216034E+04</pdfrwt>
<totfact> 0.41401001E+01</totfact>
</mgrwt>
</event>
<event>
 6    1  0.8968082E-007  0.1895845E+04  0.7818608E-02  0.8656927E-01
          2   -1    0    0  501    0  0.00000000000E+00  0.00000000000E+00  0.94265128073E+03  0.94265128073E+03  0.00000000000E+00 0. -1.
         -2   -1    0    0    0  501 -0.00000000000E+00 -0.00000000000E+00 -0.95322348475E+03  0.95322348475E+03  0.00000000000E+00 0.  1.
         23    2    1    2    0    0 -0.19668737681E+03  0.56280291654E+03 -0.73943014421E+03  0.95424482540E+03  0.91614417986E+02 0.  0.
         11    1    3    3    0    0 -0.14751345834E+02  0.26966530701E+02 -0.77652270831E+02  0.83514496629E+02  0.00000000000E+00 0. -1.
        -11    1    3    3    0    0 -0.18193603097E+03  0.53583638583E+03 -0.66177787338E+03  0.87073032877E+03  0.00000000000E+00 0.  1.
         22    1    1    2    0    0  0.19668737681E+03 -0.56280291654E+03  0.72885794019E+03  0.94162994007E+03  0.00000000000E+00 0. -1.
<mgrwt>
<rscale>  0 0.18958453E+04</rscale>
<asrwt>0</asrwt>
<pdfrwt beam="1">  1        2 0.14502327E+00 0.18958453E+04</pdfrwt>
<pdfrwt beam="2">  1       -2 0.14664977E+00 0.18958453E+04</pdfrwt>
<totfact> 0.81799730E+00</totfact>
</mgrwt>
</event>
<event>
 6    1  0.8968082E-007  0.1926844E+04  0.7818608E-02  0.8641609E-01
         -1   -1    0    0    0  501 -0.00000000000E+00  0.00000000000E+00  0.38343533695E+03  0.38343533695E+03  0.00000000000E+00 0.  1.
          1   -1    0    0  501    0  0.00000000000E+00 -0.00000000000E+00 -0.24206994455E+04  0.24206994455E+04  0.00000000000E+00 0. -1.
         23    2    1    2    0    0  0.82681031926E+03  0.33434778052E+03 -0.15428067916E+04  0.17843839400E+04  0.91485008165E+02 0.  0.
         11    1    3    3    0    0  0.46927278201E+03  0.21711763690E+03 -0.96652625687E+03  0.10961432468E+04  0.00000000000E+00 0. -1.
        -11    1    3    3    0    0  0.35753753725E+03  0.11723014362E+03 -0.57628053470E+03  0.68824069321E+03  0.00000000000E+00 0.  1.
         22    1    1    2    0    0 -0.82681031926E+03 -0.33434778052E+03 -0.49445731694E+03  0.10197508424E+04  0.00000000000E+00 0.  1.
<mgrwt>
<rscale>  0 0.19268437E+04</rscale>
<asrwt>0</asrwt>
<pdfrwt beam="1">  1        1 0.37241531E+00 0.19268437E+04</pdfrwt>
<pdfrwt beam="2">  1       -1 0.58990051E-01 0.19268437E+04</pdfrwt>
<totfact> 0.41820544E+00</totfact>
</mgrwt>
</event>
<event>
 6    1  0.8968082E-007  0.1781606E+04  0.7818608E-02  0.8716143E-01
         -2   -1    0    0    0  501 -0.00000000000E+00  0.00000000000E+00  0.10369117365E+04  0.10369117365E+04  0.00000000000E+00 0.  1.
          2   -1    0    0  501    0  0.00000000000E+00 -0.00000000000E+00 -0.76528228066E+03  0.76528228066E+03  0.00000000000E+00 0. -1.
         23    2    1    2    0    0 -0.53834844961E+03 -0.70648176301E+03  0.16330851215E+03  0.90739294345E+03  0.88072407793E+02 0.  0.
         13    1    3    3    0    0 -0.43767536122E+03 -0.60668392167E+03  0.11088531160E+03  0.75625435864E+03  0.00000000000E+00 0. -1.
        -13    1    3    3    0    0 -0.10067308840E+03 -0.99797841344E+02  0.52423200548E+02  0.15113858482E+03  0.00000000000E+00 0.  1.
         22    1    1    2    0    0  0.53834844961E+03  0.70648176301E+03  0.10832094369E+03  0.89480107371E+03  0.00000000000E+00 0. -1.
<mgrwt>
<rscale>  0 0.17816062E+04</rscale>
<asrwt>0</asrwt>
<pdfrwt beam="1">  1        2 0.11773573E+00 0.17816062E+04</pdfrwt>
<pdfrwt beam="2">  1       -2 0.15952488E+00 0.17816062E+04</pdfrwt>
<totfact> 0.87649535E+00</totfact>
</mgrwt>
</event>
<event>
 6    1  0.8968082E-007  0.1219889E+04  0.7818608E-02  0.9095624E-01
         -1   -1    0    0    0  501 -0.00000000000E+00  0.00000000000E+00  0.26797031758E+03  0.26797031758E+03  0.00000000000E+00 0.  1.
          1   -1    0    0  501    0  0.00000000000E+00 -0.00000000000E+00 -0.13883342054E+04  0.13883342054E+04  0.00000000000E+00 0. -1.
         23    2    1    2    0    0 -0.38606385894E+03  0.49243455212E+02  0.68308156588E+02  0.40554017657E+03  0.91250257498E+02 0.  0.
         13    1    3    3    0    0 -0.16121309473E+03  0.94187607353E+01  0.72815561471E+02  0.17714536674E+03  0.00000000000E+00 0. -1.
        -13    1    3    3    0    0 -0.22485076422E+03  0.39824694476E+02 -0.45074048832E+01  0.22839480983E+03  0.00000000000E+00 0.  1.
         22    1    1    2    0    0  0.38606385894E+03 -0.49243455212E+02 -0.11886720444E+04  0.12507643464E+04  0.00000000000E+00 0. -1.
<mgrwt>
<rscale>  0 0.12198891E+04</rscale>
<asrwt>0</asrwt>
<pdfrwt beam="1">  1        1 0.21358988E+00 0.12198891E+04</pdfrwt>
<pdfrwt beam="2">  1       -1 0.41226202E-01 0.12198891E+04</pdfrwt>
<totfact> 0.44571895E+01</totfact>
</mgrwt>
</event>
<event>
 6    1  0.1075209E-006  0.2856994E+04  0.7818608E-02  0.8285789E-01
          2   -1    0    0  501    0  0.00000000000E+00  0.00000000000E+00  0.18916589725E+04  0.18916589725E+04  0.00000000000E+00 0. -1.
         -2   -1    0    0    0  501 -0.00000000000E+00 -0.00000000000E+00 -0.10787379018E+04  0.10787379018E+04  0.00000000000E+00 0.  1.
         23    2    1    2    0    0  0.15409341013E+03  0.76094735821E+03 -0.83803147480E+03  0.11459983519E+04  0.90718293391E+02 0.  0.
         11    1    3    3    0    0  0.39839159695E+02  0.28103928433E+03 -0.36655575269E+03  0.46360905709E+03  0.00000000000E+00 0.  1.
        -11    1    3    3    0    0  0.11425425043E+03  0.47990807388E+03 -0.47147572211E+03  0.68238929479E+03  0.00000000000E+00 0. -1.
         22    1    1    2    0    0 -0.15409341013E+03 -0.76094735821E+03  0.16509525455E+04  0.18243985224E+04  0.00000000000E+00 0. -1.
<mgrwt>
<rscale>  0 0.28569944E+04</rscale>
<asrwt>0</asrwt>
<pdfrwt beam="1">  1        2 0.29102446E+00 0.28569944E+04</pdfrwt>
<pdfrwt beam="2">  1       -2 0.16595968E+00 0.28569944E+04</pdfrwt>
<totfact> 0.15147093E+00</totfact>
</mgrwt>
</event>
<event>
 6    1  0.8968082E-007  0.4740487E+04  0.7818608E-02  0.7869836E-01
          2   -1    0    0  501    0  0.00000000000E+00  0.00000000000E+00  0.24887139458E+04  0.24887139458E+04  0.00000000000E+00 0. -1.
         -2   -1    0    0    0  501 -0.00000000000E+00 -0.00000000000E+00 -0.22574126348E+04  0.22574126348E+04  0.00000000000E+00 0.  1.
         23    2    1    2    0    0 -0.78540028639E+03 -0.19423966349E+04 -0.99231921353E+03  0.23198113734E+04  0.84077876569E+02 0.  0.
         13    1    3    3    0    0 -0.61106668083E+03 -0.15316967638E+04 -0.81771507543E+03  0.18406942737E+04  0.00000000000E+00 0. -1.
        -13    1    3    3    0    0 -0.17433360556E+03 -0.41069987110E+03 -0.17460413810E+03  0.47911709967E+03  0.00000000000E+00 0.  1.
         22    1    1    2    0    0  0.78540028639E+03  0.19423966349E+04  0.12236205245E+04  0.24263152073E+04  0.00000000000E+00 0. -1.
<mgrwt>
<rscale>  0 0.47404870E+04</rscale>
<asrwt>0</asrwt>
<pdfrwt beam="1">  1        2 0.38287907E+00 0.47404870E+04</pdfrwt>
<pdfrwt beam="2">  1       -2 0.34729425E+00 0.47404870E+04</pdfrwt>
<totfact> 0.42498637E-02</totfact>
</mgrwt>
</event>
<event>
 6    1  0.8968082E-007  0.4773696E+04  0.7818608E-02  0.7864398E-01
          2   -1    0    0  501    0  0.00000000000E+00  0.00000000000E+00  0.38250105204E+04  0.38250105204E+04  0.00000000000E+00 0. -1.
         -2   -1    0    0    0  501 -0.00000000000E+00 -0.00000000000E+00 -0.14894192348E+04  0.14894192348E+04  0.00000000000E+00 0.  1.
         23    2    1    2    0    0 -0.15372519972E+04 -0.17411808360E+04  0.17759138924E+04  0.29252681468E+04  0.92028095959E+02 0.  0.
         11    1    3    3    0    0 -0.10240621059E+04 -0.11620657150E+04  0.12383825408E+04  0.19831014195E+04  0.00000000000E+00 0.  1.
        -11    1    3    3    0    0 -0.51318989127E+03 -0.57911512107E+03  0.53753135164E+03  0.94216672726E+03  0.00000000000E+00 0. -1.
         22    1    1    2    0    0  0.15372519972E+04  0.17411808360E+04  0.55967739327E+03  0.23891616084E+04  0.00000000000E+00 0. -1.
<mgrwt>
<rscale>  0 0.47736964E+04</rscale>
<asrwt>0</asrwt>
<pdfrwt beam="1">  1        2 0.58846315E+00 0.47736964E+04</pdfrwt>
<pdfrwt beam="2">  1       -2 0.22914142E+00 0.47736964E+04</pdfrwt>
<totfact> 0.30051804E-02</totfact>
</mgrwt>
</event>
<event>
 6    1  0.8968082E-007  0.1385517E+04  0.7818608E-02  0.8964369E-01
          2   -1    0    0  501    0  0.00000000000E+00  0.00000000000E+00  0.76517240571E+03  0.76517240571E+03  0.00000000000E+00 0. -1.
         -2   -1    0    0    0  501 -0.00000000000E+00 -0.00000000000E+00 -0.62719788344E+03  0.62719788344E+03  0.00000000000E+00 0.  1.
         23    2    1    2    0    0  0.51772463700E+03  0.18730184685E+03 -0.34826051152E+03  0.65783282267E+03  0.91311867290E+02 0.  0.
         11    1    3    3    0    0  0.38755613162E+03  0.12215824247E+03 -0.29773248465E+03  0.50375293923E+03  0.00000000000E+00 0. -1.
        -11    1    3    3    0    0  0.13016850537E+03  0.65143604376E+02 -0.50528026875E+02  0.15407988344E+03  0.00000000000E+00 0.  1.
         22    1    1    2    0    0 -0.51772463700E+03 -0.18730184685E+03  0.48623503379E+03  0.73453746649E+03  0.00000000000E+00 0. -1.
<mgrwt>
<rscale>  0 0.13855173E+04</rscale>
<asrwt>0</asrwt>
<pdfrwt beam="1">  1        2 0.11771883E+00 0.13855173E+04</pdfrwt>
<pdfrwt beam="2">  1       -2 0.96491983E-01 0.13855173E+04</pdfrwt>
<totfact> 0.31993656E+01</totfact>
</mgrwt>
</event>
<event>
 6    1  0.8968082E-007  0.1746157E+04  0.7818608E-02  0.8735469E-01
         -1   -1    0    0    0  501 -0.00000000000E+00  0.00000000000E+00  0.20824716841E+03  0.20824716841E+03  0.00000000000E+00 0.  1.
          1   -1    0    0  501    0  0.00000000000E+00 -0.00000000000E+00 -0.36603891702E+04  0.36603891702E+04  0.00000000000E+00 0. -1.
         23    2    1    2    0    0 -0.55671575062E+03  0.52444824785E+03 -0.80798487027E+03  0.11160838272E+04  0.88459975023E+02 0.  0.
         11    1    3    3    0    0 -0.49778653498E+03  0.50139383430E+03 -0.74702981677E+03  0.10282221349E+04  0.00000000000E+00 0. -1.
        -11    1    3    3    0    0 -0.58929215640E+02  0.23054413552E+02 -0.60955053498E+02  0.87861692375E+02  0.00000000000E+00 0.  1.
         22    1    1    2    0    0  0.55671575062E+03 -0.52444824785E+03 -0.26441571315E+04  0.27525525113E+04  0.00000000000E+00 0.  1.
<mgrwt>
<rscale>  0 0.17461566E+04</rscale>
<asrwt>0</asrwt>
<pdfrwt beam="1">  1        1 0.56313676E+00 0.17461566E+04</pdfrwt>
<pdfrwt beam="2">  1       -1 0.32038028E-01 0.17461566E+04</pdfrwt>
<totfact> 0.16152469E+00</totfact>
</mgrwt>
</event>
<event>
 6    1  0.8968082E-007  0.1407574E+04  0.7818608E-02  0.8948354E-01
          2   -1    0    0  501    0  0.00000000000E+00  0.00000000000E+00  0.27014372985E+04  0.27014372985E+04  0.00000000000E+00 0. -1.
         -2   -1    0    0    0  501 -0.00000000000E+00 -0.00000000000E+00 -0.18335276094E+03  0.18335276094E+03  0.00000000000E+00 0.  1.
         23    2    1    2    0    0 -0.40592480668E+03 -0.69743170386E+02  0.10192671252E+03  0.43377849399E+03  0.90197941404E+02 0.  0.
         13    1    3    3    0    0 -0.15676338271E+03 -0.54826664104E+01 -0.41170841509E+00  0.15685976951E+03  0.00000000000E+00 0.  1.
        -13    1    3    3    0    0 -0.24916142397E+03 -0.64260503975E+02  0.10233842094E+03  0.27691872448E+03  0.00000000000E+00 0. -1.
         22    1    1    2    0    0  0.40592480668E+03  0.69743170386E+02  0.24161578250E+04  0.24510115654E+04  0.00000000000E+00 0. -1.
<mgrwt>
<rscale>  0 0.14075738E+04</rscale>
<asrwt>0</asrwt>
<pdfrwt beam="1">  1        2 0.41560571E+00 0.14075738E+04</pdfrwt>
<pdfrwt beam="2">  1       -2 0.28208119E-01 0.14075738E+04</pdfrwt>
<totfact> 0.29807711E+01</totfact>
</mgrwt>
</event>
<event>
 6    1  0.8968082E-007  0.1355199E+04  0.7818608E-02  0.8986901E-01
          1   -1    0    0  501    0  0.00000000000E+00  0.00000000000E+00  0.12800092392E+03  0.12800092392E+03  0.00000000000E+00 0. -1.
         -1   -1    0    0    0  501 -0.00000000000E+00 -0.00000000000E+00 -0.35870162655E+04  0.35870162655E+04  0.00000000000E+00 0.  1.
         23    2    1    2    0    0 -0.47916735877E+03 -0.20220321988E+03 -0.29148684241E+04  0.29622998669E+04  0.90967421017E+02 0.  0.
         11    1    3    3    0    0 -0.11668038936E+03 -0.96608497913E+01 -0.69912855328E+03  0.70886414727E+03  0.00000000000E+00 0.  1.
        -11    1    3    3    0    0 -0.36248696941E+03 -0.19254237009E+03 -0.22157398708E+04  0.22534357196E+04  0.00000000000E+00 0. -1.
         22    1    1    2    0    0  0.47916735877E+03  0.20220321988E+03 -0.54414691750E+03  0.75271732255E+03  0.00000000000E+00 0. -1.
<mgrwt>
<rscale>  0 0.13551995E+04</rscale>
<asrwt>0</asrwt>
<pdfrwt beam="1">  1        1 0.19692447E-01 0.13551995E+04</pdfrwt>
<pdfrwt beam="2">  1       -1 0.55184872E+00 0.13551995E+04</pdfrwt>
<totfact> 0.19048510E-01</totfact>
</mgrwt>
</event>
<event>
 6    1  0.8968082E-007  0.1517853E+04  0.7818608E-02  0.8872667E-01
          2   -1    0    0  501    0  0.00000000000E+00  0.00000000000E+00  0.16122541605E+04  0.16122541605E+04  0.00000000000E+00 0. -1.
         -2   -1    0    0    0  501 -0.00000000000E+00 -0.00000000000E+00 -0.35724461224E+03  0.35724461224E+03  0.00000000000E+00 0.  1.
         23    2    1    2    0    0  0.75429287072E+03  0.50687195299E+02  0.60669416049E+03  0.97358724624E+03  0.90925217046E+02 0.  0.
         11    1    3    3    0    0  0.91239447311E+02 -0.22172541756E+02  0.63519019754E+02  0.11336191699E+03  0.00000000000E+00 0.  1.
        -11    1    3    3    0    0  0.66305342341E+03  0.72859737055E+02  0.54317514073E+03  0.86022532925E+03  0.00000000000E+00 0. -1.
         22    1    1    2    0    0 -0.75429287072E+03 -0.50687195299E+02  0.64831538775E+03  0.99591152648E+03  0.00000000000E+00 0.  1.
<mgrwt>
<rscale>  0 0.15178526E+04</rscale>
<asrwt>0</asrwt>
<pdfrwt beam="1">  1        2 0.24803910E+00 0.15178526E+04</pdfrwt>
<pdfrwt beam="2">  1       -2 0.54960711E-01 0.15178526E+04</pdfrwt>
<totfact> 0.32973718E+01</totfact>
</mgrwt>
</event>
<event>
 6    1  0.8968082E-007  0.4547859E+04  0.7818608E-02  0.7902311E-01
          2   -1    0    0  501    0  0.00000000000E+00  0.00000000000E+00  0.31193329373E+04  0.31193329373E+04  0.00000000000E+00 0. -1.
         -2   -1    0    0    0  501 -0.00000000000E+00 -0.00000000000E+00 -0.16576480145E+04  0.16576480145E+04  0.00000000000E+00 0.  1.
         23    2    1    2    0    0  0.27771155739E+03 -0.18528770215E+04 -0.62063872060E+03  0.19758474809E+04  0.92216485660E+02 0.  0.
         11    1    3    3    0    0  0.13685962622E+03 -0.72452830298E+03 -0.20702684668E+03  0.76585372909E+03  0.00000000000E+00 0. -1.
        -11    1    3    3    0    0  0.14085193116E+03 -0.11283487185E+04 -0.41361187392E+03  0.12099937518E+04  0.00000000000E+00 0.  1.
         22    1    1    2    0    0 -0.27771155739E+03  0.18528770215E+04  0.20823236434E+04  0.28011334709E+04  0.00000000000E+00 0. -1.
<mgrwt>
<rscale>  0 0.45478593E+04</rscale>
<asrwt>0</asrwt>
<pdfrwt beam="1">  1        2 0.47989737E+00 0.45478593E+04</pdfrwt>
<pdfrwt beam="2">  1       -2 0.25502277E+00 0.45478593E+04</pdfrwt>
<totfact> 0.66019065E-02</totfact>
</mgrwt>
</event>
<event>
 6    1  0.8968082E-007  0.1682340E+04  0.7818608E-02  0.8771501E-01
          2   -1    0    0  501    0  0.00000000000E+00  0.00000000000E+00  0.12128323648E+04  0.12128323648E+04  0.00000000000E+00 0. -1.
         -2   -1    0    0    0  501 -0.00000000000E+00 -0.00000000000E+00 -0.58340057975E+03  0.58340057975E+03  0.00000000000E+00 0.  1.
         23    2    1    2    0    0 -0.69235626516E+03  0.15799745896E+01 -0.18986751006E+03  0.72356755908E+03  0.90225533825E+02 0.  0.
         13    1    3    3    0    0 -0.29143185437E+03  0.34518701851E+02 -0.50171234278E+02  0.29772675269E+03  0.00000000000E+00 0. -1.
        -13    1    3    3    0    0 -0.40092441079E+03 -0.32938727262E+02 -0.13969627578E+03  0.42584080639E+03  0.00000000000E+00 0.  1.
         22    1    1    2    0    0  0.69235626516E+03 -0.15799745896E+01  0.81929929512E+03  0.10726653855E+04  0.00000000000E+00 0. -1.
<mgrwt>
<rscale>  0 0.16823402E+04</rscale>
<asrwt>0</asrwt>
<pdfrwt beam="1">  1        2 0.18658959E+00 0.16823402E+04</pdfrwt>
<pdfrwt beam="2">  1       -2 0.89753936E-01 0.16823402E+04</pdfrwt>
<totfact> 0.18861267E+01</totfact>
</mgrwt>
</event>
<event>
 6    1  0.8968082E-007  0.6666116E+03  0.7818608E-02  0.9776098E-01
         -2   -1    0    0    0  501 -0.00000000000E+00  0.00000000000E+00  0.12916920094E+03  0.12916920094E+03  0.00000000000E+00 0.  1.
          2   -1    0    0  501    0  0.00000000000E+00 -0.00000000000E+00 -0.86005620451E+03  0.86005620451E+03  0.00000000000E+00 0. -1.
         23    2    1    2    0    0 -0.30606906117E+03  0.38746538134E+02 -0.53600440810E+03  0.62431611474E+03  0.85383377760E+02 0.  0.
         13    1    3    3    0    0 -0.17903787414E+03 -0.12030612794E+02 -0.35119254441E+03  0.39437989207E+03  0.00000000000E+00 0.  1.
        -13    1    3    3    0    0 -0.12703118703E+03  0.50777150928E+02 -0.18481186369E+03  0.22993622267E+03  0.00000000000E+00 0. -1.
         22    1    1    2    0    0  0.30606906117E+03 -0.38746538134E+02 -0.19488259547E+03  0.36490929070E+03  0.00000000000E+00 0.  1.
<mgrwt>
<rscale>  0 0.66661165E+03</rscale>
<asrwt>0</asrwt>
<pdfrwt beam="1">  1        2 0.13231634E+00 0.66661165E+03</pdfrwt>
<pdfrwt beam="2">  1       -2 0.19872185E-01 0.66661165E+03</pdfrwt>
<totfact> 0.67821609E+02</totfact>
</mgrwt>
</event>
<event>
 6    1  0.8968082E-007  0.6944212E+03  0.7818608E-02  0.9726820E-01
         -2   -1    0    0    0  501 -0.00000000000E+00  0.00000000000E+00  0.37471972830E+03  0.37471972830E+03  0.00000000000E+00 0.  1.
          2   -1    0    0  501    0  0.00000000000E+00 -0.00000000000E+00 -0.32172103040E+03  0.32172103040E+03  0.00000000000E+00 0. -1.
         23    2    1    2    0    0 -0.13182438542E+02  0.23289368579E+03 -0.22230849879E+03  0.33559827489E+03  0.93765067624E+02 0.  0.
         11    1    3    3    0    0 -0.45608545449E+02  0.65162233786E+02 -0.85101808017E+02  0.11648422150E+03  0.00000000000E+00 0.  1.
        -11    1    3    3    0    0  0.32426106906E+02  0.16773145201E+03 -0.13720669077E+03  0.21911405340E+03  0.00000000000E+00 0. -1.
         22    1    1    2    0    0  0.13182438542E+02 -0.23289368579E+03  0.27530719669E+03  0.36084248381E+03  0.00000000000E+00 0.  1.
<mgrwt>
<rscale>  0 0.69442125E+03</rscale>
<asrwt>0</asrwt>
<pdfrwt beam="1">  1        2 0.49495543E-01 0.69442125E+03</pdfrwt>
<pdfrwt beam="2">  1       -2 0.57649189E-01 0.69442125E+03</pdfrwt>
<totfact> 0.28890003E+02</totfact>
</mgrwt>
</event>
<event>
 6    1  0.8968082E-007  0.1673666E+04  0.7818608E-02  0.8776528E-01
         -1   -1    0    0    0  501 -0.00000000000E+00  0.00000000000E+00  0.98232163122E+03  0.98232163122E+03  0.00000000000E+00 0.  1.
          1   -1    0    0  501    0  0.00000000000E+00 -0.00000000000E+00 -0.71289240958E+03  0.71289240958E+03  0.00000000000E+00 0. -1.
         23    2    1    2    0    0 -0.30024069046E+03  0.69339789229E+03  0.49362635551E+03  0.90704561713E+03  0.90109175207E+02 0.  0.
         13    1    3    3    0    0 -0.27839539886E+03  0.61762551121E+03  0.40892938334E+03  0.79132073823E+03  0.00000000000E+00 0. -1.
        -13    1    3    3    0    0 -0.21845291605E+02  0.75772381079E+02  0.84696972175E+02  0.11572487890E+03  0.00000000000E+00 0.  1.
         22    1    1    2    0    0  0.30024069046E+03 -0.69339789229E+03 -0.22419713387E+03  0.78816842367E+03  0.00000000000E+00 0. -1.
<mgrwt>
<rscale>  0 0.16736662E+04</rscale>
<asrwt>0</asrwt>
<pdfrwt beam="1">  1        1 0.10967576E+00 0.16736662E+04</pdfrwt>
<pdfrwt beam="2">  1       -1 0.15112641E+00 0.16736662E+04</pdfrwt>
<totfact> 0.86400642E+00</totfact>
</mgrwt>
</event>
<event>
 6    1  0.8968082E-007  0.4188091E+04  0.7818608E-02  0.7967641E-01
          1   -1    0    0  501    0  0.00000000000E+00  0.00000000000E+00  0.23779194225E+04  0.23779194225E+04  0.00000000000E+00 0. -1.
         -1   -1    0    0    0  501 -0.00000000000E+00 -0.00000000000E+00 -0.18440600646E+04  0.18440600646E+04  0.00000000000E+00 0.  1.
         23    2    1    2    0    0  0.42945707556E+03  0.17886405406E+04  0.12737303395E+04  0.22392849991E+04  0.91323415769E+02 0.  0.
         13    1    3    3    0    0  0.23059397463E+03  0.10485588357E+04  0.79170207671E+03  0.13339570426E+04  0.00000000000E+00 0. -1.
        -13    1    3    3    0    0  0.19886310092E+03  0.74008170489E+03  0.48202826281E+03  0.90532795658E+03  0.00000000000E+00 0.  1.
         22    1    1    2    0    0 -0.42945707556E+03 -0.17886405406E+04 -0.73987098158E+03  0.19826944880E+04  0.00000000000E+00 0.  1.
<mgrwt>
<rscale>  0 0.41880909E+04</rscale>
<asrwt>0</asrwt>
<pdfrwt beam="1">  1        1 0.36583376E+00 0.41880909E+04</pdfrwt>
<pdfrwt beam="2">  1       -1 0.28370155E+00 0.41880909E+04</pdfrwt>
<totfact> 0.53413559E-02</totfact>
</mgrwt>
</event>
<event>
 6    1  0.8968082E-007  0.3057372E+04  0.7818608E-02  0.8227535E-01
         -2   -1    0    0    0  501 -0.00000000000E+00  0.00000000000E+00  0.13829929932E+04  0.13829929932E+04  0.00000000000E+00 0.  1.
          2   -1    0    0  501    0  0.00000000000E+00 -0.00000000000E+00 -0.16897274114E+04  0.16897274114E+04  0.00000000000E+00 0. -1.
         23    2    1    2    0    0 -0.64306771826E+03 -0.16894382768E+03 -0.15350081342E+04  0.16760334573E+04  0.10373076136E+03 0.  0.
         13    1    3    3    0    0 -0.21657683604E+03 -0.32443280224E+02 -0.40272869920E+03  0.45841956492E+03  0.00000000000E+00 0. -1.
        -13    1    3    3    0    0 -0.42649088223E+03 -0.13650054746E+03 -0.11322794350E+04  0.12176138924E+04  0.00000000000E+00 0.  1.
         22    1    1    2    0    0  0.64306771826E+03  0.16894382768E+03  0.12282737160E+04  0.13966869472E+04  0.00000000000E+00 0.  1.
<mgrwt>
<rscale>  0 0.30573722E+04</rscale>
<asrwt>0</asrwt>
<pdfrwt beam="1">  1        2 0.25995806E+00 0.30573722E+04</pdfrwt>
<pdfrwt beam="2">  1       -2 0.21276815E+00 0.30573722E+04</pdfrwt>
<totfact> 0.93060891E-01</totfact>
</mgrwt>
</event>
<event>
 6    1  0.8968082E-007  0.8305861E+03  0.7818608E-02  0.9516770E-01
         -2   -1    0    0    0  501 -0.00000000000E+00  0.00000000000E+00  0.11065083163E+04  0.11065083163E+04  0.00000000000E+00 0.  1.
          2   -1    0    0  501    0  0.00000000000E+00 -0.00000000000E+00 -0.15586718629E+03  0.15586718629E+03  0.00000000000E+00 0. -1.
         23    2    1    2    0    0 -0.65784709757E+02  0.31785957956E+03  0.99151809167E+02  0.35111461577E+03  0.89933596578E+02 0.  0.
         13    1    3    3    0    0 -0.13269994442E+02  0.10053193523E+03 -0.10766321955E+02  0.10197390078E+03  0.00000000000E+00 0. -1.
        -13    1    3    3    0    0 -0.52514715316E+02  0.21732764433E+03  0.10991813112E+03  0.24914071499E+03  0.00000000000E+00 0.  1.
         22    1    1    2    0    0  0.65784709757E+02 -0.31785957956E+03  0.85148932086E+03  0.91126088685E+03  0.00000000000E+00 0.  1.
<mgrwt>
<rscale>  0 0.83058615E+03</rscale>
<asrwt>0</asrwt>
<pdfrwt beam="1">  1        2 0.23979568E-01 0.83058615E+03</pdfrwt>
<pdfrwt beam="2">  1       -2 0.17023204E+00 0.83058615E+03</pdfrwt>
<totfact> 0.49229160E+01</totfact>
</mgrwt>
</event>
<event>
 6    1  0.8968082E-007  0.3219746E+04  0.7818608E-02  0.8183622E-01
          2   -1    0    0  501    0  0.00000000000E+00  0.00000000000E+00  0.10992788190E+04  0.10992788190E+04  0.00000000000E+00 0. -1.
         -2   -1    0    0    0  501 -0.00000000000E+00 -0.00000000000E+00 -0.23576286014E+04  0.23576286014E+04  0.00000000000E+00 0.  1.
         23    2    1    2    0    0 -0.84780849589E+03  0.13444449316E+04 -0.89552997392E+03  0.18265854788E+04  0.90161839344E+02 0.  0.
         13    1    3    3    0    0 -0.57381472888E+03  0.94644606635E+03 -0.58092431850E+03  0.12499986254E+04  0.00000000000E+00 0.  1.
        -13    1    3    3    0    0 -0.27399376701E+03  0.39799886521E+03 -0.31460565543E+03  0.57658685339E+03  0.00000000000E+00 0. -1.
         22    1    1    2    0    0  0.84780849589E+03 -0.13444449316E+04 -0.36281980848E+03  0.16303219416E+04  0.00000000000E+00 0. -1.
<mgrwt>
<rscale>  0 0.32197461E+04</rscale>
<asrwt>0</asrwt>
<pdfrwt beam="1">  1        2 0.16911982E+00 0.32197461E+04</pdfrwt>
<pdfrwt beam="2">  1       -2 0.36271209E+00 0.32197461E+04</pdfrwt>
<totfact> 0.23682199E-01</totfact>
</mgrwt>
</event>
<event>
 6    1  0.8968082E-007  0.3153068E+04  0.7818608E-02  0.8201323E-01
          2   -1    0    0  501    0  0.00000000000E+00  0.00000000000E+00  0.24517104921E+04  0.24517104921E+04  0.00000000000E+00 0. -1.
         -2   -1    0    0    0  501 -0.00000000000E+00 -0.00000000000E+00 -0.10137656694E+04  0.10137656694E+04  0.00000000000E+00 0.  1.
         23    2    1    2    0    0 -0.26372538506E+03 -0.11133951739E+03  0.24220101136E+04  0.24406190672E+04  0.92416847706E+02 0.  0.
         11    1    3    3    0    0 -0.87780365812E+02  0.48102859788E+01  0.58899111440E+03  0.59551579687E+03  0.00000000000E+00 0.  1.
        -11    1    3    3    0    0 -0.17594501925E+03 -0.11614980337E+03  0.18330189992E+04  0.18451032703E+04  0.00000000000E+00 0. -1.
         22    1    1    2    0    0  0.26372538506E+03  0.11133951739E+03 -0.98406529092E+03  0.10248570943E+04  0.00000000000E+00 0.  1.
<mgrwt>
<rscale>  0 0.31530683E+04</rscale>
<asrwt>0</asrwt>
<pdfrwt beam="1">  1        2 0.37718623E+00 0.31530683E+04</pdfrwt>
<pdfrwt beam="2">  1       -2 0.15596395E+00 0.31530683E+04</pdfrwt>
<totfact> 0.84707923E-01</totfact>
</mgrwt>
</event>
<event>
 6    1  0.8968082E-007  0.3023651E+04  0.7818608E-02  0.8237009E-01
         -2   -1    0    0    0  501 -0.00000000000E+00  0.00000000000E+00  0.70274751734E+03  0.70274751734E+03  0.00000000000E+00 0.  1.
          2   -1    0    0  501    0  0.00000000000E+00 -0.00000000000E+00 -0.32524001640E+04  0.32524001640E+04  0.00000000000E+00 0. -1.
         23    2    1    2    0    0  0.67994399584E+03  0.71578751013E+03 -0.27712398142E+04  0.29433292836E+04  0.93496347653E+02 0.  0.
         13    1    3    3    0    0  0.14580085165E+03  0.21203741970E+03 -0.69849224037E+03  0.74438509224E+03  0.00000000000E+00 0. -1.
        -13    1    3    3    0    0  0.53414314419E+03  0.50375009044E+03 -0.20727475738E+04  0.21989441914E+04  0.00000000000E+00 0.  1.
         22    1    1    2    0    0 -0.67994399584E+03 -0.71578751013E+03  0.22158716752E+03  0.10118183977E+04  0.00000000000E+00 0.  1.
<mgrwt>
<rscale>  0 0.30236509E+04</rscale>
<asrwt>0</asrwt>
<pdfrwt beam="1">  1        2 0.50036926E+00 0.30236509E+04</pdfrwt>
<pdfrwt beam="2">  1       -2 0.10811500E+00 0.30236509E+04</pdfrwt>
<totfact> 0.70062393E-01</totfact>
</mgrwt>
</event>
<event>
 6    1  0.8968082E-007  0.2868352E+04  0.7818608E-02  0.8282356E-01
          2   -1    0    0  501    0  0.00000000000E+00  0.00000000000E+00  0.27675274786E+04  0.27675274786E+04  0.00000000000E+00 0. -1.
         -2   -1    0    0    0  501 -0.00000000000E+00 -0.00000000000E+00 -0.74321231450E+03  0.74321231450E+03  0.00000000000E+00 0.  1.
         23    2    1    2    0    0 -0.77856369594E+03  0.10502578131E+04  0.29585099804E+03  0.13435316176E+04  0.91359135902E+02 0.  0.
         13    1    3    3    0    0 -0.60361759826E+03  0.83838632201E+03  0.26857280760E+03  0.10674161245E+04  0.00000000000E+00 0. -1.
        -13    1    3    3    0    0 -0.17494609768E+03  0.21187149112E+03  0.27278190437E+02  0.27611549308E+03  0.00000000000E+00 0.  1.
         22    1    1    2    0    0  0.77856369594E+03 -0.10502578131E+04  0.17284641661E+04  0.21672081755E+04  0.00000000000E+00 0. -1.
<mgrwt>
<rscale>  0 0.28683518E+04</rscale>
<asrwt>0</asrwt>
<pdfrwt beam="1">  1        2 0.42577345E+00 0.28683518E+04</pdfrwt>
<pdfrwt beam="2">  1       -2 0.11434036E+00 0.28683518E+04</pdfrwt>
<totfact> 0.12513366E+00</totfact>
</mgrwt>
</event>
<event>
 6    1  0.8968082E-007  0.1526387E+04  0.7818608E-02  0.8867093E-01
         -2   -1    0    0    0  501 -0.00000000000E+00  0.00000000000E+00  0.24771756045E+03  0.24771756045E+03  0.00000000000E+00 0.  1.
          2   -1    0    0  501    0  0.00000000000E+00 -0.00000000000E+00 -0.23513249189E+04  0.23513249189E+04  0.00000000000E+00 0. -1.
         23    2    1    2    0    0  0.62084219588E+02  0.30724496345E+03 -0.22350846031E+04  0.22591304558E+04  0.99062180473E+02 0.  0.
         11    1    3    3    0    0 -0.11786086716E+02  0.10268939801E+03 -0.50824155824E+03  0.51864583854E+03  0.00000000000E+00 0. -1.
        -11    1    3    3    0    0  0.73870306304E+02  0.20455556544E+03 -0.17268430448E+04  0.17404846173E+04  0.00000000000E+00 0.  1.
         22    1    1    2    0    0 -0.62084219588E+02 -0.30724496345E+03  0.13147724463E+03  0.33991202353E+03  0.00000000000E+00 0.  1.
<mgrwt>
<rscale>  0 0.15263872E+04</rscale>
<asrwt>0</asrwt>
<pdfrwt beam="1">  1        2 0.36174230E+00 0.15263872E+04</pdfrwt>
<pdfrwt beam="2">  1       -2 0.38110394E-01 0.15263872E+04</pdfrwt>
<totfact> 0.26613457E+01</totfact>
</mgrwt>
</event>
<event>
 6    1  0.8968082E-007  0.2366605E+04  0.7818608E-02  0.8452113E-01
          2   -1    0    0  501    0  0.00000000000E+00  0.00000000000E+00  0.36220628529E+04  0.36220628529E+04  0.00000000000E+00 0. -1.
         -2   -1    0    0    0  501 -0.00000000000E+00 -0.00000000000E+00 -0.38657665955E+03  0.38657665955E+03  0.00000000000E+00 0.  1.
         23    2    1    2    0    0  0.38884018619E+03 -0.20790402496E+03  0.34768906489E+04  0.35059498615E+04  0.92168722078E+02 0.  0.
         13    1    3    3    0    0  0.52503622352E+02 -0.23718023643E+02  0.26133862774E+03  0.26761362700E+03  0.00000000000E+00 0. -1.
        -13    1    3    3    0    0  0.33633656384E+03 -0.18418600131E+03  0.32155520211E+04  0.32383362345E+04  0.00000000000E+00 0.  1.
         22    1    1    2    0    0 -0.38884018619E+03  0.20790402496E+03 -0.24140445553E+03  0.50268965092E+03  0.00000000000E+00 0.  1.
<mgrwt>
<rscale>  0 0.23666051E+04</rscale>
<asrwt>0</asrwt>
<pdfrwt beam="1">  1        2 0.55724042E+00 0.23666051E+04</pdfrwt>
<pdfrwt beam="2">  1       -2 0.59473335E-01 0.23666051E+04</pdfrwt>
<totfact> 0.15879390E+00</totfact>
</mgrwt>
</event>
<event>
 6    1  0.8968082E-007  0.3024156E+03  0.7818608E-02  0.1084039E+00
          2   -1    0    0  501    0  0.00000000000E+00  0.00000000000E+00  0.36768903685E+03  0.36768903685E+03  0.00000000000E+00 0. -1.
         -2   -1    0    0    0  501 -0.00000000000E+00 -0.00000000000E+00 -0.62182444224E+02  0.62182444224E+02  0.00000000000E+00 0.  1.
         23    2    1    2    0    0  0.56935115576E+02 -0.87953810130E+02  0.34731556069E+02  0.13953271252E+03  0.85355824492E+02 0.  0.
         13    1    3    3    0    0 -0.22039704680E+02 -0.26503575598E+02  0.32083168120E+01  0.34619090089E+02  0.00000000000E+00 0.  1.
        -13    1    3    3    0    0  0.78974820257E+02 -0.61450234532E+02  0.31523239257E+02  0.10491362243E+03  0.00000000000E+00 0. -1.
         22    1    1    2    0    0 -0.56935115576E+02  0.87953810130E+02  0.27077503655E+03  0.29033876855E+03  0.00000000000E+00 0. -1.
<mgrwt>
<rscale>  0 0.30241563E+03</rscale>
<asrwt>0</asrwt>
<pdfrwt beam="1">  1        2 0.56567543E-01 0.30241563E+03</pdfrwt>
<pdfrwt beam="2">  1       -2 0.95665301E-02 0.30241563E+03</pdfrwt>
<totfact> 0.62243962E+03</totfact>
</mgrwt>
</event>
<event>
 6    1  0.8968082E-007  0.2837695E+04  0.7818608E-02  0.8291660E-01
         -1   -1    0    0    0  501 -0.00000000000E+00  0.00000000000E+00  0.88339705671E+03  0.88339705671E+03  0.00000000000E+00 0.  1.
          1   -1    0    0  501    0  0.00000000000E+00 -0.00000000000E+00 -0.22788479675E+04  0.22788479675E+04  0.00000000000E+00 0. -1.
         23    2    1    2    0    0  0.12427495170E+04  0.44204096654E+03 -0.12039057770E+03  0.13276863767E+04  0.91818547091E+02 0.  0.
         13    1    3    3    0    0  0.74678902824E+03  0.23904713638E+03 -0.33825250766E+02  0.78484491061E+03  0.00000000000E+00 0. -1.
        -13    1    3    3    0    0  0.49596048876E+03  0.20299383016E+03 -0.86565326930E+02  0.54284146611E+03  0.00000000000E+00 0.  1.
         22    1    1    2    0    0 -0.12427495170E+04 -0.44204096654E+03 -0.12750603331E+04  0.18345586475E+04  0.00000000000E+00 0. -1.
<mgrwt>
<rscale>  0 0.28376945E+04</rscale>
<asrwt>0</asrwt>
<pdfrwt beam="1">  1        1 0.35059199E+00 0.28376945E+04</pdfrwt>
<pdfrwt beam="2">  1       -1 0.13590724E+00 0.28376945E+04</pdfrwt>
<totfact> 0.75166179E-01</totfact>
</mgrwt>
</event>
<event>
 6    1  0.8968082E-007  0.1859926E+04  0.7818608E-02  0.8675065E-01
         -2   -1    0    0    0  501 -0.00000000000E+00  0.00000000000E+00  0.78408912939E+03  0.78408912939E+03  0.00000000000E+00 0.  1.
          2   -1    0    0  501    0  0.00000000000E+00 -0.00000000000E+00 -0.11029750968E+04  0.11029750968E+04  0.00000000000E+00 0. -1.
         23    2    1    2    0    0 -0.27528130250E+03  0.78249258673E+03  0.26085891341E+03  0.87504714597E+03  0.97906543013E+02 0.  0.
         11    1    3    3    0    0 -0.13565663618E+03  0.24737536518E+03  0.94458669891E+02  0.29752266225E+03  0.00000000000E+00 0.  1.
        -11    1    3    3    0    0 -0.13962466633E+03  0.53511722155E+03  0.16640024352E+03  0.57752448371E+03  0.00000000000E+00 0. -1.
         22    1    1    2    0    0  0.27528130250E+03 -0.78249258673E+03 -0.57974488080E+03  0.10120170802E+04  0.00000000000E+00 0. -1.
<mgrwt>
<rscale>  0 0.18599256E+04</rscale>
<asrwt>0</asrwt>
<pdfrwt beam="1">  1        2 0.16968848E+00 0.18599256E+04</pdfrwt>
<pdfrwt beam="2">  1       -2 0.12062910E+00 0.18599256E+04</pdfrwt>
<totfact> 0.10684769E+01</totfact>
</mgrwt>
</event>
<event>
 6    1  0.8968082E-007  0.1497928E+04  0.7818608E-02  0.8885832E-01
         -2   -1    0    0    0  501 -0.00000000000E+00  0.00000000000E+00  0.31569280736E+03  0.31569280736E+03  0.00000000000E+00 0.  1.
          2   -1    0    0  501    0  0.00000000000E+00 -0.00000000000E+00 -0.17768764226E+04  0.17768764226E+04  0.00000000000E+00 0. -1.
         23    2    1    2    0    0 -0.58206839373E+03  0.30305648079E+03 -0.23810922376E+03  0.70456425423E+03  0.95225733791E+02 0.  0.
         11    1    3    3    0    0 -0.11494332377E+03  0.67412279786E+02 -0.94629814273E+01  0.13358866405E+03  0.00000000000E+00 0. -1.
        -11    1    3    3    0    0 -0.46712506995E+03  0.23564420101E+03 -0.22864624234E+03  0.57097559018E+03  0.00000000000E+00 0.  1.
         22    1    1    2    0    0  0.58206839373E+03 -0.30305648079E+03 -0.12230743914E+04  0.13880049757E+04  0.00000000000E+00 0. -1.
<mgrwt>
<rscale>  0 0.14979280E+04</rscale>
<asrwt>0</asrwt>
<pdfrwt beam="1">  1        2 0.27336560E+00 0.14979280E+04</pdfrwt>
<pdfrwt beam="2">  1       -2 0.48568124E-01 0.14979280E+04</pdfrwt>
<totfact> 0.34481750E+01</totfact>
</mgrwt>
</event>
<event>
 6    1  0.8968082E-007  0.3140466E+04  0.7818608E-02  0.8204719E-01
         -2   -1    0    0    0  501 -0.00000000000E+00  0.00000000000E+00  0.17441234160E+04  0.17441234160E+04  0.00000000000E+00 0.  1.
          2   -1    0    0  501    0  0.00000000000E+00 -0.00000000000E+00 -0.14136797497E+04  0.14136797497E+04  0.00000000000E+00 0. -1.
         23    2    1    2    0    0 -0.49571074577E+03 -0.13636494589E+04  0.76558682566E+03  0.16430033243E+04  0.89820631287E+02 0.  0.
         11    1    3    3    0    0 -0.43435307375E+03 -0.11800376133E+04  0.69651552035E+03  0.14374579060E+04  0.00000000000E+00 0. -1.
        -11    1    3    3    0    0 -0.61357672029E+02 -0.18361184560E+03  0.69071305310E+02  0.20554541828E+03  0.00000000000E+00 0.  1.
         22    1    1    2    0    0  0.49571074577E+03  0.13636494589E+04 -0.43514315937E+03  0.15147998414E+04  0.00000000000E+00 0. -1.
<mgrwt>
<rscale>  0 0.31404662E+04</rscale>
<asrwt>0</asrwt>
<pdfrwt beam="1">  1        2 0.21748919E+00 0.31404662E+04</pdfrwt>
<pdfrwt beam="2">  1       -2 0.26832668E+00 0.31404662E+04</pdfrwt>
<totfact> 0.59674778E-01</totfact>
</mgrwt>
</event>
<event>
 6    1  0.8968082E-007  0.2034120E+04  0.7818608E-02  0.8590833E-01
          1   -1    0    0  501    0  0.00000000000E+00  0.00000000000E+00  0.22750655991E+04  0.22750655991E+04  0.00000000000E+00 0. -1.
         -1   -1    0    0    0  501 -0.00000000000E+00 -0.00000000000E+00 -0.45467309176E+03  0.45467309176E+03  0.00000000000E+00 0.  1.
         23    2    1    2    0    0  0.17312361818E+03 -0.62321017267E+03  0.19616972043E+04  0.20676739479E+04  0.93042609132E+02 0.  0.
         11    1    3    3    0    0  0.86741851473E+02 -0.17382356531E+03  0.52057954275E+03  0.55564542740E+03  0.00000000000E+00 0. -1.
        -11    1    3    3    0    0  0.86381766706E+02 -0.44938660736E+03  0.14411176616E+04  0.15120285206E+04  0.00000000000E+00 0.  1.
         22    1    1    2    0    0 -0.17312361818E+03  0.62321017267E+03 -0.14130469692E+03  0.66206474296E+03  0.00000000000E+00 0.  1.
<mgrwt>
<rscale>  0 0.20341201E+04</rscale>
<asrwt>0</asrwt>
<pdfrwt beam="1">  1        1 0.35001009E+00 0.20341201E+04</pdfrwt>
<pdfrwt beam="2">  1       -1 0.69949708E-01 0.20341201E+04</pdfrwt>
<totfact> 0.37000006E+00</totfact>
</mgrwt>
</event>
<event>
 6    1  0.8968082E-007  0.8912560E+03  0.7818608E-02  0.9436578E-01
         -2   -1    0    0    0  501 -0.00000000000E+00  0.00000000000E+00  0.54758005428E+02  0.54758005428E+02  0.00000000000E+00 0.  1.
          2   -1    0    0  501    0  0.00000000000E+00 -0.00000000000E+00 -0.36265808031E+04  0.36265808031E+04  0.00000000000E+00 0. -1.
         23    2    1    2    0    0 -0.39246571860E+03 -0.19925384055E+03 -0.19022347488E+04  0.19547074969E+04  0.93021103897E+02 0.  0.
         11    1    3    3    0    0 -0.26125734371E+03 -0.10106673859E+03 -0.10416833581E+04  0.10786909213E+04  0.00000000000E+00 0.  1.
        -11    1    3    3    0    0 -0.13120837489E+03 -0.98187101959E+02 -0.86055139072E+03  0.87601657559E+03  0.00000000000E+00 0. -1.
         22    1    1    2    0    0  0.39246571860E+03  0.19925384055E+03 -0.16695880488E+04  0.17266313116E+04  0.00000000000E+00 0.  1.
<mgrwt>
<rscale>  0 0.89125604E+03</rscale>
<asrwt>0</asrwt>
<pdfrwt beam="1">  1        2 0.55793544E+00 0.89125604E+03</pdfrwt>
<pdfrwt beam="2">  1       -2 0.84243096E-02 0.89125604E+03</pdfrwt>
<totfact> 0.63474297E+01</totfact>
</mgrwt>
</event>
<event>
 6    1  0.8968082E-007  0.3863629E+04  0.7818608E-02  0.8032636E-01
         -2   -1    0    0    0  501 -0.00000000000E+00  0.00000000000E+00  0.19480060362E+04  0.19480060362E+04  0.00000000000E+00 0.  1.
          2   -1    0    0  501    0  0.00000000000E+00 -0.00000000000E+00 -0.19157578850E+04  0.19157578850E+04  0.00000000000E+00 0. -1.
         23    2    1    2    0    0  0.16662337924E+04 -0.39476257035E+03  0.90744917562E+03  0.19407066234E+04  0.10346812891E+03 0.  0.
         11    1    3    3    0    0  0.21162795270E+03 -0.67976976628E+02  0.84527153995E+02  0.23780685330E+03  0.00000000000E+00 0. -1.
        -11    1    3    3    0    0  0.14546058397E+04 -0.32678559372E+03  0.82292202163E+03  0.17028997701E+04  0.00000000000E+00 0.  1.
         22    1    1    2    0    0 -0.16662337924E+04  0.39476257035E+03 -0.87520102440E+03  0.19230572979E+04  0.00000000000E+00 0. -1.
<mgrwt>
<rscale>  0 0.38636293E+04</rscale>
<asrwt>0</asrwt>
<pdfrwt beam="1">  1        2 0.29473198E+00 0.38636293E+04</pdfrwt>
<pdfrwt beam="2">  1       -2 0.29969324E+00 0.38636293E+04</pdfrwt>
<totfact> 0.18948799E-01</totfact>
</mgrwt>
</event>
<event>
 6    1  0.8968082E-007  0.1438341E+04  0.7818608E-02  0.8926523E-01
         -2   -1    0    0    0  501 -0.00000000000E+00  0.00000000000E+00  0.22559603366E+03  0.22559603366E+03  0.00000000000E+00 0.  1.
          2   -1    0    0  501    0  0.00000000000E+00 -0.00000000000E+00 -0.22926221586E+04  0.22926221586E+04  0.00000000000E+00 0. -1.
         23    2    1    2    0    0  0.65156966168E+03 -0.28020541891E+03 -0.86165705681E+03  0.11196572564E+04  0.90118741254E+02 0.  0.
         11    1    3    3    0    0  0.29004100722E+03 -0.15832238495E+03 -0.45134615386E+03  0.55937743434E+03  0.00000000000E+00 0. -1.
        -11    1    3    3    0    0  0.36152865447E+03 -0.12188303395E+03 -0.41031090295E+03  0.56027982210E+03  0.00000000000E+00 0.  1.
         22    1    1    2    0    0 -0.65156966168E+03  0.28020541891E+03 -0.12053690681E+04  0.13985609358E+04  0.00000000000E+00 0.  1.
<mgrwt>
<rscale>  0 0.14383414E+04</rscale>
<asrwt>0</asrwt>
<pdfrwt beam="1">  1        2 0.35271111E+00 0.14383414E+04</pdfrwt>
<pdfrwt beam="2">  1       -2 0.34707081E-01 0.14383414E+04</pdfrwt>
<totfact> 0.34653701E+01</totfact>
</mgrwt>
</event>
<event>
 6    1  0.8968082E-007  0.2090014E+04  0.7818608E-02  0.8565655E-01
          1   -1    0    0  501    0  0.00000000000E+00  0.00000000000E+00  0.83608234438E+03  0.83608234438E+03  0.00000000000E+00 0. -1.
         -1   -1    0    0    0  501 -0.00000000000E+00 -0.00000000000E+00 -0.13061387808E+04  0.13061387808E+04  0.00000000000E+00 0.  1.
         23    2    1    2    0    0 -0.53221287333E+02  0.42306921150E+03  0.74017718441E+03  0.85906662157E+03  0.91176383023E+02 0.  0.
         13    1    3    3    0    0 -0.62748424113E+02  0.18315882963E+03  0.28671169802E+03  0.34595970774E+03  0.00000000000E+00 0. -1.
        -13    1    3    3    0    0  0.95271367807E+01  0.23991038186E+03  0.45346548640E+03  0.51310691382E+03  0.00000000000E+00 0.  1.
         22    1    1    2    0    0  0.53221287333E+02 -0.42306921150E+03 -0.12102336209E+04  0.12831545037E+04  0.00000000000E+00 0.  1.
<mgrwt>
<rscale>  0 0.20900139E+04</rscale>
<asrwt>0</asrwt>
<pdfrwt beam="1">  1        1 0.12862805E+00 0.20900139E+04</pdfrwt>
<pdfrwt beam="2">  1       -1 0.20094443E+00 0.20900139E+04</pdfrwt>
<totfact> 0.28083575E+00</totfact>
</mgrwt>
</event>
<event>
 6    1  0.8968082E-007  0.4165676E+04  0.7818608E-02  0.7971934E-01
         -2   -1    0    0    0  501 -0.00000000000E+00  0.00000000000E+00  0.21224266064E+04  0.21224266064E+04  0.00000000000E+00 0.  1.
          2   -1    0    0  501    0  0.00000000000E+00 -0.00000000000E+00 -0.20439875739E+04  0.20439875739E+04  0.00000000000E+00 0. -1.
         23    2    1    2    0    0  0.38233286899E+03 -0.13304018727E+04 -0.15158380894E+04  0.20550480096E+04  0.96486490152E+02 0.  0.
         11    1    3    3    0    0  0.15157408282E+03 -0.63352046358E+03 -0.76941969718E+03  0.10081317130E+04  0.00000000000E+00 0. -1.
        -11    1    3    3    0    0  0.23075878618E+03 -0.69688140916E+03 -0.74641839217E+03  0.10469162966E+04  0.00000000000E+00 0.  1.
         22    1    1    2    0    0 -0.38233286899E+03  0.13304018727E+04  0.15942771219E+04  0.21113661708E+04  0.00000000000E+00 0.  1.
<mgrwt>
<rscale>  0 0.41656757E+04</rscale>
<asrwt>0</asrwt>
<pdfrwt beam="1">  1        2 0.31445963E+00 0.41656757E+04</pdfrwt>
<pdfrwt beam="2">  1       -2 0.32652717E+00 0.41656757E+04</pdfrwt>
<totfact> 0.10722868E-01</totfact>
</mgrwt>
</event>
<event>
 6    1  0.8968082E-007  0.1247374E+04  0.7818608E-02  0.9072372E-01
          1   -1    0    0  501    0  0.00000000000E+00  0.00000000000E+00  0.21571862827E+04  0.21571862827E+04  0.00000000000E+00 0. -1.
         -1   -1    0    0    0  501 -0.00000000000E+00 -0.00000000000E+00 -0.18032063052E+03  0.18032063052E+03  0.00000000000E+00 0.  1.
         23    2    1    2    0    0 -0.54891533717E+03 -0.10747167411E+03  0.14964775472E+04  0.16001935880E+04  0.91193539929E+02 0.  0.
         11    1    3    3    0    0 -0.19648615266E+03 -0.71698373245E+02  0.64145275113E+03  0.67469185325E+03  0.00000000000E+00 0. -1.
        -11    1    3    3    0    0 -0.35242918451E+03 -0.35773300864E+02  0.85502479610E+03  0.92550173479E+03  0.00000000000E+00 0.  1.
         22    1    1    2    0    0  0.54891533717E+03  0.10747167411E+03  0.48038810496E+03  0.73731332519E+03  0.00000000000E+00 0.  1.
<mgrwt>
<rscale>  0 0.12473735E+04</rscale>
<asrwt>0</asrwt>
<pdfrwt beam="1">  1        1 0.33187479E+00 0.12473735E+04</pdfrwt>
<pdfrwt beam="2">  1       -1 0.27741637E-01 0.12473735E+04</pdfrwt>
<totfact> 0.26959389E+01</totfact>
</mgrwt>
</event>
<event>
 6    1  0.8968082E-007  0.1619374E+04  0.7818608E-02  0.8808734E-01
         -1   -1    0    0    0  501 -0.00000000000E+00  0.00000000000E+00  0.22943083341E+03  0.22943083341E+03  0.00000000000E+00 0.  1.
          1   -1    0    0  501    0  0.00000000000E+00 -0.00000000000E+00 -0.28574749143E+04  0.28574749143E+04  0.00000000000E+00 0. -1.
         23    2    1    2    0    0 -0.71109844507E+03  0.34167753857E+03 -0.16426287940E+04  0.18245873146E+04  0.92113922472E+02 0.  0.
         13    1    3    3    0    0 -0.29178632265E+03  0.18613916322E+03 -0.67256535056E+03  0.75639354634E+03  0.00000000000E+00 0.  1.
        -13    1    3    3    0    0 -0.41931212242E+03  0.15553837534E+03 -0.97006344342E+03  0.10681937682E+04  0.00000000000E+00 0. -1.
         22    1    1    2    0    0  0.71109844507E+03 -0.34167753857E+03 -0.98541528688E+03  0.12623184331E+04  0.00000000000E+00 0.  1.
<mgrwt>
<rscale>  0 0.16193738E+04</rscale>
<asrwt>0</asrwt>
<pdfrwt beam="1">  1        1 0.43961152E+00 0.16193738E+04</pdfrwt>
<pdfrwt beam="2">  1       -1 0.35297052E-01 0.16193738E+04</pdfrwt>
<totfact> 0.55718031E+00</totfact>
</mgrwt>
</event>
<event>
 6    1  0.8968082E-007  0.3586469E+04  0.7818608E-02  0.8093598E-01
         -1   -1    0    0    0  501 -0.00000000000E+00  0.00000000000E+00  0.15750586195E+04  0.15750586195E+04  0.00000000000E+00 0.  1.
          1   -1    0    0  501    0  0.00000000000E+00 -0.00000000000E+00 -0.20416324090E+04  0.20416324090E+04  0.00000000000E+00 0. -1.
         23    2    1    2    0    0 -0.13658529010E+04  0.47870751357E+03 -0.12986238460E+04  0.19472533006E+04  0.10323028833E+03 0.  0.
         11    1    3    3    0    0 -0.37042501385E+03  0.93565535071E+02 -0.30279339325E+03  0.48749670690E+03  0.00000000000E+00 0.  1.
        -11    1    3    3    0    0 -0.99542788710E+03  0.38514197850E+03 -0.99583045280E+03  0.14597565937E+04  0.00000000000E+00 0. -1.
         22    1    1    2    0    0  0.13658529010E+04 -0.47870751357E+03  0.83205005659E+03  0.16694377279E+04  0.00000000000E+00 0.  1.
<mgrwt>
<rscale>  0 0.35864694E+04</rscale>
<asrwt>0</asrwt>
<pdfrwt beam="1">  1        1 0.31409729E+00 0.35864694E+04</pdfrwt>
<pdfrwt beam="2">  1       -1 0.24231671E+00 0.35864694E+04</pdfrwt>
<totfact> 0.17705566E-01</totfact>
</mgrwt>
</event>
<event>
 6    1  0.8968082E-007  0.3834359E+04  0.7818608E-02  0.8038821E-01
         -1   -1    0    0    0  501 -0.00000000000E+00  0.00000000000E+00  0.12518034069E+04  0.12518034069E+04  0.00000000000E+00 0.  1.
          1   -1    0    0  501    0  0.00000000000E+00 -0.00000000000E+00 -0.29362262218E+04  0.29362262218E+04  0.00000000000E+00 0. -1.
         23    2    1    2    0    0 -0.40002712564E+02 -0.12566945394E+04 -0.24219152394E+04  0.27303683311E+04  0.91413424733E+02 0.  0.
         13    1    3    3    0    0 -0.23644886250E+02 -0.12017275007E+04 -0.23356552879E+04  0.26267839063E+04  0.00000000000E+00 0. -1.
        -13    1    3    3    0    0 -0.16357826314E+02 -0.54967038626E+02 -0.86259951558E+02  0.10358442479E+03  0.00000000000E+00 0.  1.
         22    1    1    2    0    0  0.40002712564E+02  0.12566945394E+04  0.73749242452E+03  0.14576612976E+04  0.00000000000E+00 0.  1.
<mgrwt>
<rscale>  0 0.38343594E+04</rscale>
<asrwt>0</asrwt>
<pdfrwt beam="1">  1        1 0.45172711E+00 0.38343594E+04</pdfrwt>
<pdfrwt beam="2">  1       -1 0.19258514E+00 0.38343594E+04</pdfrwt>
<totfact> 0.89389856E-02</totfact>
</mgrwt>
</event>
<event>
 6    1  0.8968082E-007  0.1772484E+04  0.7818608E-02  0.8721071E-01
          2   -1    0    0  501    0  0.00000000000E+00  0.00000000000E+00  0.84448852493E+03  0.84448852493E+03  0.00000000000E+00 0. -1.
         -2   -1    0    0    0  501 -0.00000000000E+00 -0.00000000000E+00 -0.93005937315E+03  0.93005937315E+03  0.00000000000E+00 0.  1.
         23    2    1    2    0    0 -0.29895203838E+02 -0.22479277529E+03  0.81234020788E+03  0.84844327132E+03  0.92378873529E+02 0.  0.
         11    1    3    3    0    0 -0.16427498501E+02 -0.18994813659E+02  0.21584234991E+03  0.21729837935E+03  0.00000000000E+00 0.  1.
        -11    1    3    3    0    0 -0.13467705337E+02 -0.20579796163E+03  0.59649785797E+03  0.63114489197E+03  0.00000000000E+00 0. -1.
         22    1    1    2    0    0  0.29895203838E+02  0.22479277529E+03 -0.89791105611E+03  0.92610462676E+03  0.00000000000E+00 0.  1.
<mgrwt>
<rscale>  0 0.17724835E+04</rscale>
<asrwt>0</asrwt>
<pdfrwt beam="1">  1        2 0.12992131E+00 0.17724835E+04</pdfrwt>
<pdfrwt beam="2">  1       -2 0.14308606E+00 0.17724835E+04</pdfrwt>
<totfact> 0.10277007E+01</totfact>
</mgrwt>
</event>
<event>
 6    1  0.8968082E-007  0.3050276E+03  0.7818608E-02  0.1082754E+00
          2   -1    0    0  501    0  0.00000000000E+00  0.00000000000E+00  0.91075073579E+03  0.91075073579E+03  0.00000000000E+00 0. -1.
         -2   -1    0    0    0  501 -0.00000000000E+00 -0.00000000000E+00 -0.25539881615E+02  0.25539881615E+02  0.00000000000E+00 0.  1.
         23    2    1    2    0    0  0.21334248569E+02  0.10054384160E+03  0.76988749322E+03  0.78181184272E+03  0.89099893131E+02 0.  0.
         11    1    3    3    0    0 -0.32626961720E+02  0.39332506637E+02  0.38442192151E+03  0.38780378859E+03  0.00000000000E+00 0. -1.
        -11    1    3    3    0    0  0.53961210290E+02  0.61211334965E+02  0.38546557171E+03  0.39400805413E+03  0.00000000000E+00 0.  1.
         22    1    1    2    0    0 -0.21334248569E+02 -0.10054384160E+03  0.11532336096E+03  0.15447877469E+03  0.00000000000E+00 0.  1.
<mgrwt>
<rscale>  0 0.30502764E+03</rscale>
<asrwt>0</asrwt>
<pdfrwt beam="1">  1        2 0.14011547E+00 0.30502764E+03</pdfrwt>
<pdfrwt beam="2">  1       -2 0.39292133E-02 0.30502764E+03</pdfrwt>
<totfact> 0.84513150E+03</totfact>
</mgrwt>
</event>
<event>
 6    1  0.8968082E-007  0.4117247E+04  0.7818608E-02  0.7981303E-01
          2   -1    0    0  501    0  0.00000000000E+00  0.00000000000E+00  0.36137333498E+04  0.36137333498E+04  0.00000000000E+00 0. -1.
         -2   -1    0    0    0  501 -0.00000000000E+00 -0.00000000000E+00 -0.11727294091E+04  0.11727294091E+04  0.00000000000E+00 0.  1.
         23    2    1    2    0    0  0.32072194076E+03 -0.17392361489E+04 -0.15242475706E+01  0.17708784215E+04  0.90571053321E+02 0.  0.
         11    1    3    3    0    0  0.72335857162E+02 -0.60875638357E+03 -0.18283189610E+02  0.61331157318E+03  0.00000000000E+00 0.  1.
        -11    1    3    3    0    0  0.24838608360E+03 -0.11304797653E+04  0.16758942040E+02  0.11575668484E+04  0.00000000000E+00 0. -1.
         22    1    1    2    0    0 -0.32072194076E+03  0.17392361489E+04  0.24425281883E+04  0.30155843373E+04  0.00000000000E+00 0. -1.
<mgrwt>
<rscale>  0 0.41172473E+04</rscale>
<asrwt>0</asrwt>
<pdfrwt beam="1">  1        2 0.55595897E+00 0.41172473E+04</pdfrwt>
<pdfrwt beam="2">  1       -2 0.18041991E+00 0.41172473E+04</pdfrwt>
<totfact> 0.94778156E-02</totfact>
</mgrwt>
</event>
<event>
 6    1  0.8968082E-007  0.1609286E+04  0.7818608E-02  0.8814864E-01
         -1   -1    0    0    0  501 -0.00000000000E+00  0.00000000000E+00  0.39505867137E+03  0.39505867137E+03  0.00000000000E+00 0.  1.
          1   -1    0    0  501    0  0.00000000000E+00 -0.00000000000E+00 -0.16388709997E+04  0.16388709997E+04  0.00000000000E+00 0. -1.
         23    2    1    2    0    0  0.19965616074E+03 -0.34830010488E+03 -0.15013669237E+04  0.15569496765E+04  0.93883492212E+02 0.  0.
         13    1    3    3    0    0  0.99895028877E+02 -0.12395537878E+03 -0.74163379440E+03  0.75852794129E+03  0.00000000000E+00 0.  1.
        -13    1    3    3    0    0  0.99761131860E+02 -0.22434472610E+03 -0.75973312931E+03  0.79842173525E+03  0.00000000000E+00 0. -1.
         22    1    1    2    0    0 -0.19965616074E+03  0.34830010488E+03  0.25755459538E+03  0.47697999453E+03  0.00000000000E+00 0.  1.
<mgrwt>
<rscale>  0 0.16092858E+04</rscale>
<asrwt>0</asrwt>
<pdfrwt beam="1">  1        1 0.25213400E+00 0.16092858E+04</pdfrwt>
<pdfrwt beam="2">  1       -1 0.60778258E-01 0.16092858E+04</pdfrwt>
<totfact> 0.13812986E+01</totfact>
</mgrwt>
</event>
<event>
 6    1  0.8968082E-007  0.2484149E+04  0.7818608E-02  0.8408654E-01
          2   -1    0    0  501    0  0.00000000000E+00  0.00000000000E+00  0.13669680355E+04  0.13669680355E+04  0.00000000000E+00 0. -1.
         -2   -1    0    0    0  501 -0.00000000000E+00 -0.00000000000E+00 -0.11285918955E+04  0.11285918955E+04  0.00000000000E+00 0.  1.
         23    2    1    2    0    0  0.40079334821E+03  0.18748990718E+03 -0.10447068823E+04  0.11383238369E+04  0.92633225416E+02 0.  0.
         11    1    3    3    0    0  0.53446694321E+02  0.13076899680E+02 -0.21753194534E+03  0.22438293537E+03  0.00000000000E+00 0. -1.
        -11    1    3    3    0    0  0.34734665389E+03  0.17441300750E+03 -0.82717493693E+03  0.91394090150E+03  0.00000000000E+00 0.  1.
         22    1    1    2    0    0 -0.40079334821E+03 -0.18748990718E+03  0.12830830223E+04  0.13572360942E+04  0.00000000000E+00 0. -1.
<mgrwt>
<rscale>  0 0.24841490E+04</rscale>
<asrwt>0</asrwt>
<pdfrwt beam="1">  1        2 0.21030277E+00 0.24841490E+04</pdfrwt>
<pdfrwt beam="2">  1       -2 0.17362952E+00 0.24841490E+04</pdfrwt>
<totfact> 0.27124051E+00</totfact>
</mgrwt>
</event>
<event>
 6    1  0.8968082E-007  0.9351116E+03  0.7818608E-02  0.9382724E-01
          2   -1    0    0  501    0  0.00000000000E+00  0.00000000000E+00  0.15556793449E+04  0.15556793449E+04  0.00000000000E+00 0. -1.
         -2   -1    0    0    0  501 -0.00000000000E+00 -0.00000000000E+00 -0.14052281207E+03  0.14052281207E+03  0.00000000000E+00 0.  1.
         23    2    1    2    0    0  0.41967251239E+03 -0.19540475577E+03  0.69749559360E+03  0.84218502603E+03  0.92018904266E+02 0.  0.
         13    1    3    3    0    0  0.77858176108E+02  0.78240637356E+00  0.11750003828E+03  0.14095661298E+03  0.00000000000E+00 0. -1.
        -13    1    3    3    0    0  0.34181433628E+03 -0.19618716214E+03  0.57999555532E+03  0.70122841305E+03  0.00000000000E+00 0.  1.
         22    1    1    2    0    0 -0.41967251239E+03  0.19540475577E+03  0.71766093920E+03  0.85401713091E+03  0.00000000000E+00 0.  1.
<mgrwt>
<rscale>  0 0.93511162E+03</rscale>
<asrwt>0</asrwt>
<pdfrwt beam="1">  1        2 0.23933527E+00 0.93511162E+03</pdfrwt>
<pdfrwt beam="2">  1       -2 0.21618895E-01 0.93511162E+03</pdfrwt>
<totfact> 0.22023858E+02</totfact>
</mgrwt>
</event>
<event>
 6    1  0.8968082E-007  0.1224965E+04  0.7818608E-02  0.9091281E-01
         -2   -1    0    0    0  501 -0.00000000000E+00  0.00000000000E+00  0.12594093963E+03  0.12594093963E+03  0.00000000000E+00 0.  1.
          2   -1    0    0  501    0  0.00000000000E+00 -0.00000000000E+00 -0.29786574907E+04  0.29786574907E+04  0.00000000000E+00 0. -1.
         23    2    1    2    0    0  0.28455295078E+03 -0.25951018759E+02 -0.27975276033E+04  0.28135835560E+04  0.91912446656E+02 0.  0.
         11    1    3    3    0    0  0.85355604528E+02  0.34115555736E+02 -0.90219533809E+03  0.90686596498E+03  0.00000000000E+00 0. -1.
        -11    1    3    3    0    0  0.19919734625E+03 -0.60066574495E+02 -0.18953322652E+04  0.19067175910E+04  0.00000000000E+00 0.  1.
         22    1    1    2    0    0 -0.28455295078E+03  0.25951018759E+02 -0.55188947806E+02  0.29101487442E+03  0.00000000000E+00 0.  1.
<mgrwt>
<rscale>  0 0.12249652E+04</rscale>
<asrwt>0</asrwt>
<pdfrwt beam="1">  1        2 0.45825500E+00 0.12249652E+04</pdfrwt>
<pdfrwt beam="2">  1       -2 0.19375529E-01 0.12249652E+04</pdfrwt>
<totfact> 0.40508623E+01</totfact>
</mgrwt>
</event>
<event>
 6    1  0.8968082E-007  0.1705530E+04  0.7818608E-02  0.8758216E-01
          1   -1    0    0  501    0  0.00000000000E+00  0.00000000000E+00  0.60960219347E+03  0.60960219347E+03  0.00000000000E+00 0. -1.
         -1   -1    0    0    0  501 -0.00000000000E+00 -0.00000000000E+00 -0.11929230027E+04  0.11929230027E+04  0.00000000000E+00 0.  1.
         23    2    1    2    0    0  0.43064390943E+03 -0.70977671978E+03 -0.48691561103E+03  0.96674344776E+03  0.90933562780E+02 0.  0.
         11    1    3    3    0    0  0.24471032733E+03 -0.44717794047E+03 -0.25402287866E+03  0.56954269166E+03  0.00000000000E+00 0.  1.
        -11    1    3    3    0    0  0.18593358211E+03 -0.26259877931E+03 -0.23289273237E+03  0.39720075609E+03  0.00000000000E+00 0. -1.
         22    1    1    2    0    0 -0.43064390943E+03  0.70977671978E+03 -0.96405198161E+02  0.83578174837E+03  0.00000000000E+00 0.  1.
<mgrwt>
<rscale>  0 0.17055304E+04</rscale>
<asrwt>0</asrwt>
<pdfrwt beam="1">  1        1 0.93784955E-01 0.17055304E+04</pdfrwt>
<pdfrwt beam="2">  1       -1 0.18352661E+00 0.17055304E+04</pdfrwt>
<totfact> 0.62499090E+00</totfact>
</mgrwt>
</event>
<event>
 6    1  0.8968082E-007  0.2794367E+04  0.7818608E-02  0.8305019E-01
         -2   -1    0    0    0  501 -0.00000000000E+00  0.00000000000E+00  0.23840541099E+04  0.23840541099E+04  0.00000000000E+00 0.  1.
          2   -1    0    0  501    0  0.00000000000E+00 -0.00000000000E+00 -0.81882436165E+03  0.81882436165E+03  0.00000000000E+00 0. -1.
         23    2    1    2    0    0 -0.94408474248E+03  0.89067011684E+03  0.19528993402E+03  0.13157313250E+04  0.91768748854E+02 0.  0.
         13    1    3    3    0    0 -0.55733450002E+03  0.49613747182E+03  0.15251339075E+03  0.76159994105E+03  0.00000000000E+00 0. -1.
        -13    1    3    3    0    0 -0.38675024246E+03  0.39453264503E+03  0.42776543269E+02  0.55413138396E+03  0.00000000000E+00 0.  1.
         22    1    1    2    0    0  0.94408474248E+03 -0.89067011684E+03  0.13699398142E+04  0.18871471465E+04  0.00000000000E+00 0. -1.
<mgrwt>
<rscale>  0 0.27943669E+04</rscale>
<asrwt>0</asrwt>
<pdfrwt beam="1">  1        2 0.12597298E+00 0.27943669E+04</pdfrwt>
<pdfrwt beam="2">  1       -2 0.36677755E+00 0.27943669E+04</pdfrwt>
<totfact> 0.35383572E-01</totfact>
</mgrwt>
</event>
<event>
 6    1  0.8968082E-007  0.2760216E+04  0.7818608E-02  0.8315727E-01
         -2   -1    0    0    0  501 -0.00000000000E+00  0.00000000000E+00  0.56074234826E+03  0.56074234826E+03  0.00000000000E+00 0.  1.
          2   -1    0    0  501    0  0.00000000000E+00 -0.00000000000E+00 -0.33967446300E+04  0.33967446300E+04  0.00000000000E+00 0. -1.
         23    2    1    2    0    0  0.34766172334E+03  0.11232606653E+04 -0.24513988908E+04  0.27203519960E+04  0.91516469617E+02 0.  0.
         13    1    3    3    0    0  0.25971860896E+03  0.71952243177E+03 -0.15318003121E+04  0.17121852943E+04  0.00000000000E+00 0.  1.
        -13    1    3    3    0    0  0.87943114371E+02  0.40373823351E+03 -0.91959857867E+03  0.10081667017E+04  0.00000000000E+00 0. -1.
         22    1    1    2    0    0 -0.34766172334E+03 -0.11232606653E+04 -0.38460339094E+03  0.12371349823E+04  0.00000000000E+00 0.  1.
<mgrwt>
<rscale>  0 0.27602163E+04</rscale>
<asrwt>0</asrwt>
<pdfrwt beam="1">  1        2 0.52257608E+00 0.27602163E+04</pdfrwt>
<pdfrwt beam="2">  1       -2 0.86268056E-01 0.27602163E+04</pdfrwt>
<totfact> 0.97435648E-01</totfact>
</mgrwt>
</event>
<event>
 6    1  0.8968082E-007  0.1746339E+04  0.7818608E-02  0.8735368E-01
          1   -1    0    0  501    0  0.00000000000E+00  0.00000000000E+00  0.19397819881E+04  0.19397819881E+04  0.00000000000E+00 0. -1.
         -1   -1    0    0    0  501 -0.00000000000E+00 -0.00000000000E+00 -0.39304656682E+03  0.39304656682E+03  0.00000000000E+00 0.  1.
         23    2    1    2    0    0  0.23252522538E+01  0.33369326157E+03 -0.29866503389E+03  0.45749939993E+03  0.93532341205E+02 0.  0.
         11    1    3    3    0    0 -0.88844119386E+01  0.20387140801E+03 -0.12123519056E+03  0.23736144424E+03  0.00000000000E+00 0.  1.
        -11    1    3    3    0    0  0.11209664192E+02  0.12982185356E+03 -0.17742984333E+03  0.22013795569E+03  0.00000000000E+00 0. -1.
         22    1    1    2    0    0 -0.23252522538E+01 -0.33369326157E+03  0.18454004552E+04  0.18753291550E+04  0.00000000000E+00 0. -1.
<mgrwt>
<rscale>  0 0.17463386E+04</rscale>
<asrwt>0</asrwt>
<pdfrwt beam="1">  1        1 0.29842799E+00 0.17463386E+04</pdfrwt>
<pdfrwt beam="2">  1       -1 0.60468704E-01 0.17463386E+04</pdfrwt>
<totfact> 0.86083102E+00</totfact>
</mgrwt>
</event>
<event>
 6    1  0.8968082E-007  0.2767230E+04  0.7818608E-02  0.8313515E-01
          2   -1    0    0  501    0  0.00000000000E+00  0.00000000000E+00  0.21683894912E+04  0.21683894912E+04  0.00000000000E+00 0. -1.
         -2   -1    0    0    0  501 -0.00000000000E+00 -0.00000000000E+00 -0.88286299819E+03  0.88286299819E+03  0.00000000000E+00 0.  1.
         23    2    1    2    0    0 -0.33384264691E+03 -0.94667780427E+03 -0.40397633838E+03  0.10860375914E+04  0.92903121490E+02 0.  0.
         13    1    3    3    0    0 -0.17877741627E+03 -0.43479317951E+03 -0.14633208522E+03  0.49236120144E+03  0.00000000000E+00 0. -1.
        -13    1    3    3    0    0 -0.15506523065E+03 -0.51188462476E+03 -0.25764425316E+03  0.59367638997E+03  0.00000000000E+00 0.  1.
         22    1    1    2    0    0  0.33384264691E+03  0.94667780427E+03  0.16895028314E+04  0.19652148980E+04  0.00000000000E+00 0. -1.
<mgrwt>
<rscale>  0 0.27672303E+04</rscale>
<asrwt>0</asrwt>
<pdfrwt beam="1">  1        2 0.33359838E+00 0.27672303E+04</pdfrwt>
<pdfrwt beam="2">  1       -2 0.13582508E+00 0.27672303E+04</pdfrwt>
<totfact> 0.18229770E+00</totfact>
</mgrwt>
</event>
<event>
 6    1  0.8968082E-007  0.2374024E+04  0.7818608E-02  0.8449293E-01
         -2   -1    0    0    0  501 -0.00000000000E+00  0.00000000000E+00  0.83516701568E+03  0.83516701568E+03  0.00000000000E+00 0.  1.
          2   -1    0    0  501    0  0.00000000000E+00 -0.00000000000E+00 -0.16870850517E+04  0.16870850517E+04  0.00000000000E+00 0. -1.
         23    2    1    2    0    0  0.47072471957E+03  0.32661104218E+03 -0.15289442900E+04  0.16353354518E+04  0.91623486896E+02 0.  0.
         13    1    3    3    0    0  0.16999600645E+03  0.12638310980E+03 -0.69318219812E+03  0.72482611186E+03  0.00000000000E+00 0.  1.
        -13    1    3    3    0    0  0.30072871312E+03  0.20022793239E+03 -0.83576209190E+03  0.91050933991E+03  0.00000000000E+00 0. -1.
         22    1    1    2    0    0 -0.47072471957E+03 -0.32661104218E+03  0.67702625398E+03  0.88691661562E+03  0.00000000000E+00 0.  1.
<mgrwt>
<rscale>  0 0.23740243E+04</rscale>
<asrwt>0</asrwt>
<pdfrwt beam="1">  1        2 0.25955155E+00 0.23740243E+04</pdfrwt>
<pdfrwt beam="2">  1       -2 0.12848723E+00 0.23740243E+04</pdfrwt>
<totfact> 0.40200989E+00</totfact>
</mgrwt>
</event>
<event>
 6    1  0.8968082E-007  0.4021070E+04  0.7818608E-02  0.8000310E-01
         -1   -1    0    0    0  501 -0.00000000000E+00  0.00000000000E+00  0.23800257120E+04  0.23800257120E+04  0.00000000000E+00 0.  1.
          1   -1    0    0  501    0  0.00000000000E+00 -0.00000000000E+00 -0.16984061381E+04  0.16984061381E+04  0.00000000000E+00 0. -1.
         23    2    1    2    0    0  0.16202384882E+04 -0.11232903699E+04 -0.50330179897E+02  0.19754091550E+04  0.11293444425E+03 0.  0.
         11    1    3    3    0    0  0.34990672954E+03 -0.28276831508E+03 -0.45488678428E+02  0.45217458935E+03  0.00000000000E+00 0. -1.
        -11    1    3    3    0    0  0.12703317587E+04 -0.84052205487E+03 -0.48415014694E+01  0.15232345656E+04  0.00000000000E+00 0.  1.
         22    1    1    2    0    0 -0.16202384882E+04  0.11232903699E+04  0.73194975381E+03  0.21030226951E+04  0.00000000000E+00 0.  1.
<mgrwt>
<rscale>  0 0.40210696E+04</rscale>
<asrwt>0</asrwt>
<pdfrwt beam="1">  1        1 0.26129325E+00 0.40210696E+04</pdfrwt>
<pdfrwt beam="2">  1       -1 0.36615780E+00 0.40210696E+04</pdfrwt>
<totfact> 0.45240070E-02</totfact>
</mgrwt>
</event>
<event>
 6    1  0.8968082E-007  0.1377601E+04  0.7818608E-02  0.8970194E-01
          2   -1    0    0  501    0  0.00000000000E+00  0.00000000000E+00  0.34658428083E+03  0.34658428083E+03  0.00000000000E+00 0. -1.
         -2   -1    0    0    0  501 -0.00000000000E+00 -0.00000000000E+00 -0.13689198373E+04  0.13689198373E+04  0.00000000000E+00 0.  1.
         23    2    1    2    0    0 -0.68064230639E+03 -0.22463611742E+02 -0.61173524639E+03  0.92028642610E+03  0.94490905858E+02 0.  0.
         13    1    3    3    0    0 -0.34981063610E+03 -0.50945535705E+02 -0.35026513600E+03  0.49764303896E+03  0.00000000000E+00 0.  1.
        -13    1    3    3    0    0 -0.33083167030E+03  0.28481923963E+02 -0.26147011039E+03  0.42264338714E+03  0.00000000000E+00 0. -1.
         22    1    1    2    0    0  0.68064230639E+03  0.22463611742E+02 -0.41060031012E+03  0.79521769206E+03  0.00000000000E+00 0.  1.
<mgrwt>
<rscale>  0 0.13776010E+04</rscale>
<asrwt>0</asrwt>
<pdfrwt beam="1">  1        2 0.53320659E-01 0.13776010E+04</pdfrwt>
<pdfrwt beam="2">  1       -2 0.21060305E+00 0.13776010E+04</pdfrwt>
<totfact> 0.10330093E+01</totfact>
</mgrwt>
</event>
<event>
 6    1  0.8968082E-007  0.2998513E+04  0.7818608E-02  0.8244156E-01
         -1   -1    0    0    0  501 -0.00000000000E+00  0.00000000000E+00  0.66939378431E+03  0.66939378431E+03  0.00000000000E+00 0.  1.
          1   -1    0    0  501    0  0.00000000000E+00 -0.00000000000E+00 -0.33579188536E+04  0.33579188536E+04  0.00000000000E+00 0. -1.
         23    2    1    2    0    0 -0.12227039190E+04  0.34986134098E+03 -0.28222558920E+03  0.13056063681E+04  0.86884254717E+02 0.  0.
         11    1    3    3    0    0 -0.18527004262E+03  0.24447702286E+02 -0.55525982228E+02  0.19495079775E+03  0.00000000000E+00 0. -1.
        -11    1    3    3    0    0 -0.10374338764E+04  0.32541363870E+03 -0.22669960697E+03  0.11106555703E+04  0.00000000000E+00 0.  1.
         22    1    1    2    0    0  0.12227039190E+04 -0.34986134098E+03 -0.24062994800E+04  0.27217062698E+04  0.00000000000E+00 0. -1.
<mgrwt>
<rscale>  0 0.29985130E+04</rscale>
<asrwt>0</asrwt>
<pdfrwt beam="1">  1        1 0.51660290E+00 0.29985130E+04</pdfrwt>
<pdfrwt beam="2">  1       -1 0.10298366E+00 0.29985130E+04</pdfrwt>
<totfact> 0.24422592E-01</totfact>
</mgrwt>
</event>
<event>
 6    1  0.8968082E-007  0.1677215E+04  0.7818608E-02  0.8774467E-01
          1   -1    0    0  501    0  0.00000000000E+00  0.00000000000E+00  0.16635685517E+04  0.16635685517E+04  0.00000000000E+00 0. -1.
         -1   -1    0    0    0  501 -0.00000000000E+00 -0.00000000000E+00 -0.42274336721E+03  0.42274336721E+03  0.00000000000E+00 0.  1.
         23    2    1    2    0    0  0.44180683025E+03 -0.41804900951E+03  0.13358831218E+04  0.14706868211E+04  0.91530109891E+02 0.  0.
         13    1    3    3    0    0  0.25120404683E+03 -0.28302352938E+03  0.75299696829E+03  0.84273971402E+03  0.00000000000E+00 0.  1.
        -13    1    3    3    0    0  0.19060278342E+03 -0.13502548014E+03  0.58288615352E+03  0.62794710709E+03  0.00000000000E+00 0. -1.
         22    1    1    2    0    0 -0.44180683025E+03  0.41804900951E+03 -0.95057937321E+02  0.61562509781E+03  0.00000000000E+00 0.  1.
<mgrwt>
<rscale>  0 0.16772150E+04</rscale>
<asrwt>0</asrwt>
<pdfrwt beam="1">  1        1 0.25593362E+00 0.16772150E+04</pdfrwt>
<pdfrwt beam="2">  1       -1 0.65037442E-01 0.16772150E+04</pdfrwt>
<totfact> 0.11533946E+01</totfact>
</mgrwt>
</event>
<event>
 6    1  0.8968082E-007  0.4564392E+04  0.7818608E-02  0.7899460E-01
          2   -1    0    0  501    0  0.00000000000E+00  0.00000000000E+00  0.14922529042E+04  0.14922529042E+04  0.00000000000E+00 0. -1.
         -2   -1    0    0    0  501 -0.00000000000E+00 -0.00000000000E+00 -0.34903049239E+04  0.34903049239E+04  0.00000000000E+00 0.  1.
         23    2    1    2    0    0  0.88697691306E+03  0.15187470628E+04  0.58661449011E+03  0.18562466389E+04  0.90632992871E+02 0.  0.
         13    1    3    3    0    0  0.29644695777E+03  0.56915964436E+03  0.18169893801E+03  0.66696177073E+03  0.00000000000E+00 0. -1.
        -13    1    3    3    0    0  0.59052995529E+03  0.94958741841E+03  0.40491555210E+03  0.11892848682E+04  0.00000000000E+00 0.  1.
         22    1    1    2    0    0 -0.88697691306E+03 -0.15187470628E+04 -0.25846665098E+04  0.31263111892E+04  0.00000000000E+00 0.  1.
<mgrwt>
<rscale>  0 0.45643916E+04</rscale>
<asrwt>0</asrwt>
<pdfrwt beam="1">  1        2 0.22957737E+00 0.45643916E+04</pdfrwt>
<pdfrwt beam="2">  1       -2 0.53696999E+00 0.45643916E+04</pdfrwt>
<totfact> 0.97340947E-03</totfact>
</mgrwt>
</event>
<event>
 6    1  0.8968082E-007  0.2699671E+04  0.7818608E-02  0.8335112E-01
         -2   -1    0    0    0  501 -0.00000000000E+00  0.00000000000E+00  0.50275882410E+03  0.50275882410E+03  0.00000000000E+00 0.  1.
          2   -1    0    0  501    0  0.00000000000E+00 -0.00000000000E+00 -0.36241148751E+04  0.36241148751E+04  0.00000000000E+00 0. -1.
         23    2    1    2    0    0 -0.24030795550E+03 -0.10994354945E+04 -0.42741295848E+03  0.12073128237E+04  0.91739288506E+02 0.  0.
         13    1    3    3    0    0 -0.18495133913E+03 -0.66123523060E+03 -0.23747347961E+03  0.72652094364E+03  0.00000000000E+00 0. -1.
        -13    1    3    3    0    0 -0.55356616368E+02 -0.43820026392E+03 -0.18993947887E+03  0.48079188004E+03  0.00000000000E+00 0.  1.
         22    1    1    2    0    0  0.24030795550E+03  0.10994354945E+04 -0.26939430925E+04  0.29195608755E+04  0.00000000000E+00 0. -1.
<mgrwt>
<rscale>  0 0.26996709E+04</rscale>
<asrwt>0</asrwt>
<pdfrwt beam="1">  1        2 0.55755615E+00 0.26996709E+04</pdfrwt>
<pdfrwt beam="2">  1       -2 0.77347509E-01 0.26996709E+04</pdfrwt>
<totfact> 0.86795233E-01</totfact>
</mgrwt>
</event>
<event>
 6    1  0.1588175E-006  0.2477325E+04  0.7818608E-02  0.8411108E-01
          1   -1    0    0  501    0  0.00000000000E+00  0.00000000000E+00  0.13300971531E+04  0.13300971531E+04  0.00000000000E+00 0. -1.
         -1   -1    0    0    0  501 -0.00000000000E+00 -0.00000000000E+00 -0.11535134474E+04  0.11535134474E+04  0.00000000000E+00 0.  1.
         23    2    1    2    0    0 -0.34806387923E+03  0.50407933653E+02 -0.11005303629E+04  0.11589560160E+04  0.91227975178E+02 0.  0.
         11    1    3    3    0    0 -0.17119181042E+03 -0.20475710730E+02 -0.54912932079E+03  0.57555964212E+03  0.00000000000E+00 0. -1.
        -11    1    3    3    0    0 -0.17687206880E+03  0.70883644383E+02 -0.55140104216E+03  0.58339637388E+03  0.00000000000E+00 0.  1.
         22    1    1    2    0    0  0.34806387923E+03 -0.50407933653E+02  0.12771140686E+04  0.13246545844E+04  0.00000000000E+00 0. -1.
<mgrwt>
<rscale>  0 0.24773251E+04</rscale>
<asrwt>0</asrwt>
<pdfrwt beam="1">  1        1 0.20463033E+00 0.24773251E+04</pdfrwt>
<pdfrwt beam="2">  1       -1 0.17746361E+00 0.24773251E+04</pdfrwt>
<totfact> 0.16635612E+00</totfact>
</mgrwt>
</event>
<event>
 6    1  0.8968082E-007  0.9201529E+03  0.7818608E-02  0.9400734E-01
         -1   -1    0    0    0  501 -0.00000000000E+00  0.00000000000E+00  0.17725506063E+03  0.17725506063E+03  0.00000000000E+00 0.  1.
          1   -1    0    0  501    0  0.00000000000E+00 -0.00000000000E+00 -0.11941569139E+04  0.11941569139E+04  0.00000000000E+00 0. -1.
         23    2    1    2    0    0 -0.42685393259E+00  0.44939887155E+03 -0.62115571836E+03  0.77260104340E+03  0.95490407106E+02 0.  0.
         11    1    3    3    0    0  0.46148727347E+02  0.26318718946E+03 -0.34807970812E+03  0.43881281309E+03  0.00000000000E+00 0.  1.
        -11    1    3    3    0    0 -0.46575581279E+02  0.18621168210E+03 -0.27307601024E+03  0.33378823030E+03  0.00000000000E+00 0. -1.
         22    1    1    2    0    0  0.42685393259E+00 -0.44939887155E+03 -0.39574613491E+03  0.59881093114E+03  0.00000000000E+00 0.  1.
<mgrwt>
<rscale>  0 0.92015294E+03</rscale>
<asrwt>0</asrwt>
<pdfrwt beam="1">  1        1 0.18371646E+00 0.92015294E+03</pdfrwt>
<pdfrwt beam="2">  1       -1 0.27270008E-01 0.92015294E+03</pdfrwt>
<totfact> 0.13082344E+02</totfact>
</mgrwt>
</event>
<event>
 6    1  0.8968082E-007  0.4558746E+03  0.7818608E-02  0.1025985E+00
         -1   -1    0    0    0  501 -0.00000000000E+00  0.00000000000E+00  0.62977278082E+02  0.62977278082E+02  0.00000000000E+00 0.  1.
          1   -1    0    0  501    0  0.00000000000E+00 -0.00000000000E+00 -0.82498668595E+03  0.82498668595E+03  0.00000000000E+00 0. -1.
         23    2    1    2    0    0  0.81311104651E+02 -0.14720201292E+03 -0.12475834747E+03  0.22889731920E+03  0.92463014924E+02 0.  0.
         11    1    3    3    0    0  0.86841261579E+02 -0.62620416568E+02 -0.66273807446E+02  0.12591639622E+03  0.00000000000E+00 0.  1.
        -11    1    3    3    0    0 -0.55301569282E+01 -0.84581596349E+02 -0.58484540025E+02  0.10298092298E+03  0.00000000000E+00 0. -1.
         22    1    1    2    0    0 -0.81311104651E+02  0.14720201292E+03 -0.63725106039E+03  0.65906664482E+03  0.00000000000E+00 0. -1.
<mgrwt>
<rscale>  0 0.45587461E+03</rscale>
<asrwt>0</asrwt>
<pdfrwt beam="1">  1        1 0.12692102E+00 0.45587461E+03</pdfrwt>
<pdfrwt beam="2">  1       -1 0.96888126E-02 0.45587461E+03</pdfrwt>
<totfact> 0.14060182E+03</totfact>
</mgrwt>
</event>
<event>
 6    1  0.1016230E-006  0.2782354E+04  0.7818608E-02  0.8308768E-01
         -2   -1    0    0    0  501 -0.00000000000E+00  0.00000000000E+00  0.65898817841E+03  0.65898817841E+03  0.00000000000E+00 0.  1.
          2   -1    0    0  501    0  0.00000000000E+00 -0.00000000000E+00 -0.29368867892E+04  0.29368867892E+04  0.00000000000E+00 0. -1.
         23    2    1    2    0    0 -0.59850583688E+03 -0.19660647138E+03  0.46077914263E+03  0.78567583259E+03  0.90031962445E+02 0.  0.
         13    1    3    3    0    0 -0.42092608702E+03 -0.15745969869E+03  0.37158124884E+03  0.58313373417E+03  0.00000000000E+00 0.  1.
        -13    1    3    3    0    0 -0.17757974986E+03 -0.39146772687E+02  0.89197893794E+02  0.20254209841E+03  0.00000000000E+00 0. -1.
         22    1    1    2    0    0  0.59850583688E+03  0.19660647138E+03 -0.27386777534E+04  0.28101991350E+04  0.00000000000E+00 0. -1.
<mgrwt>
<rscale>  0 0.27823542E+04</rscale>
<asrwt>0</asrwt>
<pdfrwt beam="1">  1        2 0.45182874E+00 0.27823542E+04</pdfrwt>
<pdfrwt beam="2">  1       -2 0.10138280E+00 0.27823542E+04</pdfrwt>
<totfact> 0.13275122E+00</totfact>
</mgrwt>
</event>
<event>
 6    1  0.8968082E-007  0.2503989E+04  0.7818608E-02  0.8401566E-01
          2   -1    0    0  501    0  0.00000000000E+00  0.00000000000E+00  0.15153174457E+04  0.15153174457E+04  0.00000000000E+00 0. -1.
         -2   -1    0    0    0  501 -0.00000000000E+00 -0.00000000000E+00 -0.10344305822E+04  0.10344305822E+04  0.00000000000E+00 0.  1.
         23    2    1    2    0    0 -0.56706333065E+03 -0.77004800999E+03 -0.57936581353E+03  0.11219278369E+04  0.92317748597E+02 0.  0.
         11    1    3    3    0    0 -0.27162821676E+03 -0.40498119256E+03 -0.24735513528E+03  0.54678717745E+03  0.00000000000E+00 0. -1.
        -11    1    3    3    0    0 -0.29543511389E+03 -0.36506681743E+03 -0.33201067825E+03  0.57514065947E+03  0.00000000000E+00 0.  1.
         22    1    1    2    0    0  0.56706333065E+03  0.77004800999E+03  0.10602526770E+04  0.14278201910E+04  0.00000000000E+00 0. -1.
<mgrwt>
<rscale>  0 0.25039894E+04</rscale>
<asrwt>0</asrwt>
<pdfrwt beam="1">  1        2 0.23312576E+00 0.25039894E+04</pdfrwt>
<pdfrwt beam="2">  1       -2 0.15914317E+00 0.25039894E+04</pdfrwt>
<totfact> 0.28362220E+00</totfact>
</mgrwt>
</event>
<event>
 6    1  0.1140324E-006  0.3675965E+04  0.7818608E-02  0.8073309E-01
          1   -1    0    0  501    0  0.00000000000E+00  0.00000000000E+00  0.16470199482E+04  0.16470199482E+04  0.00000000000E+00 0. -1.
         -1   -1    0    0    0  501 -0.00000000000E+00 -0.00000000000E+00 -0.20510858028E+04  0.20510858028E+04  0.00000000000E+00 0.  1.
         23    2    1    2    0    0  0.21046752256E+03  0.10695322133E+04 -0.16895301217E+04  0.20126936010E+04  0.90707035022E+02 0.  0.
         13    1    3    3    0    0  0.83198137175E+02  0.65269780525E+03 -0.10180894895E+04  0.12122056606E+04  0.00000000000E+00 0. -1.
        -13    1    3    3    0    0  0.12726938539E+03  0.41683440801E+03 -0.67144063218E+03  0.80048794038E+03  0.00000000000E+00 0.  1.
         22    1    1    2    0    0 -0.21046752256E+03 -0.10695322133E+04  0.12854642672E+04  0.16854121500E+04  0.00000000000E+00 0. -1.
<mgrwt>
<rscale>  0 0.36759648E+04</rscale>
<asrwt>0</asrwt>
<pdfrwt beam="1">  1        1 0.25338768E+00 0.36759648E+04</pdfrwt>
<pdfrwt beam="2">  1       -1 0.31555166E+00 0.36759648E+04</pdfrwt>
<totfact> 0.10895796E-01</totfact>
</mgrwt>
</event>
<event>
 6    1  0.8968082E-007  0.1923768E+04  0.7818608E-02  0.8643115E-01
         -1   -1    0    0    0  501 -0.00000000000E+00  0.00000000000E+00  0.15766059785E+04  0.15766059785E+04  0.00000000000E+00 0.  1.
          1   -1    0    0  501    0  0.00000000000E+00 -0.00000000000E+00 -0.58684348240E+03  0.58684348240E+03  0.00000000000E+00 0. -1.
         23    2    1    2    0    0 -0.36433929164E+03  0.79908737699E+02 -0.49827469408E+03  0.62937540625E+03  0.93312407754E+02 0.  0.
         11    1    3    3    0    0 -0.21889492305E+03  0.16733479415E+02 -0.23157888127E+03  0.31909837813E+03  0.00000000000E+00 0. -1.
        -11    1    3    3    0    0 -0.14544436859E+03  0.63175258284E+02 -0.26669581281E+03  0.31027702812E+03  0.00000000000E+00 0.  1.
         22    1    1    2    0    0  0.36433929164E+03 -0.79908737699E+02  0.14880371902E+04  0.15340740547E+04  0.00000000000E+00 0.  1.
<mgrwt>
<rscale>  0 0.19237681E+04</rscale>
<asrwt>0</asrwt>
<pdfrwt beam="1">  1        1 0.90283614E-01 0.19237681E+04</pdfrwt>
<pdfrwt beam="2">  1       -1 0.24255476E+00 0.19237681E+04</pdfrwt>
<totfact> 0.25754112E+00</totfact>
</mgrwt>
</event>
<event>
 6    1  0.8968082E-007  0.3729071E+04  0.7818608E-02  0.8061550E-01
          1   -1    0    0  501    0  0.00000000000E+00  0.00000000000E+00  0.40494012201E+04  0.40494012201E+04  0.00000000000E+00 0. -1.
         -1   -1    0    0    0  501 -0.00000000000E+00 -0.00000000000E+00 -0.85852000853E+03  0.85852000853E+03  0.00000000000E+00 0.  1.
         23    2    1    2    0    0  0.10288716397E+04 -0.72755521703E+03 -0.21028504815E+03  0.12808224747E+04  0.91503908757E+02 0.  0.
         13    1    3    3    0    0  0.53357754445E+03 -0.37702923886E+03 -0.15535625312E+03  0.67155908770E+03  0.00000000000E+00 0.  1.
        -13    1    3    3    0    0  0.49529409524E+03 -0.35052597817E+03 -0.54928795025E+02  0.60926338695E+03  0.00000000000E+00 0. -1.
         22    1    1    2    0    0 -0.10288716397E+04  0.72755521703E+03  0.34011662597E+04  0.36270987540E+04  0.00000000000E+00 0. -1.
<mgrwt>
<rscale>  0 0.37290706E+04</rscale>
<asrwt>0</asrwt>
<pdfrwt beam="1">  1        1 0.62298480E+00 0.37290706E+04</pdfrwt>
<pdfrwt beam="2">  1       -1 0.13208000E+00 0.37290706E+04</pdfrwt>
<totfact> 0.33716461E-02</totfact>
</mgrwt>
</event>
<event>
 6    1  0.8968082E-007  0.4021953E+04  0.7818608E-02  0.8000132E-01
          2   -1    0    0  501    0  0.00000000000E+00  0.00000000000E+00  0.26748249058E+04  0.26748249058E+04  0.00000000000E+00 0. -1.
         -2   -1    0    0    0  501 -0.00000000000E+00 -0.00000000000E+00 -0.15118848197E+04  0.15118848197E+04  0.00000000000E+00 0.  1.
         23    2    1    2    0    0 -0.55475075797E+03 -0.31775721186E+03 -0.14018497070E+04  0.15434419124E+04  0.91171743204E+02 0.  0.
         13    1    3    3    0    0 -0.37855126983E+03 -0.21869413525E+03 -0.85208330594E+03  0.95769209506E+03  0.00000000000E+00 0. -1.
        -13    1    3    3    0    0 -0.17619948814E+03 -0.99063076610E+02 -0.54976640109E+03  0.58574981736E+03  0.00000000000E+00 0.  1.
         22    1    1    2    0    0  0.55475075797E+03  0.31775721186E+03  0.25647897931E+04  0.26432678131E+04  0.00000000000E+00 0. -1.
<mgrwt>
<rscale>  0 0.40219533E+04</rscale>
<asrwt>0</asrwt>
<pdfrwt beam="1">  1        2 0.41151152E+00 0.40219533E+04</pdfrwt>
<pdfrwt beam="2">  1       -2 0.23259766E+00 0.40219533E+04</pdfrwt>
<totfact> 0.17824979E-01</totfact>
</mgrwt>
</event>
<event>
 6    1  0.8968082E-007  0.2199556E+04  0.7818608E-02  0.8518613E-01
         -2   -1    0    0    0  501 -0.00000000000E+00  0.00000000000E+00  0.94234026093E+03  0.94234026093E+03  0.00000000000E+00 0.  1.
          2   -1    0    0  501    0  0.00000000000E+00 -0.00000000000E+00 -0.12835185090E+04  0.12835185090E+04  0.00000000000E+00 0. -1.
         23    2    1    2    0    0  0.82471825126E+03 -0.18831807016E+03  0.53767619765E+03  0.10060190156E+04  0.85759411856E+02 0.  0.
         13    1    3    3    0    0  0.46400807025E+03 -0.14922494087E+03  0.30305835702E+03  0.57394768054E+03  0.00000000000E+00 0.  1.
        -13    1    3    3    0    0  0.36071018101E+03 -0.39093129291E+02  0.23461784063E+03  0.43207133506E+03  0.00000000000E+00 0. -1.
         22    1    1    2    0    0 -0.82471825126E+03  0.18831807016E+03 -0.87885444571E+03  0.12198397543E+04  0.00000000000E+00 0. -1.
<mgrwt>
<rscale>  0 0.21995556E+04</rscale>
<asrwt>0</asrwt>
<pdfrwt beam="1">  1        2 0.19746438E+00 0.21995556E+04</pdfrwt>
<pdfrwt beam="2">  1       -2 0.14497543E+00 0.21995556E+04</pdfrwt>
<totfact> 0.50656285E+00</totfact>
</mgrwt>
</event>
<event>
 6    1  0.8968082E-007  0.1763362E+04  0.7818608E-02  0.8726030E-01
          1   -1    0    0  501    0  0.00000000000E+00  0.00000000000E+00  0.15112688630E+04  0.15112688630E+04  0.00000000000E+00 0. -1.
         -1   -1    0    0    0  501 -0.00000000000E+00 -0.00000000000E+00 -0.51437659254E+03  0.51437659254E+03  0.00000000000E+00 0.  1.
         23    2    1    2    0    0 -0.44115479825E+03  0.74809609225E+03  0.34182934534E+03  0.93781607778E+03  0.91577154123E+02 0.  0.
         13    1    3    3    0    0 -0.35549894724E+03  0.55415954900E+03  0.22515067852E+03  0.69581975775E+03  0.00000000000E+00 0. -1.
        -13    1    3    3    0    0 -0.85655851009E+02  0.19393654325E+03  0.11667866682E+03  0.24199632003E+03  0.00000000000E+00 0.  1.
         22    1    1    2    0    0  0.44115479825E+03 -0.74809609225E+03  0.65506292511E+03  0.10878293778E+04  0.00000000000E+00 0. -1.
<mgrwt>
<rscale>  0 0.17633619E+04</rscale>
<asrwt>0</asrwt>
<pdfrwt beam="1">  1        1 0.23250290E+00 0.17633619E+04</pdfrwt>
<pdfrwt beam="2">  1       -1 0.79134861E-01 0.17633619E+04</pdfrwt>
<totfact> 0.97084404E+00</totfact>
</mgrwt>
</event>
<event>
 6    1  0.8968082E-007  0.8166638E+03  0.7818608E-02  0.9536205E-01
         -1   -1    0    0    0  501 -0.00000000000E+00  0.00000000000E+00  0.44104300731E+03  0.44104300731E+03  0.00000000000E+00 0.  1.
          1   -1    0    0  501    0  0.00000000000E+00 -0.00000000000E+00 -0.37804693346E+03  0.37804693346E+03  0.00000000000E+00 0. -1.
         23    2    1    2    0    0  0.70480892054E+02 -0.25507589010E+03  0.33699311729E+03  0.43816259117E+03  0.91601470227E+02 0.  0.
         11    1    3    3    0    0  0.84391055054E+01 -0.80484556777E+02  0.45712265010E+02  0.92944034524E+02  0.00000000000E+00 0. -1.
        -11    1    3    3    0    0  0.62041786549E+02 -0.17459133332E+03  0.29128085228E+03  0.34521855665E+03  0.00000000000E+00 0.  1.
         22    1    1    2    0    0 -0.70480892054E+02  0.25507589010E+03 -0.27399704344E+03  0.38092734959E+03  0.00000000000E+00 0. -1.
<mgrwt>
<rscale>  0 0.81666384E+03</rscale>
<asrwt>0</asrwt>
<pdfrwt beam="1">  1        1 0.58161067E-01 0.81666384E+03</pdfrwt>
<pdfrwt beam="2">  1       -1 0.67852770E-01 0.81666384E+03</pdfrwt>
<totfact> 0.14391824E+02</totfact>
</mgrwt>
</event>
<event>
 6    1  0.8968082E-007  0.3652952E+04  0.7818608E-02  0.8078469E-01
         -2   -1    0    0    0  501 -0.00000000000E+00  0.00000000000E+00  0.22085786929E+04  0.22085786929E+04  0.00000000000E+00 0.  1.
          2   -1    0    0  501    0  0.00000000000E+00 -0.00000000000E+00 -0.15104800615E+04  0.15104800615E+04  0.00000000000E+00 0. -1.
         23    2    1    2    0    0 -0.10647695985E+04  0.14764891987E+04  0.21210084359E+03  0.18349280527E+04  0.90661673788E+02 0.  0.
         11    1    3    3    0    0 -0.60112238654E+03  0.76046470326E+03  0.97938048733E+02  0.97429284606E+03  0.00000000000E+00 0. -1.
        -11    1    3    3    0    0 -0.46364721191E+03  0.71602449541E+03  0.11416279486E+03  0.86063520662E+03  0.00000000000E+00 0.  1.
         22    1    1    2    0    0  0.10647695985E+04 -0.14764891987E+04  0.48599778781E+03  0.18841307018E+04  0.00000000000E+00 0.  1.
<mgrwt>
<rscale>  0 0.36529517E+04</rscale>
<asrwt>0</asrwt>
<pdfrwt beam="1">  1        2 0.23238155E+00 0.36529517E+04</pdfrwt>
<pdfrwt beam="2">  1       -2 0.33978134E+00 0.36529517E+04</pdfrwt>
<totfact> 0.18323569E-01</totfact>
</mgrwt>
</event>
<event>
 6    1  0.8968082E-007  0.6165582E+04  0.7818608E-02  0.7670204E-01
          2   -1    0    0  501    0  0.00000000000E+00  0.00000000000E+00  0.26568456689E+04  0.26568456689E+04  0.00000000000E+00 0. -1.
         -2   -1    0    0    0  501 -0.00000000000E+00 -0.00000000000E+00 -0.35770242364E+04  0.35770242364E+04  0.00000000000E+00 0.  1.
         23    2    1    2    0    0  0.12931176807E+04  0.55239581728E+03  0.23127408752E+04  0.27083823365E+04  0.96281098714E+02 0.  0.
         13    1    3    3    0    0  0.25426279229E+03  0.97164681393E+02  0.52098469451E+03  0.58780574577E+03  0.00000000000E+00 0.  1.
        -13    1    3    3    0    0  0.10388548884E+04  0.45523113588E+03  0.17917561807E+04  0.21205765907E+04  0.00000000000E+00 0. -1.
         22    1    1    2    0    0 -0.12931176807E+04 -0.55239581728E+03 -0.32329194427E+04  0.35254875688E+04  0.00000000000E+00 0.  1.
<mgrwt>
<rscale>  0 0.61655823E+04</rscale>
<asrwt>0</asrwt>
<pdfrwt beam="1">  1        2 0.40874549E+00 0.61655823E+04</pdfrwt>
<pdfrwt beam="2">  1       -2 0.55031142E+00 0.61655823E+04</pdfrwt>
<totfact> 0.16233448E-03</totfact>
</mgrwt>
</event>
<event>
 6    1  0.8968082E-007  0.1934007E+04  0.7818608E-02  0.8638112E-01
         -1   -1    0    0    0  501 -0.00000000000E+00  0.00000000000E+00  0.13496980827E+04  0.13496980827E+04  0.00000000000E+00 0.  1.
          1   -1    0    0  501    0  0.00000000000E+00 -0.00000000000E+00 -0.69281865030E+03  0.69281865030E+03  0.00000000000E+00 0. -1.
         23    2    1    2    0    0 -0.58289206820E+03  0.76891178096E+03  0.31420128266E+03  0.10185944682E+04  0.88451990206E+02 0.  0.
         11    1    3    3    0    0 -0.37456523201E+03  0.51011737225E+03  0.24866442913E+03  0.67996532618E+03  0.00000000000E+00 0.  1.
        -11    1    3    3    0    0 -0.20832683619E+03  0.25879440871E+03  0.65536853535E+02  0.33862914203E+03  0.00000000000E+00 0. -1.
         22    1    1    2    0    0  0.58289206820E+03 -0.76891178096E+03  0.34267814977E+03  0.10239222648E+04  0.00000000000E+00 0. -1.
<mgrwt>
<rscale>  0 0.19340072E+04</rscale>
<asrwt>0</asrwt>
<pdfrwt beam="1">  1        1 0.10658748E+00 0.19340072E+04</pdfrwt>
<pdfrwt beam="2">  1       -1 0.20764586E+00 0.19340072E+04</pdfrwt>
<totfact> 0.34432515E+00</totfact>
</mgrwt>
</event>
<event>
 6    1  0.8968082E-007  0.1183637E+04  0.7818608E-02  0.9127301E-01
         -2   -1    0    0    0  501 -0.00000000000E+00  0.00000000000E+00  0.22936421541E+03  0.22936421541E+03  0.00000000000E+00 0.  1.
          2   -1    0    0  501    0  0.00000000000E+00 -0.00000000000E+00 -0.15270437446E+04  0.15270437446E+04  0.00000000000E+00 0. -1.
         23    2    1    2    0    0  0.55938879568E+03 -0.42859777203E+02 -0.38414922314E+03  0.68435833183E+03  0.77607444693E+02 0.  0.
         13    1    3    3    0    0  0.23467808508E+02  0.39114976773E+01 -0.83434629970E+00  0.23806175333E+02  0.00000000000E+00 0. -1.
        -13    1    3    3    0    0  0.53592098717E+03 -0.46771274880E+02 -0.38331487684E+03  0.66055215650E+03  0.00000000000E+00 0.  1.
         22    1    1    2    0    0 -0.55938879568E+03  0.42859777203E+02 -0.91353030607E+03  0.10720496282E+04  0.00000000000E+00 0. -1.
<mgrwt>
<rscale>  0 0.11836371E+04</rscale>
<asrwt>0</asrwt>
<pdfrwt beam="1">  1        2 0.23492980E+00 0.11836371E+04</pdfrwt>
<pdfrwt beam="2">  1       -2 0.35286804E-01 0.11836371E+04</pdfrwt>
<totfact> 0.91247906E+01</totfact>
</mgrwt>
</event>
<event>
 6    1  0.8968082E-007  0.9667146E+03  0.7818608E-02  0.9345824E-01
         -3   -1    0    0    0  501 -0.00000000000E+00  0.00000000000E+00  0.12261746746E+03  0.12261746746E+03  0.00000000000E+00 0.  1.
          3   -1    0    0  501    0  0.00000000000E+00 -0.00000000000E+00 -0.19053916359E+04  0.19053916359E+04  0.00000000000E+00 0. -1.
         23    2    1    2    0    0 -0.13916022325E+03  0.45841000294E+03 -0.90036107695E+03  0.10239383078E+04  0.91072996454E+02 0.  0.
         13    1    3    3    0    0 -0.23112078189E+02  0.19644428649E+02 -0.31791154394E+02  0.43940291679E+02  0.00000000000E+00 0. -1.
        -13    1    3    3    0    0 -0.11604814506E+03  0.43876557429E+03 -0.86856992256E+03  0.97999801609E+03  0.00000000000E+00 0.  1.
         22    1    1    2    0    0  0.13916022325E+03 -0.45841000294E+03 -0.88241309148E+03  0.10040707956E+04  0.00000000000E+00 0. -1.
<mgrwt>
<rscale>  0 0.96671464E+03</rscale>
<asrwt>0</asrwt>
<pdfrwt beam="1">  1        3 0.29313717E+00 0.96671464E+03</pdfrwt>
<pdfrwt beam="2">  1       -3 0.18864226E-01 0.96671464E+03</pdfrwt>
<totfact> 0.28670807E+00</totfact>
</mgrwt>
</event>
<event>
 6    1  0.8968082E-007  0.2689409E+04  0.7818608E-02  0.8338450E-01
          1   -1    0    0  501    0  0.00000000000E+00  0.00000000000E+00  0.15568544049E+04  0.15568544049E+04  0.00000000000E+00 0. -1.
         -1   -1    0    0    0  501 -0.00000000000E+00 -0.00000000000E+00 -0.11614639400E+04  0.11614639400E+04  0.00000000000E+00 0.  1.
         23    2    1    2    0    0 -0.33577111495E+03 -0.49839282014E+03 -0.10162250918E+04  0.11841097135E+04  0.90910569757E+02 0.  0.
         11    1    3    3    0    0 -0.53593905426E+02 -0.51465040883E+02 -0.81443557404E+02  0.11024522745E+03  0.00000000000E+00 0.  1.
        -11    1    3    3    0    0 -0.28217720952E+03 -0.44692777926E+03 -0.93478153441E+03  0.10738644861E+04  0.00000000000E+00 0. -1.
         22    1    1    2    0    0  0.33577111495E+03  0.49839282014E+03  0.14116155567E+04  0.15342086314E+04  0.00000000000E+00 0. -1.
<mgrwt>
<rscale>  0 0.26894090E+04</rscale>
<asrwt>0</asrwt>
<pdfrwt beam="1">  1        1 0.23951606E+00 0.26894090E+04</pdfrwt>
<pdfrwt beam="2">  1       -1 0.17868676E+00 0.26894090E+04</pdfrwt>
<totfact> 0.11107377E+00</totfact>
</mgrwt>
</event>
<event>
 6    1  0.8968082E-007  0.4260858E+04  0.7818608E-02  0.7953896E-01
          1   -1    0    0  501    0  0.00000000000E+00  0.00000000000E+00  0.20694863402E+04  0.20694863402E+04  0.00000000000E+00 0. -1.
         -1   -1    0    0    0  501 -0.00000000000E+00 -0.00000000000E+00 -0.21931667955E+04  0.21931667955E+04  0.00000000000E+00 0.  1.
         23    2    1    2    0    0  0.10681934610E+04  0.15843363770E+04  0.87841601246E+03  0.21050256526E+04  0.91429106447E+02 0.  0.
         13    1    3    3    0    0  0.48393913414E+03  0.76414719625E+03  0.45703670059E+03  0.10134103654E+04  0.00000000000E+00 0.  1.
        -13    1    3    3    0    0  0.58425432686E+03  0.82018918071E+03  0.42137931187E+03  0.10916152871E+04  0.00000000000E+00 0. -1.
         22    1    1    2    0    0 -0.10681934610E+04 -0.15843363770E+04 -0.10020964677E+04  0.21576274831E+04  0.00000000000E+00 0.  1.
<mgrwt>
<rscale>  0 0.42608585E+04</rscale>
<asrwt>0</asrwt>
<pdfrwt beam="1">  1        1 0.31838251E+00 0.42608585E+04</pdfrwt>
<pdfrwt beam="2">  1       -1 0.33741028E+00 0.42608585E+04</pdfrwt>
<totfact> 0.38538034E-02</totfact>
</mgrwt>
</event>
<event>
 6    1  0.8968082E-007  0.2307653E+04  0.7818608E-02  0.8474910E-01
          1   -1    0    0  501    0  0.00000000000E+00  0.00000000000E+00  0.16541468076E+04  0.16541468076E+04  0.00000000000E+00 0. -1.
         -1   -1    0    0    0  501 -0.00000000000E+00 -0.00000000000E+00 -0.80483555280E+03  0.80483555280E+03  0.00000000000E+00 0.  1.
         23    2    1    2    0    0  0.91536763119E+03  0.26613054663E+03  0.11145113563E+04  0.14695105509E+04  0.92748733744E+02 0.  0.
         11    1    3    3    0    0  0.38037504908E+03  0.84464367070E+02  0.51396779575E+03  0.64496690019E+03  0.00000000000E+00 0.  1.
        -11    1    3    3    0    0  0.53499258210E+03  0.18166617956E+03  0.60054356059E+03  0.82454365067E+03  0.00000000000E+00 0. -1.
         22    1    1    2    0    0 -0.91536763119E+03 -0.26613054663E+03 -0.26520010151E+03  0.98947180956E+03  0.00000000000E+00 0.  1.
<mgrwt>
<rscale>  0 0.23076535E+04</rscale>
<asrwt>0</asrwt>
<pdfrwt beam="1">  1        1 0.25448412E+00 0.23076535E+04</pdfrwt>
<pdfrwt beam="2">  1       -1 0.12382085E+00 0.23076535E+04</pdfrwt>
<totfact> 0.26512489E+00</totfact>
</mgrwt>
</event>
<event>
 6    1  0.1039630E-006  0.2105845E+04  0.7818608E-02  0.8558673E-01
         -1   -1    0    0    0  501 -0.00000000000E+00  0.00000000000E+00  0.10954209358E+04  0.10954209358E+04  0.00000000000E+00 0.  1.
          1   -1    0    0  501    0  0.00000000000E+00 -0.00000000000E+00 -0.10120725218E+04  0.10120725218E+04  0.00000000000E+00 0. -1.
         23    2    1    2    0    0  0.90587039216E+03  0.53294042483E+03  0.42844221537E+02  0.10557010572E+04  0.89679602038E+02 0.  0.
         13    1    3    3    0    0  0.55547337649E+03  0.29325363981E+03  0.58737437144E+02  0.63087118794E+03  0.00000000000E+00 0. -1.
        -13    1    3    3    0    0  0.35039701566E+03  0.23968678502E+03 -0.15893215607E+02  0.42482986924E+03  0.00000000000E+00 0.  1.
         22    1    1    2    0    0 -0.90587039216E+03 -0.53294042483E+03  0.40504192472E+02  0.10517924003E+04  0.00000000000E+00 0.  1.
<mgrwt>
<rscale>  0 0.21058447E+04</rscale>
<asrwt>0</asrwt>
<pdfrwt beam="1">  1        1 0.15570346E+00 0.21058447E+04</pdfrwt>
<pdfrwt beam="2">  1       -1 0.16852630E+00 0.21058447E+04</pdfrwt>
<totfact> 0.34339020E+00</totfact>
</mgrwt>
</event>
<event>
 6    1  0.8968082E-007  0.6855012E+03  0.7818608E-02  0.9742353E-01
         -1   -1    0    0    0  501 -0.00000000000E+00  0.00000000000E+00  0.19182537310E+03  0.19182537310E+03  0.00000000000E+00 0.  1.
          1   -1    0    0  501    0  0.00000000000E+00 -0.00000000000E+00 -0.61242146036E+03  0.61242146036E+03  0.00000000000E+00 0. -1.
         23    2    1    2    0    0  0.30771287444E+03  0.53020638599E+02 -0.36167723327E+03  0.48648932754E+03  0.91449677576E+02 0.  0.
         13    1    3    3    0    0  0.19781953571E+03  0.57703222389E+02 -0.17752054431E+03  0.27198487868E+03  0.00000000000E+00 0.  1.
        -13    1    3    3    0    0  0.10989333874E+03 -0.46825837899E+01 -0.18415668896E+03  0.21450444886E+03  0.00000000000E+00 0. -1.
         22    1    1    2    0    0 -0.30771287444E+03 -0.53020638599E+02 -0.58918853981E+02  0.31775750592E+03  0.00000000000E+00 0.  1.
<mgrwt>
<rscale>  0 0.68550120E+03</rscale>
<asrwt>0</asrwt>
<pdfrwt beam="1">  1        1 0.94218685E-01 0.68550120E+03</pdfrwt>
<pdfrwt beam="2">  1       -1 0.29511596E-01 0.68550120E+03</pdfrwt>
<totfact> 0.35310880E+02</totfact>
</mgrwt>
</event>
<event>
 6    1  0.1010021E-006  0.2136574E+04  0.7818608E-02  0.8545301E-01
          1   -1    0    0  501    0  0.00000000000E+00  0.00000000000E+00  0.14934729929E+04  0.14934729929E+04  0.00000000000E+00 0. -1.
         -1   -1    0    0    0  501 -0.00000000000E+00 -0.00000000000E+00 -0.76414966501E+03  0.76414966501E+03  0.00000000000E+00 0.  1.
         23    2    1    2    0    0  0.56616839399E+03 -0.13187977490E+02 -0.58933180470E+03  0.82250178083E+03  0.92068617532E+02 0.  0.
         13    1    3    3    0    0  0.31410169262E+03 -0.24750468735E+02 -0.38718224806E+03  0.49918188291E+03  0.00000000000E+00 0. -1.
        -13    1    3    3    0    0  0.25206670137E+03  0.11562491245E+02 -0.20214955664E+03  0.32331989792E+03  0.00000000000E+00 0.  1.
         22    1    1    2    0    0 -0.56616839399E+03  0.13187977490E+02  0.13186551326E+04  0.14351208771E+04  0.00000000000E+00 0. -1.
<mgrwt>
<rscale>  0 0.21365738E+04</rscale>
<asrwt>0</asrwt>
<pdfrwt beam="1">  1        1 0.22976507E+00 0.21365738E+04</pdfrwt>
<pdfrwt beam="2">  1       -1 0.11756149E+00 0.21365738E+04</pdfrwt>
<totfact> 0.39443842E+00</totfact>
</mgrwt>
</event>
<event>
 6    1  0.8968082E-007  0.1819298E+04  0.7818608E-02  0.8696104E-01
          2   -1    0    0  501    0  0.00000000000E+00  0.00000000000E+00  0.32441764797E+04  0.32441764797E+04  0.00000000000E+00 0. -1.
         -2   -1    0    0    0  501 -0.00000000000E+00 -0.00000000000E+00 -0.25506042880E+03  0.25506042880E+03  0.00000000000E+00 0.  1.
         23    2    1    2    0    0  0.26132284429E+03  0.77548105410E+03  0.74582632399E+03  0.11113488682E+04  0.95806612846E+02 0.  0.
         13    1    3    3    0    0  0.32157948105E+02  0.17510616801E+03  0.20423559276E+03  0.27093999530E+03  0.00000000000E+00 0. -1.
        -13    1    3    3    0    0  0.22916489619E+03  0.60037488609E+03  0.54159073123E+03  0.84040887290E+03  0.00000000000E+00 0.  1.
         22    1    1    2    0    0 -0.26132284429E+03 -0.77548105410E+03  0.22432897270E+04  0.23878880404E+04  0.00000000000E+00 0.  1.
<mgrwt>
<rscale>  0 0.18192977E+04</rscale>
<asrwt>0</asrwt>
<pdfrwt beam="1">  1        2 0.49910405E+00 0.18192977E+04</pdfrwt>
<pdfrwt beam="2">  1       -2 0.39240068E-01 0.18192977E+04</pdfrwt>
<totfact> 0.70601776E+00</totfact>
</mgrwt>
</event>
<event>
 6    1  0.8968082E-007  0.1910251E+04  0.7818608E-02  0.8649770E-01
          2   -1    0    0  501    0  0.00000000000E+00  0.00000000000E+00  0.11666795549E+04  0.11666795549E+04  0.00000000000E+00 0. -1.
         -2   -1    0    0    0  501 -0.00000000000E+00 -0.00000000000E+00 -0.78193289500E+03  0.78193289500E+03  0.00000000000E+00 0.  1.
         23    2    1    2    0    0 -0.59472483298E+02  0.82312961116E+03  0.67899222453E+03  0.10724504870E+04  0.89667569636E+02 0.  0.
         13    1    3    3    0    0  0.11239754497E+02  0.28792552490E+03  0.27341994466E+03  0.39722274117E+03  0.00000000000E+00 0.  1.
        -13    1    3    3    0    0 -0.70712237795E+02  0.53520408626E+03  0.40557227987E+03  0.67522774582E+03  0.00000000000E+00 0. -1.
         22    1    1    2    0    0  0.59472483298E+02 -0.82312961116E+03 -0.29424556458E+03  0.87616196295E+03  0.00000000000E+00 0.  1.
<mgrwt>
<rscale>  0 0.19102514E+04</rscale>
<asrwt>0</asrwt>
<pdfrwt beam="1">  1        2 0.17948916E+00 0.19102514E+04</pdfrwt>
<pdfrwt beam="2">  1       -2 0.12029737E+00 0.19102514E+04</pdfrwt>
<totfact> 0.97972976E+00</totfact>
</mgrwt>
</event>
<event>
 6    1  0.8968082E-007  0.8635479E+03  0.7818608E-02  0.9472332E-01
          2   -1    0    0  501    0  0.00000000000E+00  0.00000000000E+00  0.16854118855E+04  0.16854118855E+04  0.00000000000E+00 0. -1.
         -2   -1    0    0    0  501 -0.00000000000E+00 -0.00000000000E+00 -0.11061316751E+03  0.11061316751E+03  0.00000000000E+00 0.  1.
         23    2    1    2    0    0 -0.22301641602E+03  0.22843467920E+03  0.20541165726E+03  0.38991707474E+03  0.89009279066E+02 0.  0.
         11    1    3    3    0    0 -0.79884270093E+02  0.14545567615E+03  0.10027888957E+03  0.19389354302E+03  0.00000000000E+00 0. -1.
        -11    1    3    3    0    0 -0.14313214593E+03  0.82979003050E+02  0.10513276769E+03  0.19602353172E+03  0.00000000000E+00 0.  1.
         22    1    1    2    0    0  0.22301641602E+03 -0.22843467920E+03  0.13693870607E+04  0.14061079782E+04  0.00000000000E+00 0. -1.
<mgrwt>
<rscale>  0 0.86354791E+03</rscale>
<asrwt>0</asrwt>
<pdfrwt beam="1">  1        2 0.25929412E+00 0.86354791E+03</pdfrwt>
<pdfrwt beam="2">  1       -2 0.17017412E-01 0.86354791E+03</pdfrwt>
<totfact> 0.28477085E+02</totfact>
</mgrwt>
</event>
<event>
 6    1  0.8968082E-007  0.1992095E+04  0.7818608E-02  0.8610325E-01
          3   -1    0    0  501    0  0.00000000000E+00  0.00000000000E+00  0.21543106062E+04  0.21543106062E+04  0.00000000000E+00 0. -1.
         -3   -1    0    0    0  501 -0.00000000000E+00 -0.00000000000E+00 -0.46052364725E+03  0.46052364725E+03  0.00000000000E+00 0.  1.
         23    2    1    2    0    0  0.88495950735E+03  0.62265743761E+02  0.26043214888E+03  0.92914852828E+03  0.91987667303E+02 0.  0.
         11    1    3    3    0    0  0.37631038354E+03  0.68218287711E+02  0.92622301338E+02  0.39349984783E+03  0.00000000000E+00 0.  1.
        -11    1    3    3    0    0  0.50864912381E+03 -0.59525439496E+01  0.16780984754E+03  0.53564868045E+03  0.00000000000E+00 0. -1.
         22    1    1    2    0    0 -0.88495950735E+03 -0.62265743761E+02  0.14333548100E+04  0.16856857251E+04  0.00000000000E+00 0. -1.
<mgrwt>
<rscale>  0 0.19920954E+04</rscale>
<asrwt>0</asrwt>
<pdfrwt beam="1">  1        3 0.33143240E+00 0.19920954E+04</pdfrwt>
<pdfrwt beam="2">  1       -3 0.70849793E-01 0.19920954E+04</pdfrwt>
<totfact> 0.12036858E-01</totfact>
</mgrwt>
</event>
<event>
 6    1  0.8968082E-007  0.1516715E+03  0.7818608E-02  0.1198434E+00
         -2   -1    0    0    0  501 -0.00000000000E+00  0.00000000000E+00  0.15310373642E+02  0.15310373642E+02  0.00000000000E+00 0.  1.
          2   -1    0    0  501    0  0.00000000000E+00 -0.00000000000E+00 -0.37563185369E+03  0.37563185369E+03  0.00000000000E+00 0. -1.
         23    2    1    2    0    0 -0.40786849602E+02 -0.93588446144E+01 -0.18066277148E+03  0.20647432595E+03  0.90782460906E+02 0.  0.
         13    1    3    3    0    0 -0.20689560229E+02  0.11176696736E+01  0.34213290952E+01  0.21000299539E+02  0.00000000000E+00 0.  1.
        -13    1    3    3    0    0 -0.20097289373E+02 -0.10476514288E+02 -0.18408410057E+03  0.18547402642E+03  0.00000000000E+00 0. -1.
         22    1    1    2    0    0  0.40786849602E+02  0.93588446144E+01 -0.17965870857E+03  0.18446790137E+03  0.00000000000E+00 0.  1.
<mgrwt>
<rscale>  0 0.15167154E+03</rscale>
<asrwt>0</asrwt>
<pdfrwt beam="1">  1        2 0.57789514E-01 0.15167154E+03</pdfrwt>
<pdfrwt beam="2">  1       -2 0.23554422E-02 0.15167154E+03</pdfrwt>
<totfact> 0.48526535E+04</totfact>
</mgrwt>
</event>
<event>
 6    1  0.8968082E-007  0.2320156E+04  0.7818608E-02  0.8470016E-01
         -1   -1    0    0    0  501 -0.00000000000E+00  0.00000000000E+00  0.75243836765E+03  0.75243836765E+03  0.00000000000E+00 0.  1.
          1   -1    0    0  501    0  0.00000000000E+00 -0.00000000000E+00 -0.17885602851E+04  0.17885602851E+04  0.00000000000E+00 0. -1.
         23    2    1    2    0    0  0.90545125940E+03  0.49247549983E+03 -0.10972668732E+04  0.15084712649E+04  0.95482276226E+02 0.  0.
         13    1    3    3    0    0  0.45200502991E+03  0.23984163675E+03 -0.61388405744E+03  0.79917844926E+03  0.00000000000E+00 0.  1.
        -13    1    3    3    0    0  0.45344622949E+03  0.25263386309E+03 -0.48338281573E+03  0.70929281567E+03  0.00000000000E+00 0. -1.
         22    1    1    2    0    0 -0.90545125940E+03 -0.49247549983E+03  0.61144955685E+02  0.10325273879E+04  0.00000000000E+00 0.  1.
<mgrwt>
<rscale>  0 0.23201564E+04</rscale>
<asrwt>0</asrwt>
<pdfrwt beam="1">  1        1 0.27516312E+00 0.23201564E+04</pdfrwt>
<pdfrwt beam="2">  1       -1 0.11575975E+00 0.23201564E+04</pdfrwt>
<totfact> 0.25282336E+00</totfact>
</mgrwt>
</event>
<event>
 6    1  0.8968082E-007  0.2291442E+04  0.7818608E-02  0.8481303E-01
         -2   -1    0    0    0  501 -0.00000000000E+00  0.00000000000E+00  0.16381365256E+04  0.16381365256E+04  0.00000000000E+00 0.  1.
          2   -1    0    0  501    0  0.00000000000E+00 -0.00000000000E+00 -0.80132290322E+03  0.80132290322E+03  0.00000000000E+00 0. -1.
         23    2    1    2    0    0  0.48764099529E+03 -0.95946621800E+03  0.83115790709E+03  0.13631689704E+04  0.95063197810E+02 0.  0.
         13    1    3    3    0    0  0.34853831000E+03 -0.69599591170E+03  0.54627329473E+03  0.95094888147E+03  0.00000000000E+00 0. -1.
        -13    1    3    3    0    0  0.13910268529E+03 -0.26347030630E+03  0.28488461236E+03  0.41222008893E+03  0.00000000000E+00 0.  1.
         22    1    1    2    0    0 -0.48764099529E+03  0.95946621800E+03  0.56557153008E+01  0.10762904584E+04  0.00000000000E+00 0. -1.
<mgrwt>
<rscale>  0 0.22914417E+04</rscale>
<asrwt>0</asrwt>
<pdfrwt beam="1">  1        2 0.12328045E+00 0.22914417E+04</pdfrwt>
<pdfrwt beam="2">  1       -2 0.25202100E+00 0.22914417E+04</pdfrwt>
<totfact> 0.19469556E+00</totfact>
</mgrwt>
</event>
<event>
 6    1  0.8968082E-007  0.1828763E+04  0.7818608E-02  0.8691151E-01
          2   -1    0    0  501    0  0.00000000000E+00  0.00000000000E+00  0.98630240285E+03  0.98630240285E+03  0.00000000000E+00 0. -1.
         -2   -1    0    0    0  501 -0.00000000000E+00 -0.00000000000E+00 -0.84770500304E+03  0.84770500304E+03  0.00000000000E+00 0.  1.
         23    2    1    2    0    0 -0.35213897972E+03  0.64526931209E+03 -0.47201145656E+03  0.87838325297E+03  0.91585903978E+02 0.  0.
         11    1    3    3    0    0 -0.13738209588E+03  0.21166787357E+03 -0.20897337965E+03  0.32763852395E+03  0.00000000000E+00 0. -1.
        -11    1    3    3    0    0 -0.21475688385E+03  0.43360143852E+03 -0.26303807691E+03  0.55074472902E+03  0.00000000000E+00 0.  1.
         22    1    1    2    0    0  0.35213897972E+03 -0.64526931209E+03  0.61060885637E+03  0.95562415292E+03  0.00000000000E+00 0. -1.
<mgrwt>
<rscale>  0 0.18287629E+04</rscale>
<asrwt>0</asrwt>
<pdfrwt beam="1">  1        2 0.15173883E+00 0.18287629E+04</pdfrwt>
<pdfrwt beam="2">  1       -2 0.13041615E+00 0.18287629E+04</pdfrwt>
<totfact> 0.10430871E+01</totfact>
</mgrwt>
</event>
<event>
 6    1  0.8968082E-007  0.1324070E+04  0.7818608E-02  0.9010692E-01
         -1   -1    0    0    0  501 -0.00000000000E+00  0.00000000000E+00  0.74959420276E+03  0.74959420276E+03  0.00000000000E+00 0.  1.
          1   -1    0    0  501    0  0.00000000000E+00 -0.00000000000E+00 -0.58470390812E+03  0.58470390812E+03  0.00000000000E+00 0. -1.
         23    2    1    2    0    0  0.30825421464E+03 -0.27373542199E+03 -0.43518784694E+03  0.60625586067E+03  0.90586778158E+02 0.  0.
         13    1    3    3    0    0  0.25164465181E+02 -0.57708616237E+02 -0.93645494458E+02  0.11284065459E+03  0.00000000000E+00 0. -1.
        -13    1    3    3    0    0  0.28308974946E+03 -0.21602680575E+03 -0.34154235248E+03  0.49341520608E+03  0.00000000000E+00 0.  1.
         22    1    1    2    0    0 -0.30825421464E+03  0.27373542199E+03  0.60007814157E+03  0.72804225021E+03  0.00000000000E+00 0.  1.
<mgrwt>
<rscale>  0 0.13240705E+04</rscale>
<asrwt>0</asrwt>
<pdfrwt beam="1">  1        1 0.89954448E-01 0.13240705E+04</pdfrwt>
<pdfrwt beam="2">  1       -1 0.11532218E+00 0.13240705E+04</pdfrwt>
<totfact> 0.23780950E+01</totfact>
</mgrwt>
</event>
<event>
 6    1  0.8968082E-007  0.1931252E+04  0.7818608E-02  0.8639455E-01
          1   -1    0    0  501    0  0.00000000000E+00  0.00000000000E+00  0.68842848619E+03  0.68842848619E+03  0.00000000000E+00 0. -1.
         -1   -1    0    0    0  501 -0.00000000000E+00 -0.00000000000E+00 -0.13544383881E+04  0.13544383881E+04  0.00000000000E+00 0.  1.
         23    2    1    2    0    0  0.81985065345E+03 -0.28107709422E+03  0.11151005346E+03  0.87852297842E+03  0.90601902425E+02 0.  0.
         13    1    3    3    0    0  0.72188602920E+03 -0.22649585915E+03  0.12007247745E+03  0.76605300940E+03  0.00000000000E+00 0.  1.
        -13    1    3    3    0    0  0.97964624249E+02 -0.54581235066E+02 -0.85624239925E+01  0.11246996901E+03  0.00000000000E+00 0. -1.
         22    1    1    2    0    0 -0.81985065345E+03  0.28107709422E+03 -0.77751995536E+03  0.11643438959E+04  0.00000000000E+00 0.  1.
<mgrwt>
<rscale>  0 0.19312524E+04</rscale>
<asrwt>0</asrwt>
<pdfrwt beam="1">  1        1 0.10591207E+00 0.19312524E+04</pdfrwt>
<pdfrwt beam="2">  1       -1 0.20837514E+00 0.19312524E+04</pdfrwt>
<totfact> 0.34378772E+00</totfact>
</mgrwt>
</event>
<event>
 6    1  0.8968082E-007  0.1991212E+04  0.7818608E-02  0.8610740E-01
          2   -1    0    0  501    0  0.00000000000E+00  0.00000000000E+00  0.18735276703E+04  0.18735276703E+04  0.00000000000E+00 0. -1.
         -2   -1    0    0    0  501 -0.00000000000E+00 -0.00000000000E+00 -0.52907233945E+03  0.52907233945E+03  0.00000000000E+00 0.  1.
         23    2    1    2    0    0  0.60675577654E+03 -0.66104025752E+03  0.15899212084E+03  0.91584185298E+03  0.91438562783E+02 0.  0.
         11    1    3    3    0    0  0.28069080049E+03 -0.36472884893E+03  0.58484835611E+02  0.46393419223E+03  0.00000000000E+00 0. -1.
        -11    1    3    3    0    0  0.32606497605E+03 -0.29631140859E+03  0.10050728523E+03  0.45190766075E+03  0.00000000000E+00 0.  1.
         22    1    1    2    0    0 -0.60675577654E+03  0.66104025752E+03  0.11854632100E+04  0.14867581568E+04  0.00000000000E+00 0. -1.
<mgrwt>
<rscale>  0 0.19912124E+04</rscale>
<asrwt>0</asrwt>
<pdfrwt beam="1">  1        2 0.28823502E+00 0.19912124E+04</pdfrwt>
<pdfrwt beam="2">  1       -2 0.81395745E-01 0.19912124E+04</pdfrwt>
<totfact> 0.97076172E+00</totfact>
</mgrwt>
</event>
<event>
 6    1  0.8968082E-007  0.3202451E+04  0.7818608E-02  0.8188170E-01
          2   -1    0    0  501    0  0.00000000000E+00  0.00000000000E+00  0.15122545567E+04  0.15122545567E+04  0.00000000000E+00 0. -1.
         -2   -1    0    0    0  501 -0.00000000000E+00 -0.00000000000E+00 -0.16954310189E+04  0.16954310189E+04  0.00000000000E+00 0.  1.
         23    2    1    2    0    0 -0.10354457720E+04 -0.32070974647E+03 -0.12703279276E+04  0.16724653969E+04  0.91677542900E+02 0.  0.
         11    1    3    3    0    0 -0.28954496932E+03 -0.84405338942E+02 -0.29266019105E+03  0.42025056564E+03  0.00000000000E+00 0.  1.
        -11    1    3    3    0    0 -0.74590080265E+03 -0.23630440753E+03 -0.97766773660E+03  0.12522148313E+04  0.00000000000E+00 0. -1.
         22    1    1    2    0    0  0.10354457720E+04  0.32070974647E+03  0.10871514654E+04  0.15352201787E+04  0.00000000000E+00 0. -1.
<mgrwt>
<rscale>  0 0.32024511E+04</rscale>
<asrwt>0</asrwt>
<pdfrwt beam="1">  1        2 0.23265455E+00 0.32024511E+04</pdfrwt>
<pdfrwt beam="2">  1       -2 0.26083554E+00 0.32024511E+04</pdfrwt>
<totfact> 0.57995455E-01</totfact>
</mgrwt>
</event>
<event>
 6    1  0.1214952E-006  0.2968544E+04  0.7818608E-02  0.8252771E-01
         -2   -1    0    0    0  501 -0.00000000000E+00  0.00000000000E+00  0.12436246442E+04  0.12436246442E+04  0.00000000000E+00 0.  1.
          2   -1    0    0  501    0  0.00000000000E+00 -0.00000000000E+00 -0.17714858773E+04  0.17714858773E+04  0.00000000000E+00 0. -1.
         23    2    1    2    0    0 -0.10204747364E+04 -0.10611421210E+04 -0.44430343677E+03  0.15405349237E+04  0.91929421951E+02 0.  0.
         11    1    3    3    0    0 -0.50193443954E+03 -0.58735907781E+03 -0.24022323376E+03  0.80909583482E+03  0.00000000000E+00 0. -1.
        -11    1    3    3    0    0 -0.51854029685E+03 -0.47378304317E+03 -0.20408020301E+03  0.73143908886E+03  0.00000000000E+00 0.  1.
         22    1    1    2    0    0  0.10204747364E+04  0.10611421210E+04 -0.83557796292E+02  0.14745755979E+04  0.00000000000E+00 0.  1.
<mgrwt>
<rscale>  0 0.29685441E+04</rscale>
<asrwt>0</asrwt>
<pdfrwt beam="1">  1        2 0.27253629E+00 0.29685441E+04</pdfrwt>
<pdfrwt beam="2">  1       -2 0.19132687E+00 0.29685441E+04</pdfrwt>
<totfact> 0.11664862E+00</totfact>
</mgrwt>
</event>
<event>
 6    1  0.8968082E-007  0.9708385E+03  0.7818608E-02  0.9341120E-01
         -1   -1    0    0    0  501 -0.00000000000E+00  0.00000000000E+00  0.30277923030E+03  0.30277923030E+03  0.00000000000E+00 0.  1.
          1   -1    0    0  501    0  0.00000000000E+00 -0.00000000000E+00 -0.77822985510E+03  0.77822985510E+03  0.00000000000E+00 0. -1.
         23    2    1    2    0    0  0.26940423656E+02  0.13011012831E+03 -0.75470061080E+03  0.77176001653E+03  0.91575538581E+02 0.  0.
         11    1    3    3    0    0  0.21399336907E+02 -0.29617213958E+01 -0.20585360078E+03  0.20698407757E+03  0.00000000000E+00 0. -1.
        -11    1    3    3    0    0  0.55410867487E+01  0.13307184971E+03 -0.54884701002E+03  0.56477593896E+03  0.00000000000E+00 0.  1.
         22    1    1    2    0    0 -0.26940423656E+02 -0.13011012831E+03  0.27924998599E+03  0.30924906886E+03  0.00000000000E+00 0.  1.
<mgrwt>
<rscale>  0 0.97083848E+03</rscale>
<asrwt>0</asrwt>
<pdfrwt beam="1">  1        1 0.11972767E+00 0.97083848E+03</pdfrwt>
<pdfrwt beam="2">  1       -1 0.46581420E-01 0.97083848E+03</pdfrwt>
<totfact> 0.10645471E+02</totfact>
</mgrwt>
</event>
<event>
 6    1  0.8968082E-007  0.1386619E+04  0.7818608E-02  0.8963562E-01
          3   -1    0    0  501    0  0.00000000000E+00  0.00000000000E+00  0.11703615907E+04  0.11703615907E+04  0.00000000000E+00 0. -1.
         -3   -1    0    0    0  501 -0.00000000000E+00 -0.00000000000E+00 -0.41070885127E+03  0.41070885127E+03  0.00000000000E+00 0.  1.
         23    2    1    2    0    0  0.62777980772E+03 -0.16385745696E+03  0.65018936060E+03  0.92308945101E+03  0.91603366502E+02 0.  0.
         11    1    3    3    0    0  0.52976727958E+03 -0.11114408247E+03  0.56890742409E+03  0.78527831675E+03  0.00000000000E+00 0.  1.
        -11    1    3    3    0    0  0.98012528144E+02 -0.52713374491E+02  0.81281936501E+02  0.13781113426E+03  0.00000000000E+00 0. -1.
         22    1    1    2    0    0 -0.62777980772E+03  0.16385745696E+03  0.10946337886E+03  0.65798099098E+03  0.00000000000E+00 0.  1.
<mgrwt>
<rscale>  0 0.13866187E+04</rscale>
<asrwt>0</asrwt>
<pdfrwt beam="1">  1        3 0.18005563E+00 0.13866187E+04</pdfrwt>
<pdfrwt beam="2">  1       -3 0.63185978E-01 0.13866187E+04</pdfrwt>
<totfact> 0.12325869E+00</totfact>
</mgrwt>
</event>
<event>
 6    1  0.8968082E-007  0.2823037E+04  0.7818608E-02  0.8296152E-01
         -1   -1    0    0    0  501 -0.00000000000E+00  0.00000000000E+00  0.12887401208E+04  0.12887401208E+04  0.00000000000E+00 0.  1.
          1   -1    0    0  501    0  0.00000000000E+00 -0.00000000000E+00 -0.15459937565E+04  0.15459937565E+04  0.00000000000E+00 0. -1.
         23    2    1    2    0    0 -0.10029000766E+04 -0.98386513299E+03 -0.70754434645E+01  0.14077131026E+04  0.88356967570E+02 0.  0.
         11    1    3    3    0    0 -0.48843146890E+02 -0.75672446372E+02  0.79711428352E+01  0.90418533809E+02  0.00000000000E+00 0.  1.
        -11    1    3    3    0    0 -0.95405692974E+03 -0.90819268662E+03 -0.15046586300E+02  0.13172945688E+04  0.00000000000E+00 0. -1.
         22    1    1    2    0    0  0.10029000766E+04  0.98386513299E+03 -0.25017819225E+03  0.14270207747E+04  0.00000000000E+00 0. -1.
<mgrwt>
<rscale>  0 0.28230368E+04</rscale>
<asrwt>0</asrwt>
<pdfrwt beam="1">  1        1 0.23784519E+00 0.28230368E+04</pdfrwt>
<pdfrwt beam="2">  1       -1 0.19826771E+00 0.28230368E+04</pdfrwt>
<totfact> 0.81269198E-01</totfact>
</mgrwt>
</event>
<event>
 6    1  0.8968082E-007  0.1324188E+04  0.7818608E-02  0.9010601E-01
          2   -1    0    0  501    0  0.00000000000E+00  0.00000000000E+00  0.25307878090E+04  0.25307878090E+04  0.00000000000E+00 0. -1.
         -2   -1    0    0    0  501 -0.00000000000E+00 -0.00000000000E+00 -0.17321425073E+03  0.17321425073E+03  0.00000000000E+00 0.  1.
         23    2    1    2    0    0  0.31119030137E+03  0.39154420561E+03  0.20601952790E+04  0.21221256901E+04  0.94162562234E+02 0.  0.
         11    1    3    3    0    0  0.19690842964E+03  0.31369967293E+03  0.15308770497E+04  0.15750444297E+04  0.00000000000E+00 0.  1.
        -11    1    3    3    0    0  0.11428187172E+03  0.77844532686E+02  0.52931822937E+03  0.54708126035E+03  0.00000000000E+00 0. -1.
         22    1    1    2    0    0 -0.31119030137E+03 -0.39154420561E+03  0.29737827925E+03  0.58187636967E+03  0.00000000000E+00 0.  1.
<mgrwt>
<rscale>  0 0.13241881E+04</rscale>
<asrwt>0</asrwt>
<pdfrwt beam="1">  1        2 0.38935194E+00 0.13241881E+04</pdfrwt>
<pdfrwt beam="2">  1       -2 0.26648348E-01 0.13241881E+04</pdfrwt>
<totfact> 0.41940035E+01</totfact>
</mgrwt>
</event>
<event>
 6    1  0.8968082E-007  0.6927437E+03  0.7818608E-02  0.9729723E-01
          2   -1    0    0  501    0  0.00000000000E+00  0.00000000000E+00  0.86890538431E+03  0.86890538431E+03  0.00000000000E+00 0. -1.
         -2   -1    0    0    0  501 -0.00000000000E+00 -0.00000000000E+00 -0.13807424217E+03  0.13807424217E+03  0.00000000000E+00 0.  1.
         23    2    1    2    0    0 -0.17270801122E+02 -0.31363428005E+03  0.18320931614E+03  0.37566797087E+03  0.94318760706E+02 0.  0.
         13    1    3    3    0    0  0.84695376329E+01 -0.29239323263E+03  0.15059597832E+03  0.32900559911E+03  0.00000000000E+00 0. -1.
        -13    1    3    3    0    0 -0.25740338755E+02 -0.21241047415E+02  0.32613337815E+02  0.46662371757E+02  0.00000000000E+00 0.  1.
         22    1    1    2    0    0  0.17270801122E+02  0.31363428005E+03  0.54762182600E+03  0.63131165561E+03  0.00000000000E+00 0.  1.
<mgrwt>
<rscale>  0 0.69274368E+03</rscale>
<asrwt>0</asrwt>
<pdfrwt beam="1">  1        2 0.13367775E+00 0.69274368E+03</pdfrwt>
<pdfrwt beam="2">  1       -2 0.21242192E-01 0.69274368E+03</pdfrwt>
<totfact> 0.59453518E+02</totfact>
</mgrwt>
</event>
<event>
 6    1  0.8968082E-007  0.1992587E+04  0.7818608E-02  0.8610094E-01
         -1   -1    0    0    0  501 -0.00000000000E+00  0.00000000000E+00  0.64332005554E+03  0.64332005554E+03  0.00000000000E+00 0.  1.
          1   -1    0    0  501    0  0.00000000000E+00 -0.00000000000E+00 -0.15429340526E+04  0.15429340526E+04  0.00000000000E+00 0. -1.
         23    2    1    2    0    0 -0.84930043544E+03  0.49533913516E+03 -0.61425257647E+03  0.11624849795E+04  0.85982622098E+02 0.  0.
         11    1    3    3    0    0 -0.63080870427E+03  0.41020773307E+03 -0.46878863350E+03  0.88653978397E+03  0.00000000000E+00 0.  1.
        -11    1    3    3    0    0 -0.21849173116E+03  0.85131402095E+02 -0.14546394296E+03  0.27594519549E+03  0.00000000000E+00 0. -1.
         22    1    1    2    0    0  0.84930043544E+03 -0.49533913516E+03 -0.28536142057E+03  0.10237691287E+04  0.00000000000E+00 0.  1.
<mgrwt>
<rscale>  0 0.19925867E+04</rscale>
<asrwt>0</asrwt>
<pdfrwt beam="1">  1        1 0.23737447E+00 0.19925867E+04</pdfrwt>
<pdfrwt beam="2">  1       -1 0.98972318E-01 0.19925867E+04</pdfrwt>
<totfact> 0.55335287E+00</totfact>
</mgrwt>
</event>
<event>
 6    1  0.8968082E-007  0.2601675E+04  0.7818608E-02  0.8367632E-01
         -2   -1    0    0    0  501 -0.00000000000E+00  0.00000000000E+00  0.46045655714E+03  0.46045655714E+03  0.00000000000E+00 0.  1.
          2   -1    0    0  501    0  0.00000000000E+00 -0.00000000000E+00 -0.36750019408E+04  0.36750019408E+04  0.00000000000E+00 0. -1.
         23    2    1    2    0    0  0.61636579601E+03 -0.60316991094E+02 -0.34247066429E+04  0.34814610295E+04  0.91708101778E+02 0.  0.
         11    1    3    3    0    0  0.53808286463E+03 -0.23920193274E+02 -0.30191093271E+04  0.30667778651E+04  0.00000000000E+00 0. -1.
        -11    1    3    3    0    0  0.78282931376E+02 -0.36396797820E+02 -0.40559731581E+03  0.41468316439E+03  0.00000000000E+00 0.  1.
         22    1    1    2    0    0 -0.61636579601E+03  0.60316991094E+02  0.21016125922E+03  0.65399746849E+03  0.00000000000E+00 0.  1.
<mgrwt>
<rscale>  0 0.26016754E+04</rscale>
<asrwt>0</asrwt>
<pdfrwt beam="1">  1        2 0.56538494E+00 0.26016754E+04</pdfrwt>
<pdfrwt beam="2">  1       -2 0.70839468E-01 0.26016754E+04</pdfrwt>
<totfact> 0.97659595E-01</totfact>
</mgrwt>
</event>
<event>
 6    1  0.8968082E-007  0.3219340E+04  0.7818608E-02  0.8183728E-01
         -2   -1    0    0    0  501 -0.00000000000E+00  0.00000000000E+00  0.91589481489E+03  0.91589481489E+03  0.00000000000E+00 0.  1.
          2   -1    0    0  501    0  0.00000000000E+00 -0.00000000000E+00 -0.28289677216E+04  0.28289677216E+04  0.00000000000E+00 0. -1.
         23    2    1    2    0    0 -0.14484034606E+04  0.29924214694E+03 -0.22206809864E+03  0.14983283818E+04  0.90858418712E+02 0.  0.
         11    1    3    3    0    0 -0.75134975147E+03  0.15240689180E+03 -0.16091576523E+03  0.78335700239E+03  0.00000000000E+00 0. -1.
        -11    1    3    3    0    0 -0.69705370910E+03  0.14683525515E+03 -0.61152333415E+02  0.71497137944E+03  0.00000000000E+00 0.  1.
         22    1    1    2    0    0  0.14484034606E+04 -0.29924214694E+03 -0.16910048080E+04  0.22465341546E+04  0.00000000000E+00 0.  1.
<mgrwt>
<rscale>  0 0.32193396E+04</rscale>
<asrwt>0</asrwt>
<pdfrwt beam="1">  1        2 0.43522579E+00 0.32193396E+04</pdfrwt>
<pdfrwt beam="2">  1       -2 0.14090690E+00 0.32193396E+04</pdfrwt>
<totfact> 0.65901496E-01</totfact>
</mgrwt>
</event>
<event>
 6    1  0.8968082E-007  0.2113042E+04  0.7818608E-02  0.8555520E-01
         -2   -1    0    0    0  501 -0.00000000000E+00  0.00000000000E+00  0.11047088312E+04  0.11047088312E+04  0.00000000000E+00 0.  1.
          2   -1    0    0  501    0  0.00000000000E+00 -0.00000000000E+00 -0.10104351048E+04  0.10104351048E+04  0.00000000000E+00 0. -1.
         23    2    1    2    0    0  0.70706720171E+03  0.77181352677E+02 -0.73210852647E+03  0.10248189310E+04  0.91487473384E+02 0.  0.
         13    1    3    3    0    0  0.62798394291E+03  0.93470080407E+02 -0.66923311816E+03  0.92248222472E+03  0.00000000000E+00 0. -1.
        -13    1    3    3    0    0  0.79083258796E+02 -0.16288727731E+02 -0.62875408312E+02  0.10233670624E+03  0.00000000000E+00 0.  1.
         22    1    1    2    0    0 -0.70706720171E+03 -0.77181352677E+02  0.82638225282E+03  0.10903250051E+04  0.00000000000E+00 0.  1.
<mgrwt>
<rscale>  0 0.21130420E+04</rscale>
<asrwt>0</asrwt>
<pdfrwt beam="1">  1        2 0.15545155E+00 0.21130420E+04</pdfrwt>
<pdfrwt beam="2">  1       -2 0.16995520E+00 0.21130420E+04</pdfrwt>
<totfact> 0.48691552E+00</totfact>
</mgrwt>
</event>
<event>
 6    1  0.8968082E-007  0.3271627E+04  0.7818608E-02  0.8170153E-01
          2   -1    0    0  501    0  0.00000000000E+00  0.00000000000E+00  0.13206167479E+04  0.13206167479E+04  0.00000000000E+00 0. -1.
         -2   -1    0    0    0  501 -0.00000000000E+00 -0.00000000000E+00 -0.20262388829E+04  0.20262388829E+04  0.00000000000E+00 0.  1.
         23    2    1    2    0    0 -0.70289220969E+03 -0.14157049838E+04 -0.77915819279E+03  0.17645517373E+04  0.90979582745E+02 0.  0.
         11    1    3    3    0    0 -0.38742113391E+03 -0.85827075978E+03 -0.43226090892E+03  0.10361338357E+04  0.00000000000E+00 0.  1.
        -11    1    3    3    0    0 -0.31547107578E+03 -0.55743422402E+03 -0.34689728388E+03  0.72841790157E+03  0.00000000000E+00 0. -1.
         22    1    1    2    0    0  0.70289220969E+03  0.14157049838E+04  0.73536057865E+02  0.15823038935E+04  0.00000000000E+00 0. -1.
<mgrwt>
<rscale>  0 0.32716265E+04</rscale>
<asrwt>0</asrwt>
<pdfrwt beam="1">  1        2 0.20317181E+00 0.32716265E+04</pdfrwt>
<pdfrwt beam="2">  1       -2 0.31172906E+00 0.32716265E+04</pdfrwt>
<totfact> 0.36242473E-01</totfact>
</mgrwt>
</event>
<event>
 6    1  0.8968082E-007  0.3401267E+04  0.7818608E-02  0.8137595E-01
         -2   -1    0    0    0  501 -0.00000000000E+00  0.00000000000E+00  0.12952724517E+04  0.12952724517E+04  0.00000000000E+00 0.  1.
          2   -1    0    0  501    0  0.00000000000E+00 -0.00000000000E+00 -0.22328546310E+04  0.22328546310E+04  0.00000000000E+00 0. -1.
         23    2    1    2    0    0 -0.52238061407E+03 -0.33896276958E+03 -0.21089499542E+04  0.22015224961E+04  0.10608546802E+03 0.  0.
         11    1    3    3    0    0 -0.11044363681E+03 -0.10405423947E+03 -0.39375847447E+03  0.42198438109E+03  0.00000000000E+00 0. -1.
        -11    1    3    3    0    0 -0.41193697726E+03 -0.23490853011E+03 -0.17151914797E+04  0.17795381150E+04  0.00000000000E+00 0.  1.
         22    1    1    2    0    0  0.52238061407E+03  0.33896276958E+03  0.11713677749E+04  0.13266045866E+04  0.00000000000E+00 0.  1.
<mgrwt>
<rscale>  0 0.34012675E+04</rscale>
<asrwt>0</asrwt>
<pdfrwt beam="1">  1        2 0.34351610E+00 0.34012675E+04</pdfrwt>
<pdfrwt beam="2">  1       -2 0.19927268E+00 0.34012675E+04</pdfrwt>
<totfact> 0.55119504E-01</totfact>
</mgrwt>
</event>
<event>
 6    1  0.8968082E-007  0.8388348E+03  0.7818608E-02  0.9505446E-01
         -2   -1    0    0    0  501 -0.00000000000E+00  0.00000000000E+00  0.20688495214E+03  0.20688495214E+03  0.00000000000E+00 0.  1.
          2   -1    0    0  501    0  0.00000000000E+00 -0.00000000000E+00 -0.85028394542E+03  0.85028394542E+03  0.00000000000E+00 0. -1.
         23    2    1    2    0    0 -0.19058133706E+03  0.10035462130E+03 -0.77185942074E+03  0.80638138296E+03  0.89953728973E+02 0.  0.
         11    1    3    3    0    0 -0.83917201411E+02  0.91847388847E+02 -0.36188653646E+03  0.38267467227E+03  0.00000000000E+00 0. -1.
        -11    1    3    3    0    0 -0.10666413565E+03  0.85072324494E+01 -0.40997288428E+03  0.42370671069E+03  0.00000000000E+00 0.  1.
         22    1    1    2    0    0  0.19058133706E+03 -0.10035462130E+03  0.12846042747E+03  0.25078751460E+03  0.00000000000E+00 0.  1.
<mgrwt>
<rscale>  0 0.83883480E+03</rscale>
<asrwt>0</asrwt>
<pdfrwt beam="1">  1        2 0.13081291E+00 0.83883480E+03</pdfrwt>
<pdfrwt beam="2">  1       -2 0.31828455E-01 0.83883480E+03</pdfrwt>
<totfact> 0.29212548E+02</totfact>
</mgrwt>
</event>
<event>
 6    1  0.8968082E-007  0.2935791E+04  0.7818608E-02  0.8262308E-01
          2   -1    0    0  501    0  0.00000000000E+00  0.00000000000E+00  0.28191951908E+04  0.28191951908E+04  0.00000000000E+00 0. -1.
         -2   -1    0    0    0  501 -0.00000000000E+00 -0.00000000000E+00 -0.76430198722E+03  0.76430198722E+03  0.00000000000E+00 0.  1.
         23    2    1    2    0    0  0.12635875317E+04  0.11275259416E+03  0.19265499879E+04  0.23084134243E+04  0.88380337145E+02 0.  0.
         13    1    3    3    0    0  0.81108151619E+03  0.10111909180E+03  0.12957657831E+04  0.15320206465E+04  0.00000000000E+00 0. -1.
        -13    1    3    3    0    0  0.45250601555E+03  0.11633502353E+02  0.63078420482E+03  0.77639277788E+03  0.00000000000E+00 0.  1.
         22    1    1    2    0    0 -0.12635875317E+04 -0.11275259416E+03  0.12834321570E+03  0.12750837537E+04  0.00000000000E+00 0. -1.
<mgrwt>
<rscale>  0 0.29357905E+04</rscale>
<asrwt>0</asrwt>
<pdfrwt beam="1">  1        2 0.43372233E+00 0.29357905E+04</pdfrwt>
<pdfrwt beam="2">  1       -2 0.11758492E+00 0.29357905E+04</pdfrwt>
<totfact> 0.10813085E+00</totfact>
</mgrwt>
</event>
<event>
 6    1  0.8968082E-007  0.1984661E+04  0.7818608E-02  0.8613826E-01
          2   -1    0    0  501    0  0.00000000000E+00  0.00000000000E+00  0.84995690096E+03  0.84995690096E+03  0.00000000000E+00 0. -1.
         -2   -1    0    0    0  501 -0.00000000000E+00 -0.00000000000E+00 -0.11585522705E+04  0.11585522705E+04  0.00000000000E+00 0.  1.
         23    2    1    2    0    0  0.53832737651E+03  0.17203834365E+03  0.66640367095E+03  0.88155900179E+03  0.11687114696E+03 0.  0.
         11    1    3    3    0    0  0.30298904195E+03  0.15512397263E+03  0.37102557622E+03  0.50351344037E+03  0.00000000000E+00 0. -1.
        -11    1    3    3    0    0  0.23533833456E+03  0.16914371019E+02  0.29537809473E+03  0.37804556141E+03  0.00000000000E+00 0.  1.
         22    1    1    2    0    0 -0.53832737651E+03 -0.17203834365E+03 -0.97499904047E+03  0.11269501697E+04  0.00000000000E+00 0.  1.
<mgrwt>
<rscale>  0 0.19846607E+04</rscale>
<asrwt>0</asrwt>
<pdfrwt beam="1">  1        2 0.13076260E+00 0.19846607E+04</pdfrwt>
<pdfrwt beam="2">  1       -2 0.17823881E+00 0.19846607E+04</pdfrwt>
<totfact> 0.55041666E+00</totfact>
</mgrwt>
</event>
<event>
 6    1  0.9911002E-007  0.3820210E+04  0.7818608E-02  0.8041832E-01
          2   -1    0    0  501    0  0.00000000000E+00  0.00000000000E+00  0.18003811779E+04  0.18003811779E+04  0.00000000000E+00 0. -1.
         -2   -1    0    0    0  501 -0.00000000000E+00 -0.00000000000E+00 -0.20265160981E+04  0.20265160981E+04  0.00000000000E+00 0.  1.
         23    2    1    2    0    0 -0.12384572984E+04 -0.15675820986E+03 -0.15599879095E+04  0.20000110142E+04  0.90178505423E+02 0.  0.
         13    1    3    3    0    0 -0.89947477122E+03 -0.73619282519E+02 -0.11147308039E+04  0.14342591913E+04  0.00000000000E+00 0.  1.
        -13    1    3    3    0    0 -0.33898252719E+03 -0.83138927346E+02 -0.44525710561E+03  0.56575182287E+03  0.00000000000E+00 0. -1.
         22    1    1    2    0    0  0.12384572984E+04  0.15675820986E+03  0.13338529893E+04  0.18268862617E+04  0.00000000000E+00 0. -1.
<mgrwt>
<rscale>  0 0.38202102E+04</rscale>
<asrwt>0</asrwt>
<pdfrwt beam="1">  1        2 0.27698172E+00 0.38202102E+04</pdfrwt>
<pdfrwt beam="2">  1       -2 0.31177171E+00 0.38202102E+04</pdfrwt>
<totfact> 0.18577839E-01</totfact>
</mgrwt>
</event>
<event>
 6    1  0.8968082E-007  0.2096865E+04  0.7818608E-02  0.8562626E-01
         -2   -1    0    0    0  501 -0.00000000000E+00  0.00000000000E+00  0.15925738815E+04  0.15925738815E+04  0.00000000000E+00 0.  1.
          2   -1    0    0  501    0  0.00000000000E+00 -0.00000000000E+00 -0.69020988800E+03  0.69020988800E+03  0.00000000000E+00 0. -1.
         23    2    1    2    0    0  0.35950016593E+03 -0.50042938224E+03 -0.46812852927E+03  0.78014619149E+03  0.99064747795E+02 0.  0.
         11    1    3    3    0    0  0.24235879910E+03 -0.34439508848E+03 -0.37525071152E+03  0.56405572505E+03  0.00000000000E+00 0.  1.
        -11    1    3    3    0    0  0.11714136683E+03 -0.15603429376E+03 -0.92877817758E+02  0.21609046643E+03  0.00000000000E+00 0. -1.
         22    1    1    2    0    0 -0.35950016593E+03  0.50042938224E+03  0.13704925228E+04  0.15026375780E+04  0.00000000000E+00 0.  1.
<mgrwt>
<rscale>  0 0.20968646E+04</rscale>
<asrwt>0</asrwt>
<pdfrwt beam="1">  1        2 0.10618614E+00 0.20968646E+04</pdfrwt>
<pdfrwt beam="2">  1       -2 0.24501137E+00 0.20968646E+04</pdfrwt>
<totfact> 0.26512464E+00</totfact>
</mgrwt>
</event>
<event>
 6    1  0.8968082E-007  0.3584150E+04  0.7818608E-02  0.8094132E-01
         -2   -1    0    0    0  501 -0.00000000000E+00  0.00000000000E+00  0.13181373799E+04  0.13181373799E+04  0.00000000000E+00 0.  1.
          2   -1    0    0  501    0  0.00000000000E+00 -0.00000000000E+00 -0.24364175369E+04  0.24364175369E+04  0.00000000000E+00 0. -1.
         23    2    1    2    0    0 -0.65356581486E+03 -0.50301097105E+03  0.11057466186E+04  0.13825381779E+04  0.92563045416E+02 0.  0.
         13    1    3    3    0    0 -0.39148706877E+03 -0.26000301725E+03  0.57413577751E+03  0.74195389683E+03  0.00000000000E+00 0.  1.
        -13    1    3    3    0    0 -0.26207874609E+03 -0.24300795379E+03  0.53161084110E+03  0.64058428105E+03  0.00000000000E+00 0. -1.
         22    1    1    2    0    0  0.65356581486E+03  0.50301097105E+03 -0.22240267755E+04  0.23720167389E+04  0.00000000000E+00 0. -1.
<mgrwt>
<rscale>  0 0.35841501E+04</rscale>
<asrwt>0</asrwt>
<pdfrwt beam="1">  1        2 0.37483347E+00 0.35841501E+04</pdfrwt>
<pdfrwt beam="2">  1       -2 0.20279037E+00 0.35841501E+04</pdfrwt>
<totfact> 0.39422934E-01</totfact>
</mgrwt>
</event>
<event>
 6    1  0.8968082E-007  0.2442185E+04  0.7818608E-02  0.8423877E-01
          2   -1    0    0  501    0  0.00000000000E+00  0.00000000000E+00  0.43761477180E+04  0.43761477180E+04  0.00000000000E+00 0. -1.
         -2   -1    0    0    0  501 -0.00000000000E+00 -0.00000000000E+00 -0.34072590166E+03  0.34072590166E+03  0.00000000000E+00 0.  1.
         23    2    1    2    0    0  0.51904255283E+03 -0.44295885636E+03  0.69453247286E+02  0.69263152818E+03  0.96420745688E+02 0.  0.
         13    1    3    3    0    0  0.98582463015E+02 -0.51795472739E+02  0.37346390870E+02  0.11745648523E+03  0.00000000000E+00 0.  1.
        -13    1    3    3    0    0  0.42046008981E+03 -0.39116338363E+03  0.32106856416E+02  0.57517504296E+03  0.00000000000E+00 0. -1.
         22    1    1    2    0    0 -0.51904255283E+03  0.44295885636E+03  0.39659685691E+04  0.40242420915E+04  0.00000000000E+00 0. -1.
<mgrwt>
<rscale>  0 0.24421850E+04</rscale>
<asrwt>0</asrwt>
<pdfrwt beam="1">  1        2 0.67325345E+00 0.24421850E+04</pdfrwt>
<pdfrwt beam="2">  1       -2 0.52419373E-01 0.24421850E+04</pdfrwt>
<totfact> 0.50029721E-01</totfact>
</mgrwt>
</event>
<event>
 6    1  0.8968082E-007  0.6324295E+03  0.7818608E-02  0.9840319E-01
         -1   -1    0    0    0  501 -0.00000000000E+00  0.00000000000E+00  0.11458267486E+03  0.11458267486E+03  0.00000000000E+00 0.  1.
          1   -1    0    0  501    0  0.00000000000E+00 -0.00000000000E+00 -0.87266036970E+03  0.87266036970E+03  0.00000000000E+00 0. -1.
         23    2    1    2    0    0 -0.97267330918E+02 -0.20666060969E+03 -0.71318743983E+03  0.75446702291E+03  0.91731254543E+02 0.  0.
         11    1    3    3    0    0 -0.10111017645E+02 -0.46696580241E+02 -0.61968240675E+02  0.78248745270E+02  0.00000000000E+00 0.  1.
        -11    1    3    3    0    0 -0.87156313272E+02 -0.15996402945E+03 -0.65121919915E+03  0.67621827763E+03  0.00000000000E+00 0. -1.
         22    1    1    2    0    0  0.97267330918E+02  0.20666060969E+03 -0.44890255015E+02  0.23277602165E+03  0.00000000000E+00 0.  1.
<mgrwt>
<rscale>  0 0.63242947E+03</rscale>
<asrwt>0</asrwt>
<pdfrwt beam="1">  1        1 0.13425544E+00 0.63242947E+03</pdfrwt>
<pdfrwt beam="2">  1       -1 0.17628104E-01 0.63242947E+03</pdfrwt>
<totfact> 0.48961074E+02</totfact>
</mgrwt>
</event>
<event>
 6    1  0.8968082E-007  0.1245632E+04  0.7818608E-02  0.9073826E-01
          1   -1    0    0  501    0  0.00000000000E+00  0.00000000000E+00  0.22311741220E+03  0.22311741220E+03  0.00000000000E+00 0. -1.
         -1   -1    0    0    0  501 -0.00000000000E+00 -0.00000000000E+00 -0.17385466747E+04  0.17385466747E+04  0.00000000000E+00 0.  1.
         23    2    1    2    0    0  0.40996459411E+03  0.90307617874E+02 -0.42155470963E+02  0.42974956609E+03  0.81738433722E+02 0.  0.
         13    1    3    3    0    0  0.38798533892E+02  0.28636955621E+02  0.11802270444E+02  0.49645695151E+02  0.00000000000E+00 0.  1.
        -13    1    3    3    0    0  0.37116606022E+03  0.61670662253E+02 -0.53957741407E+02  0.38010387093E+03  0.00000000000E+00 0. -1.
         22    1    1    2    0    0 -0.40996459411E+03 -0.90307617874E+02 -0.14732737916E+04  0.15319145209E+04  0.00000000000E+00 0.  1.
<mgrwt>
<rscale>  0 0.12456324E+04</rscale>
<asrwt>0</asrwt>
<pdfrwt beam="1">  1        1 0.34325756E-01 0.12456324E+04</pdfrwt>
<pdfrwt beam="2">  1       -1 0.26746872E+00 0.12456324E+04</pdfrwt>
<totfact> 0.68490394E+00</totfact>
</mgrwt>
</event>
<event>
 6    1  0.8968082E-007  0.3811211E+04  0.7818608E-02  0.8043753E-01
          2   -1    0    0  501    0  0.00000000000E+00  0.00000000000E+00  0.12823705859E+04  0.12823705859E+04  0.00000000000E+00 0. -1.
         -2   -1    0    0    0  501 -0.00000000000E+00 -0.00000000000E+00 -0.28317336297E+04  0.28317336297E+04  0.00000000000E+00 0.  1.
         23    2    1    2    0    0  0.66923973296E+03 -0.16615739245E+04 -0.76765339642E+02  0.17952135919E+04  0.90494178025E+02 0.  0.
         11    1    3    3    0    0  0.31433708125E+03 -0.68918545401E+03 -0.35027524521E+01  0.75749366991E+03  0.00000000000E+00 0. -1.
        -11    1    3    3    0    0  0.35490265171E+03 -0.97238847050E+03 -0.73262587190E+02  0.10377199220E+04  0.00000000000E+00 0.  1.
         22    1    1    2    0    0 -0.66923973296E+03  0.16615739245E+04 -0.14725977041E+04  0.23188906238E+04  0.00000000000E+00 0.  1.
<mgrwt>
<rscale>  0 0.38112108E+04</rscale>
<asrwt>0</asrwt>
<pdfrwt beam="1">  1        2 0.19728778E+00 0.38112108E+04</pdfrwt>
<pdfrwt beam="2">  1       -2 0.43565132E+00 0.38112108E+04</pdfrwt>
<totfact> 0.58543522E-02</totfact>
</mgrwt>
</event>
<event>
 6    1  0.8968082E-007  0.1508158E+04  0.7818608E-02  0.8879046E-01
         -4   -1    0    0    0  501 -0.00000000000E+00  0.00000000000E+00  0.15422225946E+04  0.15422225946E+04  0.00000000000E+00 0.  1.
          4   -1    0    0  501    0  0.00000000000E+00 -0.00000000000E+00 -0.36871140650E+03  0.36871140650E+03  0.00000000000E+00 0. -1.
         23    2    1    2    0    0  0.31276836755E+03 -0.14378832123E+03 -0.25723978367E+03  0.43935407588E+03  0.91436123191E+02 0.  0.
         13    1    3    3    0    0  0.16250790076E+03 -0.26074186271E+02 -0.13295259794E+03  0.21157758458E+03  0.00000000000E+00 0.  1.
        -13    1    3    3    0    0  0.15026046679E+03 -0.11771413496E+03 -0.12428718573E+03  0.22777649130E+03  0.00000000000E+00 0. -1.
         22    1    1    2    0    0 -0.31276836755E+03  0.14378832123E+03  0.14307509718E+04  0.14715799252E+04  0.00000000000E+00 0.  1.
<mgrwt>
<rscale>  0 0.15081579E+04</rscale>
<asrwt>0</asrwt>
<pdfrwt beam="1">  1        4 0.56724832E-01 0.15081579E+04</pdfrwt>
<pdfrwt beam="2">  1       -4 0.23726501E+00 0.15081579E+04</pdfrwt>
<totfact> 0.43385111E-01</totfact>
</mgrwt>
</event>
<event>
 6    1  0.8968082E-007  0.2570195E+04  0.7818608E-02  0.8378396E-01
         -2   -1    0    0    0  501 -0.00000000000E+00  0.00000000000E+00  0.68703988672E+03  0.68703988672E+03  0.00000000000E+00 0.  1.
          2   -1    0    0  501    0  0.00000000000E+00 -0.00000000000E+00 -0.24037555693E+04  0.24037555693E+04  0.00000000000E+00 0. -1.
         23    2    1    2    0    0 -0.53745394738E+03  0.83714184370E+03 -0.18346890043E+04  0.20890065977E+04  0.90562744063E+02 0.  0.
         13    1    3    3    0    0 -0.24336143935E+03  0.32405398653E+03 -0.81602610951E+03  0.91111710979E+03  0.00000000000E+00 0. -1.
        -13    1    3    3    0    0 -0.29409250803E+03  0.51308785717E+03 -0.10186628948E+04  0.11778894879E+04  0.00000000000E+00 0.  1.
         22    1    1    2    0    0  0.53745394738E+03 -0.83714184370E+03  0.11797332174E+03  0.10017888583E+04  0.00000000000E+00 0.  1.
<mgrwt>
<rscale>  0 0.25701953E+04</rscale>
<asrwt>0</asrwt>
<pdfrwt beam="1">  1        2 0.36980855E+00 0.25701953E+04</pdfrwt>
<pdfrwt beam="2">  1       -2 0.10569845E+00 0.25701953E+04</pdfrwt>
<totfact> 0.25372529E+00</totfact>
</mgrwt>
</event>
<event>
 6    1  0.8968082E-007  0.5465446E+03  0.7818608E-02  0.1002297E+00
          3   -1    0    0  501    0  0.00000000000E+00  0.00000000000E+00  0.36193004120E+03  0.36193004120E+03  0.00000000000E+00 0. -1.
         -3   -1    0    0    0  501 -0.00000000000E+00 -0.00000000000E+00 -0.20633203216E+03  0.20633203216E+03  0.00000000000E+00 0.  1.
         23    2    1    2    0    0 -0.13410599432E+03  0.17006598696E+03  0.23996217974E+03  0.33583107085E+03  0.91070317936E+02 0.  0.
         13    1    3    3    0    0 -0.34182084417E+02  0.10900453787E+03  0.89235867016E+02  0.14496014671E+03  0.00000000000E+00 0.  1.
        -13    1    3    3    0    0 -0.99923909901E+02  0.61061449087E+02  0.15072631272E+03  0.19087092414E+03  0.00000000000E+00 0. -1.
         22    1    1    2    0    0  0.13410599432E+03 -0.17006598696E+03 -0.84364170696E+02  0.23243100251E+03  0.00000000000E+00 0.  1.
<mgrwt>
<rscale>  0 0.54654464E+03</rscale>
<asrwt>0</asrwt>
<pdfrwt beam="1">  1        3 0.55681544E-01 0.54654464E+03</pdfrwt>
<pdfrwt beam="2">  1       -3 0.31743390E-01 0.54654464E+03</pdfrwt>
<totfact> 0.80987840E+01</totfact>
</mgrwt>
</event>
<event>
 6    1  0.8968082E-007  0.7674998E+03  0.7818608E-02  0.9608289E-01
         -2   -1    0    0    0  501 -0.00000000000E+00  0.00000000000E+00  0.57781182492E+02  0.57781182492E+02  0.00000000000E+00 0.  1.
          2   -1    0    0  501    0  0.00000000000E+00 -0.00000000000E+00 -0.25486493106E+04  0.25486493106E+04  0.00000000000E+00 0. -1.
         23    2    1    2    0    0 -0.34074335265E+03 -0.12196169601E+03 -0.16384757553E+04  0.16803886771E+04  0.90125567326E+02 0.  0.
         13    1    3    3    0    0 -0.15935922433E+03 -0.71030648560E+02 -0.59546398124E+03  0.62049824203E+03  0.00000000000E+00 0.  1.
        -13    1    3    3    0    0 -0.18138412832E+03 -0.50931047450E+02 -0.10430117741E+04  0.10598904351E+04  0.00000000000E+00 0. -1.
         22    1    1    2    0    0  0.34074335265E+03  0.12196169601E+03 -0.85239237279E+03  0.92604181593E+03  0.00000000000E+00 0. -1.
<mgrwt>
<rscale>  0 0.76749976E+03</rscale>
<asrwt>0</asrwt>
<pdfrwt beam="1">  1        2 0.39209981E+00 0.76749976E+03</pdfrwt>
<pdfrwt beam="2">  1       -2 0.88894146E-02 0.76749976E+03</pdfrwt>
<totfact> 0.28115220E+02</totfact>
</mgrwt>
</event>
<event>
 6    1  0.8968082E-007  0.3102113E+04  0.7818608E-02  0.8215158E-01
          1   -1    0    0  501    0  0.00000000000E+00  0.00000000000E+00  0.26365606725E+04  0.26365606725E+04  0.00000000000E+00 0. -1.
         -1   -1    0    0    0  501 -0.00000000000E+00 -0.00000000000E+00 -0.91246788562E+03  0.91246788562E+03  0.00000000000E+00 0.  1.
         23    2    1    2    0    0  0.86019992490E+03 -0.57627360483E+02  0.23359329201E+04  0.24918563054E+04  0.97470076211E+02 0.  0.
         11    1    3    3    0    0  0.60419343635E+03 -0.83696706017E+02  0.16112373131E+04  0.17228292214E+04  0.00000000000E+00 0. -1.
        -11    1    3    3    0    0  0.25600648855E+03  0.26069345534E+02  0.72469560706E+03  0.76902708395E+03  0.00000000000E+00 0.  1.
         22    1    1    2    0    0 -0.86019992490E+03  0.57627360483E+02 -0.61184013321E+03  0.10571722528E+04  0.00000000000E+00 0.  1.
<mgrwt>
<rscale>  0 0.31021134E+04</rscale>
<asrwt>0</asrwt>
<pdfrwt beam="1">  1        1 0.40562472E+00 0.31021134E+04</pdfrwt>
<pdfrwt beam="2">  1       -1 0.14037968E+00 0.31021134E+04</pdfrwt>
<totfact> 0.38174626E-01</totfact>
</mgrwt>
</event>
<event>
 6    1  0.8968082E-007  0.3509262E+04  0.7818608E-02  0.8111599E-01
          2   -1    0    0  501    0  0.00000000000E+00  0.00000000000E+00  0.15047569081E+04  0.15047569081E+04  0.00000000000E+00 0. -1.
         -2   -1    0    0    0  501 -0.00000000000E+00 -0.00000000000E+00 -0.20459980653E+04  0.20459980653E+04  0.00000000000E+00 0.  1.
         23    2    1    2    0    0 -0.14606032244E+04 -0.75708231605E+03  0.34315396943E+03  0.16829514097E+04  0.89640327903E+02 0.  0.
         13    1    3    3    0    0 -0.57751218363E+03 -0.30266836162E+03  0.91416576419E+02  0.65839611922E+03  0.00000000000E+00 0. -1.
        -13    1    3    3    0    0 -0.88309104075E+03 -0.45441395443E+03  0.25173739301E+03  0.10245552905E+04  0.00000000000E+00 0.  1.
         22    1    1    2    0    0  0.14606032244E+04  0.75708231605E+03 -0.88439512668E+03  0.18678035637E+04  0.00000000000E+00 0.  1.
<mgrwt>
<rscale>  0 0.35092619E+04</rscale>
<asrwt>0</asrwt>
<pdfrwt beam="1">  1        2 0.23150106E+00 0.35092619E+04</pdfrwt>
<pdfrwt beam="2">  1       -2 0.31476893E+00 0.35092619E+04</pdfrwt>
<totfact> 0.26711381E-01</totfact>
</mgrwt>
</event>
<event>
 6    1  0.8968082E-007  0.1448426E+04  0.7818608E-02  0.8919492E-01
          1   -1    0    0  501    0  0.00000000000E+00  0.00000000000E+00  0.14538515481E+04  0.14538515481E+04  0.00000000000E+00 0. -1.
         -1   -1    0    0    0  501 -0.00000000000E+00 -0.00000000000E+00 -0.36075532307E+03  0.36075532307E+03  0.00000000000E+00 0.  1.
         23    2    1    2    0    0 -0.46365811391E+03  0.52986683530E+03  0.74441722423E+03  0.10289130661E+04  0.93634310835E+02 0.  0.
         13    1    3    3    0    0 -0.24488656496E+03  0.31846538072E+03  0.47917106787E+03  0.62529556267E+03  0.00000000000E+00 0. -1.
        -13    1    3    3    0    0 -0.21877154895E+03  0.21140145458E+03  0.26524615636E+03  0.40361750345E+03  0.00000000000E+00 0.  1.
         22    1    1    2    0    0  0.46365811391E+03 -0.52986683530E+03  0.34867900084E+03  0.78569380510E+03  0.00000000000E+00 0. -1.
<mgrwt>
<rscale>  0 0.14484263E+04</rscale>
<asrwt>0</asrwt>
<pdfrwt beam="1">  1        1 0.22366947E+00 0.14484263E+04</pdfrwt>
<pdfrwt beam="2">  1       -1 0.55500820E-01 0.14484263E+04</pdfrwt>
<totfact> 0.22458193E+01</totfact>
</mgrwt>
</event>
<event>
 6    1  0.8968082E-007  0.3586857E+04  0.7818608E-02  0.8093509E-01
          2   -1    0    0  501    0  0.00000000000E+00  0.00000000000E+00  0.13206988605E+04  0.13206988605E+04  0.00000000000E+00 0. -1.
         -2   -1    0    0    0  501 -0.00000000000E+00 -0.00000000000E+00 -0.24353668976E+04  0.24353668976E+04  0.00000000000E+00 0.  1.
         23    2    1    2    0    0 -0.19530094193E+03  0.38550346023E+03  0.12637439547E+04  0.13387120441E+04  0.91355231427E+02 0.  0.
         13    1    3    3    0    0 -0.13744186698E+03  0.23795593669E+03  0.66961043746E+03  0.72380344884E+03  0.00000000000E+00 0. -1.
        -13    1    3    3    0    0 -0.57859074953E+02  0.14754752354E+03  0.59413351723E+03  0.61490859528E+03  0.00000000000E+00 0.  1.
         22    1    1    2    0    0  0.19530094193E+03 -0.38550346023E+03 -0.23784119918E+04  0.24173537140E+04  0.00000000000E+00 0.  1.
<mgrwt>
<rscale>  0 0.35868573E+04</rscale>
<asrwt>0</asrwt>
<pdfrwt beam="1">  1        2 0.20318444E+00 0.35868573E+04</pdfrwt>
<pdfrwt beam="2">  1       -2 0.37467183E+00 0.35868573E+04</pdfrwt>
<totfact> 0.14206135E-01</totfact>
</mgrwt>
</event>
<event>
 6    1  0.8968082E-007  0.2237480E+04  0.7818608E-02  0.8502988E-01
          2   -1    0    0  501    0  0.00000000000E+00  0.00000000000E+00  0.17840184950E+04  0.17840184950E+04  0.00000000000E+00 0. -1.
         -2   -1    0    0    0  501 -0.00000000000E+00 -0.00000000000E+00 -0.70155077567E+03  0.70155077567E+03  0.00000000000E+00 0.  1.
         23    2    1    2    0    0 -0.73186311621E+03  0.58546071112E+03 -0.13360679269E+03  0.95024354500E+03  0.82000942833E+02 0.  0.
         13    1    3    3    0    0 -0.40869039857E+03  0.27852389457E+03 -0.54387129773E+02  0.49755538548E+03  0.00000000000E+00 0.  1.
        -13    1    3    3    0    0 -0.32317271764E+03  0.30693681655E+03 -0.79219662916E+02  0.45268815952E+03  0.00000000000E+00 0. -1.
         22    1    1    2    0    0  0.73186311621E+03 -0.58546071112E+03  0.12160745120E+04  0.15353257257E+04  0.00000000000E+00 0. -1.
<mgrwt>
<rscale>  0 0.22374803E+04</rscale>
<asrwt>0</asrwt>
<pdfrwt beam="1">  1        2 0.27446438E+00 0.22374803E+04</pdfrwt>
<pdfrwt beam="2">  1       -2 0.10793089E+00 0.22374803E+04</pdfrwt>
<totfact> 0.55208731E+00</totfact>
</mgrwt>
</event>
<event>
 6    1  0.8968082E-007  0.1940391E+04  0.7818608E-02  0.8635008E-01
          2   -1    0    0  501    0  0.00000000000E+00  0.00000000000E+00  0.12751865512E+04  0.12751865512E+04  0.00000000000E+00 0. -1.
         -2   -1    0    0    0  501 -0.00000000000E+00 -0.00000000000E+00 -0.73815029862E+03  0.73815029862E+03  0.00000000000E+00 0.  1.
         23    2    1    2    0    0 -0.34961067527E+03  0.51869842330E+03  0.10359117725E+04  0.12132415661E+04  0.86984014343E+02 0.  0.
         13    1    3    3    0    0 -0.71236237690E+02  0.17600871856E+03  0.32392430645E+03  0.37547386976E+03  0.00000000000E+00 0.  1.
        -13    1    3    3    0    0 -0.27837443758E+03  0.34268970474E+03  0.71198746604E+03  0.83776769634E+03  0.00000000000E+00 0. -1.
         22    1    1    2    0    0  0.34961067527E+03 -0.51869842330E+03 -0.49887551994E+03  0.80009528369E+03  0.00000000000E+00 0.  1.
<mgrwt>
<rscale>  0 0.19403910E+04</rscale>
<asrwt>0</asrwt>
<pdfrwt beam="1">  1        2 0.19618255E+00 0.19403910E+04</pdfrwt>
<pdfrwt beam="2">  1       -2 0.11356158E+00 0.19403910E+04</pdfrwt>
<totfact> 0.97047361E+00</totfact>
</mgrwt>
</event>
<event>
 6    1  0.8968082E-007  0.2053757E+04  0.7818608E-02  0.8581892E-01
         -1   -1    0    0    0  501 -0.00000000000E+00  0.00000000000E+00  0.17516766193E+04  0.17516766193E+04  0.00000000000E+00 0.  1.
          1   -1    0    0  501    0  0.00000000000E+00 -0.00000000000E+00 -0.60198321114E+03  0.60198321114E+03  0.00000000000E+00 0. -1.
         23    2    1    2    0    0 -0.68132649475E+03 -0.39082788080E+03 -0.17864699142E+03  0.81046818907E+03  0.89396381830E+02 0.  0.
         13    1    3    3    0    0 -0.36308735146E+03 -0.17979395744E+03 -0.53781347506E+02  0.40871839360E+03  0.00000000000E+00 0.  1.
        -13    1    3    3    0    0 -0.31823914329E+03 -0.21103392337E+03 -0.12486564392E+03  0.40174979547E+03  0.00000000000E+00 0. -1.
         22    1    1    2    0    0  0.68132649475E+03  0.39082788080E+03  0.13283403996E+04  0.15431916414E+04  0.00000000000E+00 0.  1.
<mgrwt>
<rscale>  0 0.20537575E+04</rscale>
<asrwt>0</asrwt>
<pdfrwt beam="1">  1        1 0.92612802E-01 0.20537575E+04</pdfrwt>
<pdfrwt beam="2">  1       -1 0.26948871E+00 0.20537575E+04</pdfrwt>
<totfact> 0.16389030E+00</totfact>
</mgrwt>
</event>
<event>
 6    1  0.8968082E-007  0.5337848E+04  0.7818608E-02  0.7778404E-01
         -1   -1    0    0    0  501 -0.00000000000E+00  0.00000000000E+00  0.19649761025E+04  0.19649761025E+04  0.00000000000E+00 0.  1.
          1   -1    0    0  501    0  0.00000000000E+00 -0.00000000000E+00 -0.36250596150E+04  0.36250596150E+04  0.00000000000E+00 0. -1.
         23    2    1    2    0    0  0.22292542739E+04  0.15705990911E+03  0.69623240814E+03  0.23425032464E+04  0.91320646089E+02 0.  0.
         11    1    3    3    0    0  0.99165448851E+03  0.11492777650E+03  0.31740628834E+03  0.10475370019E+04  0.00000000000E+00 0.  1.
        -11    1    3    3    0    0  0.12375997854E+04  0.42132132615E+02  0.37882611980E+03  0.12949662446E+04  0.00000000000E+00 0. -1.
         22    1    1    2    0    0 -0.22292542739E+04 -0.15705990911E+03 -0.23563159206E+04  0.32475324711E+04  0.00000000000E+00 0. -1.
<mgrwt>
<rscale>  0 0.53378481E+04</rscale>
<asrwt>0</asrwt>
<pdfrwt beam="1">  1        1 0.55770147E+00 0.53378481E+04</pdfrwt>
<pdfrwt beam="2">  1       -1 0.30230402E+00 0.53378481E+04</pdfrwt>
<totfact> 0.44473233E-03</totfact>
</mgrwt>
</event>
<event>
 6    1  0.8968082E-007  0.9615857E+03  0.7818608E-02  0.9351710E-01
          1   -1    0    0  501    0  0.00000000000E+00  0.00000000000E+00  0.19283745087E+03  0.19283745087E+03  0.00000000000E+00 0. -1.
         -1   -1    0    0    0  501 -0.00000000000E+00 -0.00000000000E+00 -0.11987389610E+04  0.11987389610E+04  0.00000000000E+00 0.  1.
         23    2    1    2    0    0 -0.43115398509E+03  0.17916439634E+03 -0.65888372110E+03  0.80984194867E+03  0.61012983273E+02 0.  0.
         13    1    3    3    0    0 -0.29371198947E+03  0.91467349281E+02 -0.41916881715E+03  0.51993798285E+03  0.00000000000E+00 0.  1.
        -13    1    3    3    0    0 -0.13744199562E+03  0.87697047060E+02 -0.23971490395E+03  0.28990396582E+03  0.00000000000E+00 0. -1.
         22    1    1    2    0    0  0.43115398509E+03 -0.17916439634E+03 -0.34701778906E+03  0.58173446322E+03  0.00000000000E+00 0. -1.
<mgrwt>
<rscale>  0 0.96158570E+03</rscale>
<asrwt>0</asrwt>
<pdfrwt beam="1">  1        1 0.29667300E-01 0.96158570E+03</pdfrwt>
<pdfrwt beam="2">  1       -1 0.18442138E+00 0.96158570E+03</pdfrwt>
<totfact> 0.30386790E+01</totfact>
</mgrwt>
</event>
<event>
 6    1  0.8968082E-007  0.4154701E+04  0.7818608E-02  0.7974045E-01
         -2   -1    0    0    0  501 -0.00000000000E+00  0.00000000000E+00  0.19590307603E+04  0.19590307603E+04  0.00000000000E+00 0.  1.
          2   -1    0    0  501    0  0.00000000000E+00 -0.00000000000E+00 -0.22028169243E+04  0.22028169243E+04  0.00000000000E+00 0. -1.
         23    2    1    2    0    0 -0.39130782875E+03 -0.98873892994E+03  0.16645205986E+04  0.19772742277E+04  0.90873868119E+02 0.  0.
         11    1    3    3    0    0 -0.32863990350E+03 -0.75442257246E+03  0.13320323939E+04  0.15657164183E+04  0.00000000000E+00 0.  1.
        -11    1    3    3    0    0 -0.62667925250E+02 -0.23431635748E+03  0.33248820466E+03  0.41155780940E+03  0.00000000000E+00 0. -1.
         22    1    1    2    0    0  0.39130782875E+03  0.98873892994E+03 -0.19083067626E+04  0.21845734569E+04  0.00000000000E+00 0. -1.
<mgrwt>
<rscale>  0 0.41547015E+04</rscale>
<asrwt>0</asrwt>
<pdfrwt beam="1">  1        2 0.33889491E+00 0.41547015E+04</pdfrwt>
<pdfrwt beam="2">  1       -2 0.30138935E+00 0.41547015E+04</pdfrwt>
<totfact> 0.12493701E-01</totfact>
</mgrwt>
</event>
<event>
 6    1  0.1000710E-006  0.4258513E+04  0.7818608E-02  0.7954334E-01
          2   -1    0    0  501    0  0.00000000000E+00  0.00000000000E+00  0.28113341665E+04  0.28113341665E+04  0.00000000000E+00 0. -1.
         -2   -1    0    0    0  501 -0.00000000000E+00 -0.00000000000E+00 -0.16126623260E+04  0.16126623260E+04  0.00000000000E+00 0.  1.
         23    2    1    2    0    0  0.19074640134E+04  0.90385944437E+03  0.88262157559E+03  0.22896889638E+04  0.90960692898E+02 0.  0.
         11    1    3    3    0    0  0.54192104614E+03  0.24285210412E+03  0.20644069631E+03  0.62870766324E+03  0.00000000000E+00 0. -1.
        -11    1    3    3    0    0  0.13655429672E+04  0.66100734026E+03  0.67618087928E+03  0.16609813005E+04  0.00000000000E+00 0.  1.
         22    1    1    2    0    0 -0.19074640134E+04 -0.90385944437E+03  0.31605026492E+03  0.21343075288E+04  0.00000000000E+00 0.  1.
<mgrwt>
<rscale>  0 0.42585127E+04</rscale>
<asrwt>0</asrwt>
<pdfrwt beam="1">  1        2 0.43251295E+00 0.42585127E+04</pdfrwt>
<pdfrwt beam="2">  1       -2 0.24810190E+00 0.42585127E+04</pdfrwt>
<totfact> 0.11606151E-01</totfact>
</mgrwt>
</event>
<event>
 6    1  0.8968082E-007  0.1367579E+04  0.7818608E-02  0.8977627E-01
          2   -1    0    0  501    0  0.00000000000E+00  0.00000000000E+00  0.14298572302E+04  0.14298572302E+04  0.00000000000E+00 0. -1.
         -2   -1    0    0    0  501 -0.00000000000E+00 -0.00000000000E+00 -0.32700327813E+03  0.32700327813E+03  0.00000000000E+00 0.  1.
         23    2    1    2    0    0  0.23672522422E+03  0.45687950672E+03  0.11264888793E+04  0.12417524369E+04  0.90521842074E+02 0.  0.
         11    1    3    3    0    0  0.19332735973E+03  0.29675185046E+03  0.70992137075E+03  0.79336339808E+03  0.00000000000E+00 0. -1.
        -11    1    3    3    0    0  0.43397864494E+02  0.16012765626E+03  0.41656750858E+03  0.44838903883E+03  0.00000000000E+00 0.  1.
         22    1    1    2    0    0 -0.23672522422E+03 -0.45687950672E+03 -0.23634927263E+02  0.51510807141E+03  0.00000000000E+00 0.  1.
<mgrwt>
<rscale>  0 0.13675789E+04</rscale>
<asrwt>0</asrwt>
<pdfrwt beam="1">  1        2 0.21997803E+00 0.13675789E+04</pdfrwt>
<pdfrwt beam="2">  1       -2 0.50308197E-01 0.13675789E+04</pdfrwt>
<totfact> 0.50709586E+01</totfact>
</mgrwt>
</event>
<event>
 6    1  0.8968082E-007  0.4313203E+04  0.7818608E-02  0.7944181E-01
         -2   -1    0    0    0  501 -0.00000000000E+00  0.00000000000E+00  0.17206928090E+04  0.17206928090E+04  0.00000000000E+00 0.  1.
          2   -1    0    0  501    0  0.00000000000E+00 -0.00000000000E+00 -0.27029405108E+04  0.27029405108E+04  0.00000000000E+00 0. -1.
         23    2    1    2    0    0 -0.11863127218E+04 -0.75961155187E+03  0.11821064482E+04  0.18412358929E+04  0.91795286151E+02 0.  0.
         13    1    3    3    0    0 -0.17694289054E+03 -0.11628528171E+03  0.22216251233E+03  0.30689938928E+03  0.00000000000E+00 0. -1.
        -13    1    3    3    0    0 -0.10093698313E+04 -0.64332627017E+03  0.95994393586E+03  0.15343365036E+04  0.00000000000E+00 0.  1.
         22    1    1    2    0    0  0.11863127218E+04  0.75961155187E+03 -0.21643541501E+04  0.25823974269E+04  0.00000000000E+00 0. -1.
<mgrwt>
<rscale>  0 0.43132031E+04</rscale>
<asrwt>0</asrwt>
<pdfrwt beam="1">  1        2 0.41583700E+00 0.43132031E+04</pdfrwt>
<pdfrwt beam="2">  1       -2 0.26472197E+00 0.43132031E+04</pdfrwt>
<totfact> 0.10619142E-01</totfact>
</mgrwt>
</event>
<event>
 6    1  0.8968082E-007  0.2735579E+04  0.7818608E-02  0.8323552E-01
         -1   -1    0    0    0  501 -0.00000000000E+00  0.00000000000E+00  0.63655584766E+03  0.63655584766E+03  0.00000000000E+00 0.  1.
          1   -1    0    0  501    0  0.00000000000E+00 -0.00000000000E+00 -0.29390173828E+04  0.29390173828E+04  0.00000000000E+00 0. -1.
         23    2    1    2    0    0 -0.17310028828E+03  0.12506512626E+04 -0.18350268010E+04  0.22292495245E+04  0.90209710702E+02 0.  0.
         11    1    3    3    0    0 -0.57230888838E+02  0.23445278037E+03 -0.39688803223E+03  0.46450359631E+03  0.00000000000E+00 0. -1.
        -11    1    3    3    0    0 -0.11586939945E+03  0.10161984823E+04 -0.14381387687E+04  0.17647459282E+04  0.00000000000E+00 0.  1.
         22    1    1    2    0    0  0.17310028828E+03 -0.12506512626E+04 -0.46743473423E+03  0.13463237060E+04  0.00000000000E+00 0. -1.
<mgrwt>
<rscale>  0 0.27355794E+04</rscale>
<asrwt>0</asrwt>
<pdfrwt beam="1">  1        1 0.45215652E+00 0.27355794E+04</pdfrwt>
<pdfrwt beam="2">  1       -1 0.97931670E-01 0.27355794E+04</pdfrwt>
<totfact> 0.57581324E-01</totfact>
</mgrwt>
</event>
<event>
 6    1  0.8968082E-007  0.2772596E+04  0.7818608E-02  0.8311827E-01
         -1   -1    0    0    0  501 -0.00000000000E+00  0.00000000000E+00  0.90768264595E+03  0.90768264595E+03  0.00000000000E+00 0.  1.
          1   -1    0    0  501    0  0.00000000000E+00 -0.00000000000E+00 -0.21172844350E+04  0.21172844350E+04  0.00000000000E+00 0. -1.
         23    2    1    2    0    0 -0.10587583075E+04 -0.65469057576E+03  0.56341294138E+02  0.12495232509E+04  0.92439762004E+02 0.  0.
         11    1    3    3    0    0 -0.12781591635E+03 -0.79565998426E+02 -0.23348899273E+02  0.15235756520E+03  0.00000000000E+00 0. -1.
        -11    1    3    3    0    0 -0.93094239112E+03 -0.57512457734E+03  0.79690193411E+02  0.10971656857E+04  0.00000000000E+00 0.  1.
         22    1    1    2    0    0  0.10587583075E+04  0.65469057576E+03 -0.12659430832E+04  0.17754438300E+04  0.00000000000E+00 0. -1.
<mgrwt>
<rscale>  0 0.27725961E+04</rscale>
<asrwt>0</asrwt>
<pdfrwt beam="1">  1        1 0.32573606E+00 0.27725961E+04</pdfrwt>
<pdfrwt beam="2">  1       -1 0.13964349E+00 0.27725961E+04</pdfrwt>
<totfact> 0.90806549E-01</totfact>
</mgrwt>
</event>
<event>
 6    1  0.8968082E-007  0.2484931E+04  0.7818608E-02  0.8408374E-01
         -2   -1    0    0    0  501 -0.00000000000E+00  0.00000000000E+00  0.74174176423E+03  0.74174176423E+03  0.00000000000E+00 0.  1.
          2   -1    0    0  501    0  0.00000000000E+00 -0.00000000000E+00 -0.20812094273E+04  0.20812094273E+04  0.00000000000E+00 0. -1.
         23    2    1    2    0    0  0.10166665497E+04 -0.65653872568E+03 -0.98160121394E+03  0.15609201432E+04  0.90976803618E+02 0.  0.
         13    1    3    3    0    0  0.19018179212E+03 -0.16641382007E+03 -0.21007304347E+03  0.32862342759E+03  0.00000000000E+00 0. -1.
        -13    1    3    3    0    0  0.82648475755E+03 -0.49012490560E+03 -0.77152817046E+03  0.12322967156E+04  0.00000000000E+00 0.  1.
         22    1    1    2    0    0 -0.10166665497E+04  0.65653872568E+03 -0.35786644916E+03  0.12620310483E+04  0.00000000000E+00 0.  1.
<mgrwt>
<rscale>  0 0.24849305E+04</rscale>
<asrwt>0</asrwt>
<pdfrwt beam="1">  1        2 0.32018607E+00 0.24849305E+04</pdfrwt>
<pdfrwt beam="2">  1       -2 0.11411412E+00 0.24849305E+04</pdfrwt>
<totfact> 0.32299050E+00</totfact>
</mgrwt>
</event>
<event>
 6    1  0.8968082E-007  0.4133547E+04  0.7818608E-02  0.7978135E-01
          2   -1    0    0  501    0  0.00000000000E+00  0.00000000000E+00  0.14997035744E+04  0.14997035744E+04  0.00000000000E+00 0. -1.
         -2   -1    0    0    0  501 -0.00000000000E+00 -0.00000000000E+00 -0.28482650621E+04  0.28482650621E+04  0.00000000000E+00 0.  1.
         23    2    1    2    0    0 -0.12164421688E+04 -0.33717645512E+02  0.10812638401E+04  0.16304477896E+04  0.91433435484E+02 0.  0.
         11    1    3    3    0    0 -0.79458057761E+03 -0.45008223901E+02  0.65653981224E+03  0.10317114711E+04  0.00000000000E+00 0.  1.
        -11    1    3    3    0    0 -0.42186159118E+03  0.11290578389E+02  0.42472402786E+03  0.59873631852E+03  0.00000000000E+00 0. -1.
         22    1    1    2    0    0  0.12164421688E+04  0.33717645512E+02 -0.24298253278E+04  0.27175208468E+04  0.00000000000E+00 0.  1.
<mgrwt>
<rscale>  0 0.41335473E+04</rscale>
<asrwt>0</asrwt>
<pdfrwt beam="1">  1        2 0.23072363E+00 0.41335473E+04</pdfrwt>
<pdfrwt beam="2">  1       -2 0.43819462E+00 0.41335473E+04</pdfrwt>
<totfact> 0.41182521E-02</totfact>
</mgrwt>
</event>
<event>
 6    1  0.8968082E-007  0.1838060E+04  0.7818608E-02  0.8686317E-01
          2   -1    0    0  501    0  0.00000000000E+00  0.00000000000E+00  0.11917124942E+04  0.11917124942E+04  0.00000000000E+00 0. -1.
         -2   -1    0    0    0  501 -0.00000000000E+00 -0.00000000000E+00 -0.70874170674E+03  0.70874170674E+03  0.00000000000E+00 0.  1.
         23    2    1    2    0    0  0.44899976019E+03 -0.66077880824E+03  0.70724149099E+03  0.10706790709E+04  0.89071477793E+02 0.  0.
         13    1    3    3    0    0  0.36693524536E+03 -0.49123056424E+03  0.50535588427E+03  0.79456498243E+03  0.00000000000E+00 0.  1.
        -13    1    3    3    0    0  0.82064514827E+02 -0.16954824400E+03  0.20188560672E+03  0.27611408845E+03  0.00000000000E+00 0. -1.
         22    1    1    2    0    0 -0.44899976019E+03  0.66077880824E+03 -0.22427070351E+03  0.82977513009E+03  0.00000000000E+00 0.  1.
<mgrwt>
<rscale>  0 0.18380602E+04</rscale>
<asrwt>0</asrwt>
<pdfrwt beam="1">  1        2 0.18334038E+00 0.18380602E+04</pdfrwt>
<pdfrwt beam="2">  1       -2 0.10903719E+00 0.18380602E+04</pdfrwt>
<totfact> 0.12104579E+01</totfact>
</mgrwt>
</event>
<event>
 6    1  0.8968082E-007  0.3496371E+04  0.7818608E-02  0.8114651E-01
         -2   -1    0    0    0  501 -0.00000000000E+00  0.00000000000E+00  0.15261606350E+04  0.15261606350E+04  0.00000000000E+00 0.  1.
          2   -1    0    0  501    0  0.00000000000E+00 -0.00000000000E+00 -0.20025100266E+04  0.20025100266E+04  0.00000000000E+00 0. -1.
         23    2    1    2    0    0 -0.82719688294E+03  0.10166564982E+04  0.92740149443E+03  0.16081598784E+04  0.90882034271E+02 0.  0.
         13    1    3    3    0    0 -0.40735018034E+02  0.48517959321E+02  0.70904424030E+02  0.95082971230E+02  0.00000000000E+00 0. -1.
        -13    1    3    3    0    0 -0.78646186491E+03  0.96813853886E+03  0.85649707040E+03  0.15130769072E+04  0.00000000000E+00 0.  1.
         22    1    1    2    0    0  0.82719688294E+03 -0.10166564982E+04 -0.14037508860E+04  0.19205107832E+04  0.00000000000E+00 0. -1.
<mgrwt>
<rscale>  0 0.34963707E+04</rscale>
<asrwt>0</asrwt>
<pdfrwt beam="1">  1        2 0.30807846E+00 0.34963707E+04</pdfrwt>
<pdfrwt beam="2">  1       -2 0.23479394E+00 0.34963707E+04</pdfrwt>
<totfact> 0.43686916E-01</totfact>
</mgrwt>
</event>
<event>
 6    1  0.9655123E-007  0.2564743E+04  0.7818608E-02  0.8380277E-01
         -1   -1    0    0    0  501 -0.00000000000E+00  0.00000000000E+00  0.98789014889E+03  0.98789014889E+03  0.00000000000E+00 0.  1.
          1   -1    0    0  501    0  0.00000000000E+00 -0.00000000000E+00 -0.16646351010E+04  0.16646351010E+04  0.00000000000E+00 0. -1.
         23    2    1    2    0    0 -0.43292490501E+02  0.43298917051E+03  0.90691690818E+03  0.10101675698E+04  0.92662717950E+02 0.  0.
         11    1    3    3    0    0 -0.43712803231E+02  0.24373247128E+03  0.60655288160E+03  0.65515091765E+03  0.00000000000E+00 0. -1.
        -11    1    3    3    0    0  0.42031273066E+00  0.18925669923E+03  0.30036402658E+03  0.35501665219E+03  0.00000000000E+00 0.  1.
         22    1    1    2    0    0  0.43292490501E+02 -0.43298917051E+03 -0.15836618603E+04  0.16423576800E+04  0.00000000000E+00 0. -1.
<mgrwt>
<rscale>  0 0.25647430E+04</rscale>
<asrwt>0</asrwt>
<pdfrwt beam="1">  1        1 0.25609771E+00 0.25647430E+04</pdfrwt>
<pdfrwt beam="2">  1       -1 0.15198310E+00 0.25647430E+04</pdfrwt>
<totfact> 0.14988493E+00</totfact>
</mgrwt>
</event>
<event>
 6    1  0.8968082E-007  0.3002944E+04  0.7818608E-02  0.8242891E-01
         -1   -1    0    0    0  501 -0.00000000000E+00  0.00000000000E+00  0.14068416510E+04  0.14068416510E+04  0.00000000000E+00 0.  1.
          1   -1    0    0  501    0  0.00000000000E+00 -0.00000000000E+00 -0.16024677267E+04  0.16024677267E+04  0.00000000000E+00 0. -1.
         23    2    1    2    0    0 -0.11764894570E+04  0.22343077812E+03 -0.10034759771E+04  0.15647782364E+04  0.86707194063E+02 0.  0.
         11    1    3    3    0    0 -0.34497817333E+03  0.26235028552E+02 -0.29855247796E+03  0.45698118002E+03  0.00000000000E+00 0.  1.
        -11    1    3    3    0    0 -0.83151128370E+03  0.19719574957E+03 -0.70492349911E+03  0.11077970564E+04  0.00000000000E+00 0. -1.
         22    1    1    2    0    0  0.11764894570E+04 -0.22343077812E+03  0.80784990132E+03  0.14445311413E+04  0.00000000000E+00 0.  1.
<mgrwt>
<rscale>  0 0.30029441E+04</rscale>
<asrwt>0</asrwt>
<pdfrwt beam="1">  1        1 0.24653350E+00 0.30029441E+04</pdfrwt>
<pdfrwt beam="2">  1       -1 0.21643718E+00 0.30029441E+04</pdfrwt>
<totfact> 0.54999375E-01</totfact>
</mgrwt>
</event>
<event>
 6    1  0.8968082E-007  0.1554079E+04  0.7818608E-02  0.8849266E-01
         -1   -1    0    0    0  501 -0.00000000000E+00  0.00000000000E+00  0.23693426651E+03  0.23693426651E+03  0.00000000000E+00 0.  1.
          1   -1    0    0  501    0  0.00000000000E+00 -0.00000000000E+00 -0.25483458677E+04  0.25483458677E+04  0.00000000000E+00 0. -1.
         23    2    1    2    0    0  0.71497429381E+03  0.13869242483E+03 -0.68732898209E+03  0.10053733436E+04  0.89053921509E+02 0.  0.
         13    1    3    3    0    0  0.26320503481E+03  0.12657533452E+02 -0.22001416934E+03  0.34328317496E+03  0.00000000000E+00 0. -1.
        -13    1    3    3    0    0  0.45176925899E+03  0.12603489138E+03 -0.46731481275E+03  0.66209016866E+03  0.00000000000E+00 0.  1.
         22    1    1    2    0    0 -0.71497429381E+03 -0.13869242483E+03 -0.16240826191E+04  0.17799067906E+04  0.00000000000E+00 0.  1.
<mgrwt>
<rscale>  0 0.15540791E+04</rscale>
<asrwt>0</asrwt>
<pdfrwt beam="1">  1        1 0.39205324E+00 0.15540791E+04</pdfrwt>
<pdfrwt beam="2">  1       -1 0.36451423E-01 0.15540791E+04</pdfrwt>
<totfact> 0.87313481E+00</totfact>
</mgrwt>
</event>
<event>
 6    1  0.8968082E-007  0.2741944E+04  0.7818608E-02  0.8321522E-01
         -1   -1    0    0    0  501 -0.00000000000E+00  0.00000000000E+00  0.13020960675E+04  0.13020960675E+04  0.00000000000E+00 0.  1.
          1   -1    0    0  501    0  0.00000000000E+00 -0.00000000000E+00 -0.14434913109E+04  0.14434913109E+04  0.00000000000E+00 0. -1.
         23    2    1    2    0    0 -0.10643515196E+04  0.74227018554E+03 -0.50972054815E+03  0.13967090608E+04  0.84687528961E+02 0.  0.
         13    1    3    3    0    0 -0.71845462868E+02  0.35700200620E+02 -0.14209740128E+02  0.81475097874E+02  0.00000000000E+00 0. -1.
        -13    1    3    3    0    0 -0.99250605674E+03  0.70656998492E+03 -0.49551080802E+03  0.13152339629E+04  0.00000000000E+00 0.  1.
         22    1    1    2    0    0  0.10643515196E+04 -0.74227018554E+03  0.36832530484E+03  0.13488783176E+04  0.00000000000E+00 0.  1.
<mgrwt>
<rscale>  0 0.27419441E+04</rscale>
<asrwt>0</asrwt>
<pdfrwt beam="1">  1        1 0.22207559E+00 0.27419441E+04</pdfrwt>
<pdfrwt beam="2">  1       -1 0.20032247E+00 0.27419441E+04</pdfrwt>
<totfact> 0.93307020E-01</totfact>
</mgrwt>
</event>
<event>
 6    1  0.8968082E-007  0.1946299E+04  0.7818608E-02  0.8632147E-01
          2   -1    0    0  501    0  0.00000000000E+00  0.00000000000E+00  0.28740831239E+04  0.28740831239E+04  0.00000000000E+00 0. -1.
         -2   -1    0    0    0  501 -0.00000000000E+00 -0.00000000000E+00 -0.32950343320E+03  0.32950343320E+03  0.00000000000E+00 0.  1.
         23    2    1    2    0    0 -0.83247525234E+03 -0.20973486997E+03  0.52775304374E+03  0.10116482630E+04  0.88911030385E+02 0.  0.
         11    1    3    3    0    0 -0.12984334079E+03 -0.59710525910E+02  0.11187487759E+03  0.18149553242E+03  0.00000000000E+00 0. -1.
        -11    1    3    3    0    0 -0.70263191155E+03 -0.15002434406E+03  0.41587816615E+03  0.83015273054E+03  0.00000000000E+00 0.  1.
         22    1    1    2    0    0  0.83247525234E+03  0.20973486997E+03  0.20168266469E+04  0.21919382941E+04  0.00000000000E+00 0. -1.
<mgrwt>
<rscale>  0 0.19462993E+04</rscale>
<asrwt>0</asrwt>
<pdfrwt beam="1">  1        2 0.44216662E+00 0.19462993E+04</pdfrwt>
<pdfrwt beam="2">  1       -2 0.50692838E-01 0.19462993E+04</pdfrwt>
<totfact> 0.71698906E+00</totfact>
</mgrwt>
</event>
<event>
 6    1  0.8968082E-007  0.3858669E+04  0.7818608E-02  0.8033681E-01
         -2   -1    0    0    0  501 -0.00000000000E+00  0.00000000000E+00  0.14370306952E+04  0.14370306952E+04  0.00000000000E+00 0.  1.
          2   -1    0    0  501    0  0.00000000000E+00 -0.00000000000E+00 -0.25902935220E+04  0.25902935220E+04  0.00000000000E+00 0. -1.
         23    2    1    2    0    0 -0.53626220072E+03  0.74729207990E+03  0.11915914760E+04  0.15085220610E+04  0.98620293400E+02 0.  0.
         11    1    3    3    0    0 -0.48832186508E+03  0.63622021093E+03  0.10675863969E+04  0.13352809126E+04  0.00000000000E+00 0.  1.
        -11    1    3    3    0    0 -0.47940335635E+02  0.11107186897E+03  0.12400507907E+03  0.17324114838E+03  0.00000000000E+00 0. -1.
         22    1    1    2    0    0  0.53626220072E+03 -0.74729207990E+03 -0.23448543028E+04  0.25188021562E+04  0.00000000000E+00 0. -1.
<mgrwt>
<rscale>  0 0.38586688E+04</rscale>
<asrwt>0</asrwt>
<pdfrwt beam="1">  1        2 0.39850669E+00 0.38586688E+04</pdfrwt>
<pdfrwt beam="2">  1       -2 0.22108165E+00 0.38586688E+04</pdfrwt>
<totfact> 0.23935648E-01</totfact>
</mgrwt>
</event>
<event>
 6    1  0.8968082E-007  0.4925995E+03  0.7818608E-02  0.1015729E+00
         -2   -1    0    0    0  501 -0.00000000000E+00  0.00000000000E+00  0.10414548730E+03  0.10414548730E+03  0.00000000000E+00 0.  1.
          2   -1    0    0  501    0  0.00000000000E+00 -0.00000000000E+00 -0.58248861742E+03  0.58248861742E+03  0.00000000000E+00 0. -1.
         23    2    1    2    0    0 -0.11288086946E+03  0.16111241878E+03 -0.60199938499E+02  0.22452694089E+03  0.89938937153E+02 0.  0.
         13    1    3    3    0    0 -0.20352103648E+02  0.10335875171E+03 -0.14783464562E+02  0.10637570447E+03  0.00000000000E+00 0.  1.
        -13    1    3    3    0    0 -0.92528765807E+02  0.57753667069E+02 -0.45416473937E+02  0.11815123642E+03  0.00000000000E+00 0. -1.
         22    1    1    2    0    0  0.11288086946E+03 -0.16111241878E+03 -0.41814319162E+03  0.46210716384E+03  0.00000000000E+00 0. -1.
<mgrwt>
<rscale>  0 0.49259948E+03</rscale>
<asrwt>0</asrwt>
<pdfrwt beam="1">  1        2 0.89613635E-01 0.49259948E+03</pdfrwt>
<pdfrwt beam="2">  1       -2 0.16022382E-01 0.49259948E+03</pdfrwt>
<totfact> 0.16086142E+03</totfact>
</mgrwt>
</event>
<event>
 6    1  0.8968082E-007  0.1511918E+04  0.7818608E-02  0.8876566E-01
         -2   -1    0    0    0  501 -0.00000000000E+00  0.00000000000E+00  0.23172999318E+03  0.23172999318E+03  0.00000000000E+00 0.  1.
          2   -1    0    0  501    0  0.00000000000E+00 -0.00000000000E+00 -0.24661213893E+04  0.24661213893E+04  0.00000000000E+00 0. -1.
         23    2    1    2    0    0 -0.50044140274E+03  0.48608891258E+03 -0.16278203184E+04  0.17733772072E+04  0.91343862881E+02 0.  0.
         13    1    3    3    0    0 -0.13631552086E+03  0.17456625808E+03 -0.44188153281E+03  0.49428189196E+03  0.00000000000E+00 0. -1.
        -13    1    3    3    0    0 -0.36412588189E+03  0.31152265450E+03 -0.11859387856E+04  0.12790953152E+04  0.00000000000E+00 0.  1.
         22    1    1    2    0    0  0.50044140274E+03 -0.48608891258E+03 -0.60657107769E+03  0.92447417531E+03  0.00000000000E+00 0.  1.
<mgrwt>
<rscale>  0 0.15119184E+04</rscale>
<asrwt>0</asrwt>
<pdfrwt beam="1">  1        2 0.37940328E+00 0.15119184E+04</pdfrwt>
<pdfrwt beam="2">  1       -2 0.35650769E-01 0.15119184E+04</pdfrwt>
<totfact> 0.26061986E+01</totfact>
</mgrwt>
</event>
<event>
 6    1  0.8968082E-007  0.2588881E+04  0.7818608E-02  0.8371988E-01
          2   -1    0    0  501    0  0.00000000000E+00  0.00000000000E+00  0.22801639347E+04  0.22801639347E+04  0.00000000000E+00 0. -1.
         -2   -1    0    0    0  501 -0.00000000000E+00 -0.00000000000E+00 -0.73484899695E+03  0.73484899695E+03  0.00000000000E+00 0.  1.
         23    2    1    2    0    0  0.37128889355E+03 -0.12043448937E+04  0.11093461885E+04  0.16814572276E+04  0.91363981456E+02 0.  0.
         11    1    3    3    0    0  0.81925322474E+02 -0.17437924800E+03  0.14494279426E+03  0.24109810079E+03  0.00000000000E+00 0. -1.
        -11    1    3    3    0    0  0.28936357107E+03 -0.10299656456E+04  0.96440339422E+03  0.14403591268E+04  0.00000000000E+00 0.  1.
         22    1    1    2    0    0 -0.37128889355E+03  0.12043448937E+04  0.43596874922E+03  0.13335557040E+04  0.00000000000E+00 0. -1.
<mgrwt>
<rscale>  0 0.25888810E+04</rscale>
<asrwt>0</asrwt>
<pdfrwt beam="1">  1        2 0.35079445E+00 0.25888810E+04</pdfrwt>
<pdfrwt beam="2">  1       -2 0.11305369E+00 0.25888810E+04</pdfrwt>
<totfact> 0.25318610E+00</totfact>
</mgrwt>
</event>
<event>
 6    1  0.8968082E-007  0.2734164E+04  0.7818608E-02  0.8324004E-01
         -1   -1    0    0    0  501 -0.00000000000E+00  0.00000000000E+00  0.10146429291E+04  0.10146429291E+04  0.00000000000E+00 0.  1.
          1   -1    0    0  501    0  0.00000000000E+00 -0.00000000000E+00 -0.18419423527E+04  0.18419423527E+04  0.00000000000E+00 0. -1.
         23    2    1    2    0    0  0.93941763756E+03 -0.48882432121E+03 -0.13148703392E+04  0.16907464796E+04  0.91021614998E+02 0.  0.
         11    1    3    3    0    0  0.36653701418E+03 -0.23998207162E+03 -0.55784851427E+03  0.70932062027E+03  0.00000000000E+00 0. -1.
        -11    1    3    3    0    0  0.57288062338E+03 -0.24884224958E+03 -0.75702182498E+03  0.98142585931E+03  0.00000000000E+00 0.  1.
         22    1    1    2    0    0 -0.93941763756E+03  0.48882432121E+03  0.48757091565E+03  0.11658388021E+04  0.00000000000E+00 0.  1.
<mgrwt>
<rscale>  0 0.27341644E+04</rscale>
<asrwt>0</asrwt>
<pdfrwt beam="1">  1        1 0.28337575E+00 0.27341644E+04</pdfrwt>
<pdfrwt beam="2">  1       -1 0.15609891E+00 0.27341644E+04</pdfrwt>
<totfact> 0.10395301E+00</totfact>
</mgrwt>
</event>
<event>
 6    1  0.8968082E-007  0.2271678E+04  0.7818608E-02  0.8489173E-01
         -2   -1    0    0    0  501 -0.00000000000E+00  0.00000000000E+00  0.12529601631E+04  0.12529601631E+04  0.00000000000E+00 0.  1.
          2   -1    0    0  501    0  0.00000000000E+00 -0.00000000000E+00 -0.10296656966E+04  0.10296656966E+04  0.00000000000E+00 0. -1.
         23    2    1    2    0    0  0.59596491213E+03  0.41397008248E+03 -0.76378209889E+03  0.10575276793E+04  0.91958100163E+02 0.  0.
         11    1    3    3    0    0  0.55721004260E+03  0.36085152973E+03 -0.67183522318E+03  0.94448897568E+03  0.00000000000E+00 0. -1.
        -11    1    3    3    0    0  0.38754869530E+02  0.53118552754E+02 -0.91946875705E+02  0.11303870360E+03  0.00000000000E+00 0.  1.
         22    1    1    2    0    0 -0.59596491213E+03 -0.41397008248E+03  0.98707656536E+03  0.12250981804E+04  0.00000000000E+00 0.  1.
<mgrwt>
<rscale>  0 0.22716779E+04</rscale>
<asrwt>0</asrwt>
<pdfrwt beam="1">  1        2 0.15841011E+00 0.22716779E+04</pdfrwt>
<pdfrwt beam="2">  1       -2 0.19276310E+00 0.22716779E+04</pdfrwt>
<totfact> 0.32538800E+00</totfact>
</mgrwt>
</event>
<event>
 6    1  0.8968082E-007  0.9410623E+03  0.7818608E-02  0.9375659E-01
         -1   -1    0    0    0  501 -0.00000000000E+00  0.00000000000E+00  0.15322393268E+03  0.15322393268E+03  0.00000000000E+00 0.  1.
          1   -1    0    0  501    0  0.00000000000E+00 -0.00000000000E+00 -0.14449411801E+04  0.14449411801E+04  0.00000000000E+00 0. -1.
         23    2    1    2    0    0  0.25554471523E+03 -0.17870782624E+03 -0.12401797623E+04  0.12821023009E+04  0.92200209410E+02 0.  0.
         11    1    3    3    0    0  0.17424112748E+03 -0.10512461199E+03 -0.95777432056E+03  0.97915412662E+03  0.00000000000E+00 0.  1.
        -11    1    3    3    0    0  0.81303587748E+02 -0.73583214244E+02 -0.28240544175E+03  0.30294817433E+03  0.00000000000E+00 0. -1.
         22    1    1    2    0    0 -0.25554471523E+03  0.17870782624E+03 -0.51537485088E+02  0.31606281181E+03  0.00000000000E+00 0.  1.
<mgrwt>
<rscale>  0 0.94106231E+03</rscale>
<asrwt>0</asrwt>
<pdfrwt beam="1">  1        1 0.22229866E+00 0.94106231E+03</pdfrwt>
<pdfrwt beam="2">  1       -1 0.23572911E-01 0.94106231E+03</pdfrwt>
<totfact> 0.11132871E+02</totfact>
</mgrwt>
</event>
<event>
 6    1  0.8968082E-007  0.1764968E+04  0.7818608E-02  0.8725154E-01
         -1   -1    0    0    0  501 -0.00000000000E+00  0.00000000000E+00  0.29747533695E+03  0.29747533695E+03  0.00000000000E+00 0.  1.
          1   -1    0    0  501    0  0.00000000000E+00 -0.00000000000E+00 -0.26179592308E+04  0.26179592308E+04  0.00000000000E+00 0. -1.
         23    2    1    2    0    0  0.86515237237E+03 -0.55996293098E+02 -0.91445292650E+03  0.12636030711E+04  0.94044426631E+02 0.  0.
         11    1    3    3    0    0  0.63241945002E+03 -0.35084232201E+02 -0.60564646477E+03  0.87635204364E+03  0.00000000000E+00 0.  1.
        -11    1    3    3    0    0  0.23273292234E+03 -0.20912060897E+02 -0.30880646173E+03  0.38725102742E+03  0.00000000000E+00 0. -1.
         22    1    1    2    0    0 -0.86515237237E+03  0.55996293098E+02 -0.14060309674E+04  0.16518314967E+04  0.00000000000E+00 0. -1.
<mgrwt>
<rscale>  0 0.17649683E+04</rscale>
<asrwt>0</asrwt>
<pdfrwt beam="1">  1        1 0.40276298E+00 0.17649683E+04</pdfrwt>
<pdfrwt beam="2">  1       -1 0.45765435E-01 0.17649683E+04</pdfrwt>
<totfact> 0.50421510E+00</totfact>
</mgrwt>
</event>
<event>
 6    1  0.8968082E-007  0.3640936E+04  0.7818608E-02  0.8081179E-01
         -2   -1    0    0    0  501 -0.00000000000E+00  0.00000000000E+00  0.12795960097E+04  0.12795960097E+04  0.00000000000E+00 0.  1.
          2   -1    0    0  501    0  0.00000000000E+00 -0.00000000000E+00 -0.25899616451E+04  0.25899616451E+04  0.00000000000E+00 0. -1.
         23    2    1    2    0    0 -0.71135057926E+03  0.12340916387E+04  0.54703701126E+03  0.15288427189E+04  0.95439762537E+02 0.  0.
         11    1    3    3    0    0 -0.15519583531E+03  0.25011068955E+03  0.73559223465E+02  0.30340083006E+03  0.00000000000E+00 0. -1.
        -11    1    3    3    0    0 -0.55615474395E+03  0.98398094912E+03  0.47347778779E+03  0.12254418889E+04  0.00000000000E+00 0.  1.
         22    1    1    2    0    0  0.71135057926E+03 -0.12340916387E+04 -0.18574026466E+04  0.23407149359E+04  0.00000000000E+00 0. -1.
<mgrwt>
<rscale>  0 0.36409365E+04</rscale>
<asrwt>0</asrwt>
<pdfrwt beam="1">  1        2 0.39845563E+00 0.36409365E+04</pdfrwt>
<pdfrwt beam="2">  1       -2 0.19686093E+00 0.36409365E+04</pdfrwt>
<totfact> 0.34949921E-01</totfact>
</mgrwt>
</event>
<event>
 6    1  0.8968082E-007  0.2764375E+04  0.7818608E-02  0.8314415E-01
          2   -1    0    0  501    0  0.00000000000E+00  0.00000000000E+00  0.11882407475E+04  0.11882407475E+04  0.00000000000E+00 0. -1.
         -2   -1    0    0    0  501 -0.00000000000E+00 -0.00000000000E+00 -0.16077906291E+04  0.16077906291E+04  0.00000000000E+00 0.  1.
         23    2    1    2    0    0  0.12704358069E+03  0.11528821136E+04  0.54763204743E+03  0.12858267139E+04  0.90400439876E+02 0.  0.
         13    1    3    3    0    0  0.13804660373E+03  0.93839570506E+03  0.45349725976E+03  0.10513339758E+04  0.00000000000E+00 0. -1.
        -13    1    3    3    0    0 -0.11003023035E+02  0.21448640858E+03  0.94134787675E+02  0.23449273813E+03  0.00000000000E+00 0.  1.
         22    1    1    2    0    0 -0.12704358069E+03 -0.11528821136E+04 -0.96718192903E+03  0.15102046627E+04  0.00000000000E+00 0.  1.
<mgrwt>
<rscale>  0 0.27643750E+04</rscale>
<asrwt>0</asrwt>
<pdfrwt beam="1">  1        2 0.18280627E+00 0.27643750E+04</pdfrwt>
<pdfrwt beam="2">  1       -2 0.24735240E+00 0.27643750E+04</pdfrwt>
<totfact> 0.11208979E+00</totfact>
</mgrwt>
</event>
<event>
 6    1  0.8968082E-007  0.4869217E+04  0.7818608E-02  0.7849005E-01
         -1   -1    0    0    0  501 -0.00000000000E+00  0.00000000000E+00  0.14324717161E+04  0.14324717161E+04  0.00000000000E+00 0.  1.
          1   -1    0    0  501    0  0.00000000000E+00 -0.00000000000E+00 -0.41378257163E+04  0.41378257163E+04  0.00000000000E+00 0. -1.
         23    2    1    2    0    0 -0.15403783493E+04 -0.11371349345E+04 -0.30715379907E+04  0.36209559967E+04  0.10552432897E+03 0.  0.
         13    1    3    3    0    0 -0.53656730576E+03 -0.34028518323E+03 -0.97824730533E+03  0.11664760049E+04  0.00000000000E+00 0.  1.
        -13    1    3    3    0    0 -0.10038110435E+04 -0.79684975126E+03 -0.20932906853E+04  0.24544799919E+04  0.00000000000E+00 0. -1.
         22    1    1    2    0    0  0.15403783493E+04  0.11371349345E+04  0.36618399046E+03  0.19493414357E+04  0.00000000000E+00 0.  1.
<mgrwt>
<rscale>  0 0.48692169E+04</rscale>
<asrwt>0</asrwt>
<pdfrwt beam="1">  1        1 0.63658856E+00 0.48692169E+04</pdfrwt>
<pdfrwt beam="2">  1       -1 0.22038027E+00 0.48692169E+04</pdfrwt>
<totfact> 0.57351726E-03</totfact>
</mgrwt>
</event>
<event>
 6    1  0.8968082E-007  0.1302630E+04  0.7818608E-02  0.9027482E-01
         -2   -1    0    0    0  501 -0.00000000000E+00  0.00000000000E+00  0.23446147148E+03  0.23446147148E+03  0.00000000000E+00 0.  1.
          2   -1    0    0  501    0  0.00000000000E+00 -0.00000000000E+00 -0.18093003731E+04  0.18093003731E+04  0.00000000000E+00 0. -1.
         23    2    1    2    0    0  0.15257616322E+03  0.31684134260E+03  0.62912317003E+02  0.36868065967E+03  0.91101850811E+02 0.  0.
         11    1    3    3    0    0  0.11348255358E+03  0.29903811356E+03  0.49334848703E+02  0.32362943412E+03  0.00000000000E+00 0.  1.
        -11    1    3    3    0    0  0.39093609637E+02  0.17803229042E+02  0.13577468300E+02  0.45051225557E+02  0.00000000000E+00 0. -1.
         22    1    1    2    0    0 -0.15257616322E+03 -0.31684134260E+03 -0.16377512187E+04  0.16750811849E+04  0.00000000000E+00 0. -1.
<mgrwt>
<rscale>  0 0.13026300E+04</rscale>
<asrwt>0</asrwt>
<pdfrwt beam="1">  1        2 0.27835390E+00 0.13026300E+04</pdfrwt>
<pdfrwt beam="2">  1       -2 0.36070996E-01 0.13026300E+04</pdfrwt>
<totfact> 0.60422304E+01</totfact>
</mgrwt>
</event>
<event>
 6    1  0.8968082E-007  0.6047612E+04  0.7818608E-02  0.7684526E-01
         -2   -1    0    0    0  501 -0.00000000000E+00  0.00000000000E+00  0.26436238085E+04  0.26436238085E+04  0.00000000000E+00 0.  1.
          2   -1    0    0  501    0  0.00000000000E+00 -0.00000000000E+00 -0.34586626585E+04  0.34586626585E+04  0.00000000000E+00 0. -1.
         23    2    1    2    0    0  0.76359429806E+03  0.94281795657E+03 -0.32016372889E+04  0.34250053724E+04  0.90545680742E+02 0.  0.
         11    1    3    3    0    0  0.43389856297E+03  0.56764673515E+03 -0.17711518286E+04  0.19098349611E+04  0.00000000000E+00 0. -1.
        -11    1    3    3    0    0  0.32969573509E+03  0.37517122142E+03 -0.14304854603E+04  0.15151704113E+04  0.00000000000E+00 0.  1.
         22    1    1    2    0    0 -0.76359429806E+03 -0.94281795657E+03  0.23865984389E+04  0.26772810946E+04  0.00000000000E+00 0.  1.
<mgrwt>
<rscale>  0 0.60476121E+04</rscale>
<asrwt>0</asrwt>
<pdfrwt beam="1">  1        2 0.53210195E+00 0.60476121E+04</pdfrwt>
<pdfrwt beam="2">  1       -2 0.40671135E+00 0.60476121E+04</pdfrwt>
<totfact> 0.39065722E-03</totfact>
</mgrwt>
</event>
<event>
 6    1  0.9265019E-007  0.2128157E+04  0.7818608E-02  0.8548940E-01
          2   -1    0    0  501    0  0.00000000000E+00  0.00000000000E+00  0.11674798415E+04  0.11674798415E+04  0.00000000000E+00 0. -1.
         -2   -1    0    0    0  501 -0.00000000000E+00 -0.00000000000E+00 -0.96983511417E+03  0.96983511417E+03  0.00000000000E+00 0.  1.
         23    2    1    2    0    0 -0.12716591762E+03 -0.52342466597E+03 -0.82037495249E+03  0.98557339609E+03  0.90527923100E+02 0.  0.
         11    1    3    3    0    0 -0.63003289751E+02 -0.20687874406E+03 -0.40797960408E+03  0.46175273319E+03  0.00000000000E+00 0. -1.
        -11    1    3    3    0    0 -0.64162627866E+02 -0.31654592191E+03 -0.41239534841E+03  0.52382066291E+03  0.00000000000E+00 0.  1.
         22    1    1    2    0    0  0.12716591762E+03  0.52342466597E+03  0.10180196798E+04  0.11517415595E+04  0.00000000000E+00 0. -1.
<mgrwt>
<rscale>  0 0.21281569E+04</rscale>
<asrwt>0</asrwt>
<pdfrwt beam="1">  1        2 0.17961228E+00 0.21281569E+04</pdfrwt>
<pdfrwt beam="2">  1       -2 0.14920540E+00 0.21281569E+04</pdfrwt>
<totfact> 0.55359005E+00</totfact>
</mgrwt>
</event>
<event>
 6    1  0.8968082E-007  0.4720247E+04  0.7818608E-02  0.7873173E-01
         -2   -1    0    0    0  501 -0.00000000000E+00  0.00000000000E+00  0.28604455436E+04  0.28604455436E+04  0.00000000000E+00 0.  1.
          2   -1    0    0  501    0  0.00000000000E+00 -0.00000000000E+00 -0.19473128785E+04  0.19473128785E+04  0.00000000000E+00 0. -1.
         23    2    1    2    0    0 -0.20434187797E+04 -0.49237569544E+03 -0.63461394067E+03  0.21974876143E+04  0.90679800806E+02 0.  0.
         13    1    3    3    0    0 -0.30310585421E+03 -0.50978226716E+02 -0.11785456458E+03  0.32918328762E+03  0.00000000000E+00 0. -1.
        -13    1    3    3    0    0 -0.17403129255E+04 -0.44139746872E+03 -0.51675937609E+03  0.18683043266E+04  0.00000000000E+00 0.  1.
         22    1    1    2    0    0  0.20434187797E+04  0.49237569544E+03  0.15477466057E+04  0.26102708079E+04  0.00000000000E+00 0.  1.
<mgrwt>
<rscale>  0 0.47202468E+04</rscale>
<asrwt>0</asrwt>
<pdfrwt beam="1">  1        2 0.29958660E+00 0.47202468E+04</pdfrwt>
<pdfrwt beam="2">  1       -2 0.44006855E+00 0.47202468E+04</pdfrwt>
<totfact> 0.21516384E-02</totfact>
</mgrwt>
</event>
<event>
 6    1  0.8968082E-007  0.1574047E+04  0.7818608E-02  0.8836653E-01
          3   -1    0    0  501    0  0.00000000000E+00  0.00000000000E+00  0.13294370461E+04  0.13294370461E+04  0.00000000000E+00 0. -1.
         -3   -1    0    0    0  501 -0.00000000000E+00 -0.00000000000E+00 -0.46591590093E+03  0.46591590093E+03  0.00000000000E+00 0.  1.
         23    2    1    2    0    0 -0.34482639508E+03 -0.43859669505E+02  0.12352087903E+04  0.12864515628E+04  0.91585777187E+02 0.  0.
         11    1    3    3    0    0 -0.95575326501E+02  0.15621295424E+02  0.45666919441E+03  0.46682482906E+03  0.00000000000E+00 0. -1.
        -11    1    3    3    0    0 -0.24925106858E+03 -0.59480964929E+02  0.77853959587E+03  0.81962673377E+03  0.00000000000E+00 0.  1.
         22    1    1    2    0    0  0.34482639508E+03  0.43859669505E+02 -0.37168764508E+03  0.50890138422E+03  0.00000000000E+00 0.  1.
<mgrwt>
<rscale>  0 0.15740468E+04</rscale>
<asrwt>0</asrwt>
<pdfrwt beam="1">  1        3 0.20452877E+00 0.15740468E+04</pdfrwt>
<pdfrwt beam="2">  1       -3 0.71679370E-01 0.15740468E+04</pdfrwt>
<totfact> 0.64350104E-01</totfact>
</mgrwt>
</event>
<event>
 6    1  0.8968082E-007  0.2099969E+04  0.7818608E-02  0.8561257E-01
          2   -1    0    0  501    0  0.00000000000E+00  0.00000000000E+00  0.14200840422E+04  0.14200840422E+04  0.00000000000E+00 0. -1.
         -2   -1    0    0    0  501 -0.00000000000E+00 -0.00000000000E+00 -0.77633952997E+03  0.77633952997E+03  0.00000000000E+00 0.  1.
         23    2    1    2    0    0  0.63970040572E+03 -0.13550952939E+03 -0.53418020754E+03  0.84917226411E+03  0.90363700476E+02 0.  0.
         11    1    3    3    0    0  0.44107286233E+03 -0.12616788543E+03 -0.33792489790E+03  0.56978666342E+03  0.00000000000E+00 0. -1.
        -11    1    3    3    0    0  0.19862754339E+03 -0.93416439643E+01 -0.19625530964E+03  0.27938560068E+03  0.00000000000E+00 0.  1.
         22    1    1    2    0    0 -0.63970040572E+03  0.13550952939E+03  0.11779247197E+04  0.13472513080E+04  0.00000000000E+00 0. -1.
<mgrwt>
<rscale>  0 0.20999689E+04</rscale>
<asrwt>0</asrwt>
<pdfrwt beam="1">  1        2 0.21847447E+00 0.20999689E+04</pdfrwt>
<pdfrwt beam="2">  1       -2 0.11943685E+00 0.20999689E+04</pdfrwt>
<totfact> 0.69786004E+00</totfact>
</mgrwt>
</event>
<event>
 6    1  0.8968082E-007  0.2577973E+04  0.7818608E-02  0.8375722E-01
         -1   -1    0    0    0  501 -0.00000000000E+00  0.00000000000E+00  0.90532362012E+03  0.90532362012E+03  0.00000000000E+00 0.  1.
          1   -1    0    0  501    0  0.00000000000E+00 -0.00000000000E+00 -0.18352395069E+04  0.18352395069E+04  0.00000000000E+00 0. -1.
         23    2    1    2    0    0  0.15406762870E+03 -0.92567496298E+03 -0.14020876529E+04  0.16900598438E+04  0.99204425836E+02 0.  0.
         11    1    3    3    0    0  0.57397236069E+02 -0.60426412659E+03 -0.94003755585E+03  0.11189728253E+04  0.00000000000E+00 0. -1.
        -11    1    3    3    0    0  0.96670392627E+02 -0.32141083638E+03 -0.46205009701E+03  0.57108701850E+03  0.00000000000E+00 0.  1.
         22    1    1    2    0    0 -0.15406762870E+03  0.92567496298E+03  0.47217176610E+03  0.10505032832E+04  0.00000000000E+00 0.  1.
<mgrwt>
<rscale>  0 0.25779726E+04</rscale>
<asrwt>0</asrwt>
<pdfrwt beam="1">  1        1 0.28234454E+00 0.25779726E+04</pdfrwt>
<pdfrwt beam="2">  1       -1 0.13928056E+00 0.25779726E+04</pdfrwt>
<totfact> 0.14452769E+00</totfact>
</mgrwt>
</event>
<event>
 6    1  0.8968082E-007  0.1578832E+04  0.7818608E-02  0.8833659E-01
          2   -1    0    0  501    0  0.00000000000E+00  0.00000000000E+00  0.34312771209E+03  0.34312771209E+03  0.00000000000E+00 0. -1.
         -2   -1    0    0    0  501 -0.00000000000E+00 -0.00000000000E+00 -0.18161682736E+04  0.18161682736E+04  0.00000000000E+00 0.  1.
         23    2    1    2    0    0 -0.31330381649E+03  0.34169076121E+03  0.13073905341E+03  0.48985868200E+03  0.89201852693E+02 0.  0.
         11    1    3    3    0    0 -0.21636270216E+03  0.28682494386E+03  0.83433265944E+02  0.36883936500E+03  0.00000000000E+00 0.  1.
        -11    1    3    3    0    0 -0.96941114326E+02  0.54865817354E+02  0.47305787465E+02  0.12101931700E+03  0.00000000000E+00 0. -1.
         22    1    1    2    0    0  0.31330381649E+03 -0.34169076121E+03 -0.16037796149E+04  0.16694373037E+04  0.00000000000E+00 0.  1.
<mgrwt>
<rscale>  0 0.15788321E+04</rscale>
<asrwt>0</asrwt>
<pdfrwt beam="1">  1        2 0.52788880E-01 0.15788321E+04</pdfrwt>
<pdfrwt beam="2">  1       -2 0.27941050E+00 0.15788321E+04</pdfrwt>
<totfact> 0.38606187E+00</totfact>
</mgrwt>
</event>
<event>
 6    1  0.8968082E-007  0.2742598E+04  0.7818608E-02  0.8321314E-01
         -1   -1    0    0    0  501 -0.00000000000E+00  0.00000000000E+00  0.91385019278E+03  0.91385019278E+03  0.00000000000E+00 0.  1.
          1   -1    0    0  501    0  0.00000000000E+00 -0.00000000000E+00 -0.20577342084E+04  0.20577342084E+04  0.00000000000E+00 0. -1.
         23    2    1    2    0    0 -0.86394718973E+03 -0.70707728175E+03  0.28746823707E+03  0.11563344734E+04  0.90046643669E+02 0.  0.
         11    1    3    3    0    0 -0.36133716589E+03 -0.35009250389E+03  0.11332240015E+03  0.51572402999E+03  0.00000000000E+00 0. -1.
        -11    1    3    3    0    0 -0.50261002384E+03 -0.35698477786E+03  0.17414583691E+03  0.64061044341E+03  0.00000000000E+00 0.  1.
         22    1    1    2    0    0  0.86394718973E+03  0.70707728175E+03 -0.14313522527E+04  0.18152499277E+04  0.00000000000E+00 0. -1.
<mgrwt>
<rscale>  0 0.27425979E+04</rscale>
<asrwt>0</asrwt>
<pdfrwt beam="1">  1        1 0.31657449E+00 0.27425979E+04</pdfrwt>
<pdfrwt beam="2">  1       -1 0.14059234E+00 0.27425979E+04</pdfrwt>
<totfact> 0.98180215E-01</totfact>
</mgrwt>
</event>
<event>
 6    1  0.8968082E-007  0.4685262E+04  0.7818608E-02  0.7878982E-01
          1   -1    0    0  501    0  0.00000000000E+00  0.00000000000E+00  0.42544032603E+04  0.42544032603E+04  0.00000000000E+00 0. -1.
         -1   -1    0    0    0  501 -0.00000000000E+00 -0.00000000000E+00 -0.12899387666E+04  0.12899387666E+04  0.00000000000E+00 0.  1.
         23    2    1    2    0    0 -0.86614726262E+03 -0.18325090047E+04  0.28705836726E+04  0.35152747680E+04  0.92767132027E+02 0.  0.
         13    1    3    3    0    0 -0.40259238586E+03 -0.74552155351E+03  0.12084733071E+04  0.14759033674E+04  0.00000000000E+00 0. -1.
        -13    1    3    3    0    0 -0.46355487676E+03 -0.10869874512E+04  0.16621103655E+04  0.20393714007E+04  0.00000000000E+00 0.  1.
         22    1    1    2    0    0  0.86614726262E+03  0.18325090047E+04  0.93880821126E+02  0.20290672589E+04  0.00000000000E+00 0.  1.
<mgrwt>
<rscale>  0 0.46852619E+04</rscale>
<asrwt>0</asrwt>
<pdfrwt beam="1">  1        1 0.65452357E+00 0.46852619E+04</pdfrwt>
<pdfrwt beam="2">  1       -1 0.19845212E+00 0.46852619E+04</pdfrwt>
<totfact> 0.63878335E-03</totfact>
</mgrwt>
</event>
<event>
 6    1  0.8968082E-007  0.2283664E+04  0.7818608E-02  0.8484390E-01
         -1   -1    0    0    0  501 -0.00000000000E+00  0.00000000000E+00  0.33702636595E+04  0.33702636595E+04  0.00000000000E+00 0.  1.
          1   -1    0    0  501    0  0.00000000000E+00 -0.00000000000E+00 -0.38684812815E+03  0.38684812815E+03  0.00000000000E+00 0. -1.
         23    2    1    2    0    0 -0.16041335051E+03  0.11115814722E+04  0.18161185648E+04  0.21372574669E+04  0.90758061450E+02 0.  0.
         13    1    3    3    0    0 -0.39587312158E+02  0.44045729509E+03  0.78639032442E+03  0.90220813920E+03  0.00000000000E+00 0. -1.
        -13    1    3    3    0    0 -0.12082603835E+03  0.67112417716E+03  0.10297282404E+04  0.12350493277E+04  0.00000000000E+00 0.  1.
         22    1    1    2    0    0  0.16041335051E+03 -0.11115814722E+04  0.11672969665E+04  0.16198543207E+04  0.00000000000E+00 0. -1.
<mgrwt>
<rscale>  0 0.22836639E+04</rscale>
<asrwt>0</asrwt>
<pdfrwt beam="1">  1        1 0.59515099E-01 0.22836639E+04</pdfrwt>
<pdfrwt beam="2">  1       -1 0.51850208E+00 0.22836639E+04</pdfrwt>
<totfact> 0.64245456E-02</totfact>
</mgrwt>
</event>
<event>
 6    1  0.8968082E-007  0.3536713E+04  0.7818608E-02  0.8105144E-01
          2   -1    0    0  501    0  0.00000000000E+00  0.00000000000E+00  0.21808870878E+04  0.21808870878E+04  0.00000000000E+00 0. -1.
         -2   -1    0    0    0  501 -0.00000000000E+00 -0.00000000000E+00 -0.14338593678E+04  0.14338593678E+04  0.00000000000E+00 0.  1.
         23    2    1    2    0    0 -0.79798031557E+03  0.81876691294E+03  0.17509697990E+04  0.20932171132E+04  0.92254020522E+02 0.  0.
         13    1    3    3    0    0 -0.31419062596E+03  0.30912397752E+03  0.75637386298E+03  0.87542835430E+03  0.00000000000E+00 0. -1.
        -13    1    3    3    0    0 -0.48378968961E+03  0.50964293542E+03  0.99459593605E+03  0.12177887589E+04  0.00000000000E+00 0.  1.
         22    1    1    2    0    0  0.79798031557E+03 -0.81876691294E+03 -0.10039420790E+04  0.15215293424E+04  0.00000000000E+00 0.  1.
<mgrwt>
<rscale>  0 0.35367134E+04</rscale>
<asrwt>0</asrwt>
<pdfrwt beam="1">  1        2 0.33552109E+00 0.35367134E+04</pdfrwt>
<pdfrwt beam="2">  1       -2 0.22059375E+00 0.35367134E+04</pdfrwt>
<totfact> 0.42492204E-01</totfact>
</mgrwt>
</event>
<event>
 6    1  0.8968082E-007  0.2055339E+04  0.7818608E-02  0.8581176E-01
          2   -1    0    0  501    0  0.00000000000E+00  0.00000000000E+00  0.96023541618E+03  0.96023541618E+03  0.00000000000E+00 0. -1.
         -2   -1    0    0    0  501 -0.00000000000E+00 -0.00000000000E+00 -0.10998392297E+04  0.10998392297E+04  0.00000000000E+00 0.  1.
         23    2    1    2    0    0 -0.45922719472E+03  0.86854144274E+03 -0.36385529755E+03  0.10523333188E+04  0.98797177335E+02 0.  0.
         13    1    3    3    0    0 -0.20230914343E+03  0.39678952449E+03 -0.21704077819E+03  0.49545697660E+03  0.00000000000E+00 0. -1.
        -13    1    3    3    0    0 -0.25691805128E+03  0.47175191825E+03 -0.14681451936E+03  0.55687634223E+03  0.00000000000E+00 0.  1.
         22    1    1    2    0    0  0.45922719472E+03 -0.86854144274E+03  0.22425148404E+03  0.10077413270E+04  0.00000000000E+00 0. -1.
<mgrwt>
<rscale>  0 0.20553390E+04</rscale>
<asrwt>0</asrwt>
<pdfrwt beam="1">  1        2 0.14772853E+00 0.20553390E+04</pdfrwt>
<pdfrwt beam="2">  1       -2 0.16920603E+00 0.20553390E+04</pdfrwt>
<totfact> 0.53375656E+00</totfact>
</mgrwt>
</event>
<event>
 6    1  0.8968082E-007  0.5655409E+04  0.7818608E-02  0.7734659E-01
          2   -1    0    0  501    0  0.00000000000E+00  0.00000000000E+00  0.42442637351E+04  0.42442637351E+04  0.00000000000E+00 0. -1.
         -2   -1    0    0    0  501 -0.00000000000E+00 -0.00000000000E+00 -0.18839342315E+04  0.18839342315E+04  0.00000000000E+00 0.  1.
         23    2    1    2    0    0  0.79480483850E+03  0.17694926072E+04  0.34087904350E+04  0.39231834217E+04  0.93258311036E+02 0.  0.
         11    1    3    3    0    0  0.14887945261E+03  0.40542325934E+03  0.71039281358E+03  0.83137901117E+03  0.00000000000E+00 0. -1.
        -11    1    3    3    0    0  0.64592538590E+03  0.13640693478E+04  0.26983976214E+04  0.30918044105E+04  0.00000000000E+00 0.  1.
         22    1    1    2    0    0 -0.79480483850E+03 -0.17694926072E+04 -0.10484609314E+04  0.22050145448E+04  0.00000000000E+00 0.  1.
<mgrwt>
<rscale>  0 0.56554094E+04</rscale>
<asrwt>0</asrwt>
<pdfrwt beam="1">  1        2 0.65296365E+00 0.56554094E+04</pdfrwt>
<pdfrwt beam="2">  1       -2 0.28983604E+00 0.56554094E+04</pdfrwt>
<totfact> 0.53506232E-03</totfact>
</mgrwt>
</event>
<event>
 6    1  0.8968082E-007  0.3659901E+04  0.7818608E-02  0.8076907E-01
         -1   -1    0    0    0  501 -0.00000000000E+00  0.00000000000E+00  0.27563646487E+04  0.27563646487E+04  0.00000000000E+00 0.  1.
          1   -1    0    0  501    0  0.00000000000E+00 -0.00000000000E+00 -0.12149041301E+04  0.12149041301E+04  0.00000000000E+00 0. -1.
         23    2    1    2    0    0 -0.14339635987E+04 -0.60900547167E+03  0.18112031690E+04  0.23901614566E+04  0.72633343112E+02 0.  0.
         13    1    3    3    0    0 -0.75311302337E+03 -0.33995209641E+03  0.10080270307E+04  0.13034052127E+04  0.00000000000E+00 0.  1.
        -13    1    3    3    0    0 -0.68085057530E+03 -0.26905337526E+03  0.80317613825E+03  0.10867562439E+04  0.00000000000E+00 0. -1.
         22    1    1    2    0    0  0.14339635987E+04  0.60900547167E+03 -0.26974265034E+03  0.15811073222E+04  0.00000000000E+00 0. -1.
<mgrwt>
<rscale>  0 0.36599010E+04</rscale>
<asrwt>0</asrwt>
<pdfrwt beam="1">  1        1 0.18690833E+00 0.36599010E+04</pdfrwt>
<pdfrwt beam="2">  1       -1 0.42405610E+00 0.36599010E+04</pdfrwt>
<totfact> 0.40975235E-02</totfact>
</mgrwt>
</event>
<event>
 6    1  0.8968082E-007  0.1393376E+04  0.7818608E-02  0.8958628E-01
          2   -1    0    0  501    0  0.00000000000E+00  0.00000000000E+00  0.57022624446E+03  0.57022624446E+03  0.00000000000E+00 0. -1.
         -2   -1    0    0    0  501 -0.00000000000E+00 -0.00000000000E+00 -0.85119518630E+03  0.85119518630E+03  0.00000000000E+00 0.  1.
         23    2    1    2    0    0 -0.31198542361E+03  0.34960279214E+03  0.38035974970E+03  0.61091994707E+03  0.94829455932E+02 0.  0.
         11    1    3    3    0    0 -0.21211283594E+03  0.19769003492E+03  0.28082868107E+03  0.40365573598E+03  0.00000000000E+00 0. -1.
        -11    1    3    3    0    0 -0.99872587672E+02  0.15191275722E+03  0.99531068628E+02  0.20726421109E+03  0.00000000000E+00 0.  1.
         22    1    1    2    0    0  0.31198542361E+03 -0.34960279214E+03 -0.66132869154E+03  0.81050148370E+03  0.00000000000E+00 0. -1.
<mgrwt>
<rscale>  0 0.13933755E+04</rscale>
<asrwt>0</asrwt>
<pdfrwt beam="1">  1        2 0.87727115E-01 0.13933755E+04</pdfrwt>
<pdfrwt beam="2">  1       -2 0.13095311E+00 0.13933755E+04</pdfrwt>
<totfact> 0.21881244E+01</totfact>
</mgrwt>
</event>
<event>
 6    1  0.8968082E-007  0.2897317E+04  0.7818608E-02  0.8273676E-01
         -1   -1    0    0    0  501 -0.00000000000E+00  0.00000000000E+00  0.29568142706E+04  0.29568142706E+04  0.00000000000E+00 0.  1.
          1   -1    0    0  501    0  0.00000000000E+00 -0.00000000000E+00 -0.70975404398E+03  0.70975404398E+03  0.00000000000E+00 0. -1.
         23    2    1    2    0    0 -0.98762877076E+03  0.13775929843E+03 -0.20262210905E+03  0.10216993653E+04  0.91791398495E+02 0.  0.
         13    1    3    3    0    0 -0.60764517222E+03  0.41553055213E+02 -0.10974311230E+03  0.61887225048E+03  0.00000000000E+00 0.  1.
        -13    1    3    3    0    0 -0.37998359854E+03  0.96206243215E+02 -0.92878996754E+02  0.40282711481E+03  0.00000000000E+00 0. -1.
         22    1    1    2    0    0  0.98762877076E+03 -0.13775929843E+03  0.24496823356E+04  0.26448689492E+04  0.00000000000E+00 0.  1.
<mgrwt>
<rscale>  0 0.28973166E+04</rscale>
<asrwt>0</asrwt>
<pdfrwt beam="1">  1        1 0.10919293E+00 0.28973166E+04</pdfrwt>
<pdfrwt beam="2">  1       -1 0.45489450E+00 0.28973166E+04</pdfrwt>
<totfact> 0.68482186E-02</totfact>
</mgrwt>
</event>
<event>
 6    1  0.8968082E-007  0.5150643E+04  0.7818608E-02  0.7805680E-01
          1   -1    0    0  501    0  0.00000000000E+00  0.00000000000E+00  0.25137028537E+04  0.25137028537E+04  0.00000000000E+00 0. -1.
         -1   -1    0    0    0  501 -0.00000000000E+00 -0.00000000000E+00 -0.26384510504E+04  0.26384510504E+04  0.00000000000E+00 0.  1.
         23    2    1    2    0    0 -0.16902295536E+04 -0.65666953955E+03 -0.18904977231E+04  0.26211536634E+04  0.91509879419E+02 0.  0.
         11    1    3    3    0    0 -0.74032681030E+03 -0.25031919656E+03 -0.77235027827E+03  0.10987576796E+04  0.00000000000E+00 0. -1.
        -11    1    3    3    0    0 -0.94990274333E+03 -0.40635034299E+03 -0.11181474449E+04  0.15223959838E+04  0.00000000000E+00 0.  1.
         22    1    1    2    0    0  0.16902295536E+04  0.65666953955E+03  0.17657495265E+04  0.25310002407E+04  0.00000000000E+00 0. -1.
<mgrwt>
<rscale>  0 0.51506434E+04</rscale>
<asrwt>0</asrwt>
<pdfrwt beam="1">  1        1 0.38672351E+00 0.51506434E+04</pdfrwt>
<pdfrwt beam="2">  1       -1 0.40591555E+00 0.51506434E+04</pdfrwt>
<totfact> 0.61663328E-03</totfact>
</mgrwt>
</event>
<event>
 6    1  0.8968082E-007  0.4556096E+04  0.7818608E-02  0.7900889E-01
         -1   -1    0    0    0  501 -0.00000000000E+00  0.00000000000E+00  0.19373376392E+04  0.19373376392E+04  0.00000000000E+00 0.  1.
          1   -1    0    0  501    0  0.00000000000E+00 -0.00000000000E+00 -0.26786780512E+04  0.26786780512E+04  0.00000000000E+00 0. -1.
         23    2    1    2    0    0 -0.93565562705E+03  0.12434088925E+04 -0.20550644351E+04  0.25795020187E+04  0.94993188490E+02 0.  0.
         13    1    3    3    0    0 -0.94075700746E+02  0.11591616723E+03 -0.15456090865E+03  0.21488571330E+03  0.00000000000E+00 0. -1.
        -13    1    3    3    0    0 -0.84157992630E+03  0.11274927253E+04 -0.19005035264E+04  0.23646163054E+04  0.00000000000E+00 0.  1.
         22    1    1    2    0    0  0.93565562705E+03 -0.12434088925E+04  0.13137240230E+04  0.20365136717E+04  0.00000000000E+00 0.  1.
<mgrwt>
<rscale>  0 0.45560965E+04</rscale>
<asrwt>0</asrwt>
<pdfrwt beam="1">  1        1 0.41210432E+00 0.45560965E+04</pdfrwt>
<pdfrwt beam="2">  1       -1 0.29805194E+00 0.45560965E+04</pdfrwt>
<totfact> 0.25839843E-02</totfact>
</mgrwt>
</event>
<event>
 6    1  0.8968082E-007  0.1499793E+04  0.7818608E-02  0.8884591E-01
          1   -1    0    0  501    0  0.00000000000E+00  0.00000000000E+00  0.10962811769E+04  0.10962811769E+04  0.00000000000E+00 0. -1.
         -1   -1    0    0    0  501 -0.00000000000E+00 -0.00000000000E+00 -0.51295673310E+03  0.51295673310E+03  0.00000000000E+00 0.  1.
         23    2    1    2    0    0  0.38085500494E+03  0.38281562529E+03 -0.26131513402E+03  0.60673386802E+03  0.90785734439E+02 0.  0.
         13    1    3    3    0    0  0.14303104903E+03  0.15057400851E+03 -0.52617955394E+02  0.21424066434E+03  0.00000000000E+00 0.  1.
        -13    1    3    3    0    0  0.23782395591E+03  0.23224161678E+03 -0.20869717863E+03  0.39249320369E+03  0.00000000000E+00 0. -1.
         22    1    1    2    0    0 -0.38085500494E+03 -0.38281562529E+03  0.84463957786E+03  0.10025040420E+04  0.00000000000E+00 0. -1.
<mgrwt>
<rscale>  0 0.14997931E+04</rscale>
<asrwt>0</asrwt>
<pdfrwt beam="1">  1        1 0.16865864E+00 0.14997931E+04</pdfrwt>
<pdfrwt beam="2">  1       -1 0.78916421E-01 0.14997931E+04</pdfrwt>
<totfact> 0.19826505E+01</totfact>
</mgrwt>
</event>
<event>
 6    1  0.8968082E-007  0.8564256E+03  0.7818608E-02  0.9481753E-01
         -1   -1    0    0    0  501 -0.00000000000E+00  0.00000000000E+00  0.18847288428E+03  0.18847288428E+03  0.00000000000E+00 0.  1.
          1   -1    0    0  501    0  0.00000000000E+00 -0.00000000000E+00 -0.97290494237E+03  0.97290494237E+03  0.00000000000E+00 0. -1.
         23    2    1    2    0    0  0.12209992901E+03  0.57129111056E+02 -0.94081692471E+03  0.95491147466E+03  0.92451666437E+02 0.  0.
         11    1    3    3    0    0  0.52932152312E+02 -0.20152108110E+01 -0.59385358484E+03  0.59621133338E+03  0.00000000000E+00 0.  1.
        -11    1    3    3    0    0  0.69167776702E+02  0.59144321867E+02 -0.34696333987E+03  0.35870014128E+03  0.00000000000E+00 0. -1.
         22    1    1    2    0    0 -0.12209992901E+03 -0.57129111056E+02  0.15638486661E+03  0.20646635198E+03  0.00000000000E+00 0.  1.
<mgrwt>
<rscale>  0 0.85642560E+03</rscale>
<asrwt>0</asrwt>
<pdfrwt beam="1">  1        1 0.14967768E+00 0.85642560E+03</pdfrwt>
<pdfrwt beam="2">  1       -1 0.28995829E-01 0.85642560E+03</pdfrwt>
<totfact> 0.17350804E+02</totfact>
</mgrwt>
</event>
<event>
 6    1  0.8968082E-007  0.8227568E+03  0.7818608E-02  0.9527649E-01
         -2   -1    0    0    0  501 -0.00000000000E+00  0.00000000000E+00  0.32542952494E+03  0.32542952494E+03  0.00000000000E+00 0.  1.
          2   -1    0    0  501    0  0.00000000000E+00 -0.00000000000E+00 -0.52002712707E+03  0.52002712707E+03  0.00000000000E+00 0. -1.
         23    2    1    2    0    0 -0.32081777153E+03 -0.22958294559E+03 -0.19615992635E+03  0.45095086968E+03  0.96154036421E+02 0.  0.
         13    1    3    3    0    0 -0.20093624477E+03 -0.19780121765E+03 -0.13235995036E+03  0.31148009989E+03  0.00000000000E+00 0.  1.
        -13    1    3    3    0    0 -0.11988152676E+03 -0.31781727941E+02 -0.63799975996E+02  0.13947076979E+03  0.00000000000E+00 0. -1.
         22    1    1    2    0    0  0.32081777153E+03  0.22958294559E+03  0.15623242182E+01  0.39450578233E+03  0.00000000000E+00 0.  1.
<mgrwt>
<rscale>  0 0.82275678E+03</rscale>
<asrwt>0</asrwt>
<pdfrwt beam="1">  1        2 0.80004173E-01 0.82275678E+03</pdfrwt>
<pdfrwt beam="2">  1       -2 0.50066081E-01 0.82275678E+03</pdfrwt>
<totfact> 0.22338392E+02</totfact>
</mgrwt>
</event>
<event>
 6    1  0.8968082E-007  0.2550759E+04  0.7818608E-02  0.8385122E-01
          2   -1    0    0  501    0  0.00000000000E+00  0.00000000000E+00  0.29946633713E+04  0.29946633713E+04  0.00000000000E+00 0. -1.
         -2   -1    0    0    0  501 -0.00000000000E+00 -0.00000000000E+00 -0.54316365073E+03  0.54316365073E+03  0.00000000000E+00 0.  1.
         23    2    1    2    0    0  0.95034298172E+03  0.63753543370E+03  0.20029282450E+04  0.23086730118E+04  0.92985529681E+02 0.  0.
         11    1    3    3    0    0  0.40121532010E+03  0.23952896764E+03  0.74048038263E+03  0.87559069004E+03  0.00000000000E+00 0. -1.
        -11    1    3    3    0    0  0.54912766162E+03  0.39800646607E+03  0.12624478624E+04  0.14330823218E+04  0.00000000000E+00 0.  1.
         22    1    1    2    0    0 -0.95034298172E+03 -0.63753543370E+03  0.44857147555E+03  0.12291540102E+04  0.00000000000E+00 0.  1.
<mgrwt>
<rscale>  0 0.25507585E+04</rscale>
<asrwt>0</asrwt>
<pdfrwt beam="1">  1        2 0.46071743E+00 0.25507585E+04</pdfrwt>
<pdfrwt beam="2">  1       -2 0.83563641E-01 0.25507585E+04</pdfrwt>
<totfact> 0.19520069E+00</totfact>
</mgrwt>
</event>
<event>
 6    1  0.8968082E-007  0.3666633E+03  0.7818608E-02  0.1055976E+00
         -2   -1    0    0    0  501 -0.00000000000E+00  0.00000000000E+00  0.20173931322E+02  0.20173931322E+02  0.00000000000E+00 0.  1.
          2   -1    0    0  501    0  0.00000000000E+00 -0.00000000000E+00 -0.16660362930E+04  0.16660362930E+04  0.00000000000E+00 0. -1.
         23    2    1    2    0    0  0.15900492617E+03  0.53945979492E+02 -0.10786373327E+04  0.10946555196E+04  0.81360160511E+02 0.  0.
         13    1    3    3    0    0  0.98483303668E+02  0.33830240471E+02 -0.41128638123E+03  0.42426399052E+03  0.00000000000E+00 0. -1.
        -13    1    3    3    0    0  0.60521622498E+02  0.20115739021E+02 -0.66735095152E+03  0.67039152907E+03  0.00000000000E+00 0.  1.
         22    1    1    2    0    0 -0.15900492617E+03 -0.53945979492E+02 -0.56722502891E+03  0.59155470472E+03  0.00000000000E+00 0.  1.
<mgrwt>
<rscale>  0 0.36666334E+03</rscale>
<asrwt>0</asrwt>
<pdfrwt beam="1">  1        2 0.25631324E+00 0.36666334E+03</pdfrwt>
<pdfrwt beam="2">  1       -2 0.31036822E-02 0.36666334E+03</pdfrwt>
<totfact> 0.44857981E+03</totfact>
</mgrwt>
</event>
<event>
 6    1  0.8968082E-007  0.8511588E+03  0.7818608E-02  0.9488783E-01
          1   -1    0    0  501    0  0.00000000000E+00  0.00000000000E+00  0.13524696903E+04  0.13524696903E+04  0.00000000000E+00 0. -1.
         -1   -1    0    0    0  501 -0.00000000000E+00 -0.00000000000E+00 -0.13391635457E+03  0.13391635457E+03  0.00000000000E+00 0.  1.
         23    2    1    2    0    0  0.20029089457E+03  0.10891676099E+03  0.12336521529E+04  0.12578969257E+04  0.91802713367E+02 0.  0.
         13    1    3    3    0    0  0.90849843918E+02  0.46447350137E+02  0.32755998998E+03  0.34308395111E+03  0.00000000000E+00 0.  1.
        -13    1    3    3    0    0  0.10944105065E+03  0.62469410858E+02  0.90609216289E+03  0.91481297461E+03  0.00000000000E+00 0. -1.
         22    1    1    2    0    0 -0.20029089457E+03 -0.10891676099E+03 -0.15098817181E+02  0.22848911911E+03  0.00000000000E+00 0.  1.
<mgrwt>
<rscale>  0 0.85115876E+03</rscale>
<asrwt>0</asrwt>
<pdfrwt beam="1">  1        1 0.20807225E+00 0.85115876E+03</pdfrwt>
<pdfrwt beam="2">  1       -1 0.20602517E-01 0.85115876E+03</pdfrwt>
<totfact> 0.16314491E+02</totfact>
</mgrwt>
</event>
<event>
 6    1  0.8968082E-007  0.9086579E+03  0.7818608E-02  0.9414823E-01
          1   -1    0    0  501    0  0.00000000000E+00  0.00000000000E+00  0.25771182155E+03  0.25771182155E+03  0.00000000000E+00 0. -1.
         -1   -1    0    0    0  501 -0.00000000000E+00 -0.00000000000E+00 -0.80095195122E+03  0.80095195122E+03  0.00000000000E+00 0.  1.
         23    2    1    2    0    0  0.12540415761E+03  0.60372997021E+02 -0.77247552835E+03  0.79048478493E+03  0.93683786191E+02 0.  0.
         13    1    3    3    0    0  0.43438355395E+02 -0.24281902647E+02 -0.21322324448E+03  0.21895354188E+03  0.00000000000E+00 0.  1.
        -13    1    3    3    0    0  0.81965802216E+02  0.84654899668E+02 -0.55925228387E+03  0.57153124305E+03  0.00000000000E+00 0. -1.
         22    1    1    2    0    0 -0.12540415761E+03 -0.60372997021E+02  0.22923539868E+03  0.26817898785E+03  0.00000000000E+00 0. -1.
<mgrwt>
<rscale>  0 0.90865788E+03</rscale>
<asrwt>0</asrwt>
<pdfrwt beam="1">  1        1 0.39647973E-01 0.90865788E+03</pdfrwt>
<pdfrwt beam="2">  1       -1 0.12322338E+00 0.90865788E+03</pdfrwt>
<totfact> 0.62482773E+01</totfact>
</mgrwt>
</event>
<event>
 6    1  0.8968082E-007  0.2737980E+03  0.7818608E-02  0.1099125E+00
          3   -1    0    0  501    0  0.00000000000E+00  0.00000000000E+00  0.39190284394E+03  0.39190284394E+03  0.00000000000E+00 0. -1.
         -3   -1    0    0    0  501 -0.00000000000E+00 -0.00000000000E+00 -0.47821375376E+02  0.47821375376E+02  0.00000000000E+00 0.  1.
         23    2    1    2    0    0 -0.12010188098E+03 -0.15049104436E+02  0.17009880939E+03  0.22777870025E+03  0.91096618880E+02 0.  0.
         11    1    3    3    0    0 -0.43874113553E+02 -0.43470940352E+02  0.37631117252E+02  0.72324003490E+02  0.00000000000E+00 0.  1.
        -11    1    3    3    0    0 -0.76227767428E+02  0.28421835916E+02  0.13246769214E+03  0.15545469676E+03  0.00000000000E+00 0. -1.
         22    1    1    2    0    0  0.12010188098E+03  0.15049104436E+02  0.17398265917E+03  0.21194551907E+03  0.00000000000E+00 0. -1.
<mgrwt>
<rscale>  0 0.27379798E+03</rscale>
<asrwt>0</asrwt>
<pdfrwt beam="1">  1        3 0.60292743E-01 0.27379798E+03</pdfrwt>
<pdfrwt beam="2">  1       -3 0.73571349E-02 0.27379798E+03</pdfrwt>
<totfact> 0.84746375E+02</totfact>
</mgrwt>
</event>
<event>
 6    1  0.8968082E-007  0.2703187E+04  0.7818608E-02  0.8333972E-01
          1   -1    0    0  501    0  0.00000000000E+00  0.00000000000E+00  0.68073734016E+03  0.68073734016E+03  0.00000000000E+00 0. -1.
         -1   -1    0    0    0  501 -0.00000000000E+00 -0.00000000000E+00 -0.26835682960E+04  0.26835682960E+04  0.00000000000E+00 0.  1.
         23    2    1    2    0    0  0.96252925341E+03  0.65016608524E+03 -0.18589005906E+04  0.21938807338E+04  0.91775630002E+02 0.  0.
         13    1    3    3    0    0  0.29445011092E+03  0.17789767562E+03 -0.48041270423E+03  0.59088477489E+03  0.00000000000E+00 0. -1.
        -13    1    3    3    0    0  0.66807914249E+03  0.47226840962E+03 -0.13784878864E+04  0.16029959589E+04  0.00000000000E+00 0.  1.
         22    1    1    2    0    0 -0.96252925341E+03 -0.65016608524E+03 -0.14393036524E+03  0.11704249024E+04  0.00000000000E+00 0. -1.
<mgrwt>
<rscale>  0 0.27031871E+04</rscale>
<asrwt>0</asrwt>
<pdfrwt beam="1">  1        1 0.10472882E+00 0.27031871E+04</pdfrwt>
<pdfrwt beam="2">  1       -1 0.41285666E+00 0.27031871E+04</pdfrwt>
<totfact> 0.14479709E-01</totfact>
</mgrwt>
</event>
<event>
 6    1  0.8968082E-007  0.1794699E+04  0.7818608E-02  0.8709124E-01
         -2   -1    0    0    0  501 -0.00000000000E+00  0.00000000000E+00  0.40846892613E+03  0.40846892613E+03  0.00000000000E+00 0.  1.
          2   -1    0    0  501    0  0.00000000000E+00 -0.00000000000E+00 -0.19713516459E+04  0.19713516459E+04  0.00000000000E+00 0. -1.
         23    2    1    2    0    0  0.24966884399E+03  0.27841538563E+03  0.29468691575E+03  0.48498163179E+03  0.92288386303E+02 0.  0.
         11    1    3    3    0    0  0.66408309393E+02  0.73451884402E+02  0.13369147074E+03  0.16636902424E+03  0.00000000000E+00 0.  1.
        -11    1    3    3    0    0  0.18326053459E+03  0.20496350123E+03  0.16099544501E+03  0.31861260755E+03  0.00000000000E+00 0. -1.
         22    1    1    2    0    0 -0.24966884399E+03 -0.27841538563E+03 -0.18575696355E+04  0.18948389403E+04  0.00000000000E+00 0. -1.
<mgrwt>
<rscale>  0 0.17946987E+04</rscale>
<asrwt>0</asrwt>
<pdfrwt beam="1">  1        2 0.30328487E+00 0.17946987E+04</pdfrwt>
<pdfrwt beam="2">  1       -2 0.62841374E-01 0.17946987E+04</pdfrwt>
<totfact> 0.15364374E+01</totfact>
</mgrwt>
</event>
<event>
 6    1  0.8968082E-007  0.2305996E+04  0.7818608E-02  0.8475561E-01
          2   -1    0    0  501    0  0.00000000000E+00  0.00000000000E+00  0.19638089404E+04  0.19638089404E+04  0.00000000000E+00 0. -1.
         -2   -1    0    0    0  501 -0.00000000000E+00 -0.00000000000E+00 -0.67695172138E+03  0.67695172138E+03  0.00000000000E+00 0.  1.
         23    2    1    2    0    0 -0.39700121214E+03 -0.99323182313E+03  0.15704146628E+03  0.10849319270E+04  0.91081541055E+02 0.  0.
         11    1    3    3    0    0 -0.80923151778E+02 -0.31262656066E+03  0.55759381046E+02  0.32770876018E+03  0.00000000000E+00 0. -1.
        -11    1    3    3    0    0 -0.31607806036E+03 -0.68060526248E+03  0.10128208523E+03  0.75722316680E+03  0.00000000000E+00 0.  1.
         22    1    1    2    0    0  0.39700121214E+03  0.99323182313E+03  0.11298157527E+04  0.15558287348E+04  0.00000000000E+00 0.  1.
<mgrwt>
<rscale>  0 0.23059955E+04</rscale>
<asrwt>0</asrwt>
<pdfrwt beam="1">  1        2 0.30212445E+00 0.23059955E+04</pdfrwt>
<pdfrwt beam="2">  1       -2 0.10414642E+00 0.23059955E+04</pdfrwt>
<totfact> 0.47536486E+00</totfact>
</mgrwt>
</event>
<event>
 6    1  0.8968082E-007  0.3092974E+04  0.7818608E-02  0.8217669E-01
         -2   -1    0    0    0  501 -0.00000000000E+00  0.00000000000E+00  0.22122240227E+04  0.22122240227E+04  0.00000000000E+00 0.  1.
          2   -1    0    0  501    0  0.00000000000E+00 -0.00000000000E+00 -0.10810937102E+04  0.10810937102E+04  0.00000000000E+00 0. -1.
         23    2    1    2    0    0 -0.94536239261E+03 -0.78097413031E+03  0.15670286842E+04  0.19919192405E+04  0.92372711941E+02 0.  0.
         11    1    3    3    0    0 -0.43295943318E+03 -0.40569667701E+03  0.80156273658E+03  0.99726951482E+03  0.00000000000E+00 0. -1.
        -11    1    3    3    0    0 -0.51240295943E+03 -0.37527745331E+03  0.76546594762E+03  0.99464972566E+03  0.00000000000E+00 0.  1.
         22    1    1    2    0    0  0.94536239261E+03  0.78097413031E+03 -0.43589837173E+03  0.13013984924E+04  0.00000000000E+00 0. -1.
<mgrwt>
<rscale>  0 0.30929736E+04</rscale>
<asrwt>0</asrwt>
<pdfrwt beam="1">  1        2 0.16632211E+00 0.30929736E+04</pdfrwt>
<pdfrwt beam="2">  1       -2 0.34034216E+00 0.30929736E+04</pdfrwt>
<totfact> 0.34011212E-01</totfact>
</mgrwt>
</event>
<event>
 6    1  0.8968082E-007  0.7221956E+04  0.7818608E-02  0.7554968E-01
         -2   -1    0    0    0  501 -0.00000000000E+00  0.00000000000E+00  0.29156310143E+04  0.29156310143E+04  0.00000000000E+00 0.  1.
          2   -1    0    0  501    0  0.00000000000E+00 -0.00000000000E+00 -0.44721575003E+04  0.44721575003E+04  0.00000000000E+00 0. -1.
         23    2    1    2    0    0  0.14697749826E+04 -0.30609822222E+04  0.47674042374E+03  0.34300082035E+04  0.88454397089E+02 0.  0.
         13    1    3    3    0    0  0.11431314495E+04 -0.22989997782E+04  0.34635480652E+03  0.25907742363E+04  0.00000000000E+00 0. -1.
        -13    1    3    3    0    0  0.32664353305E+03 -0.76198244399E+03  0.13038561722E+03  0.83923396727E+03  0.00000000000E+00 0.  1.
         22    1    1    2    0    0 -0.14697749826E+04  0.30609822222E+04 -0.20332669097E+04  0.39577803110E+04  0.00000000000E+00 0. -1.
<mgrwt>
<rscale>  0 0.72219557E+04</rscale>
<asrwt>0</asrwt>
<pdfrwt beam="1">  1        2 0.68802423E+00 0.72219557E+04</pdfrwt>
<pdfrwt beam="2">  1       -2 0.44855862E+00 0.72219557E+04</pdfrwt>
<totfact> 0.28320535E-04</totfact>
</mgrwt>
</event>
<event>
 6    1  0.8968082E-007  0.4641563E+04  0.7818608E-02  0.7886311E-01
         -1   -1    0    0    0  501 -0.00000000000E+00  0.00000000000E+00  0.31498523677E+04  0.31498523677E+04  0.00000000000E+00 0.  1.
          1   -1    0    0  501    0  0.00000000000E+00 -0.00000000000E+00 -0.17099298369E+04  0.17099298369E+04  0.00000000000E+00 0. -1.
         23    2    1    2    0    0 -0.24744329509E+03  0.18774347426E+04  0.21226744838E+04  0.28467895006E+04  0.11168750717E+03 0.  0.
         13    1    3    3    0    0 -0.18763855114E+03  0.10247745637E+04  0.11370585614E+04  0.15421651352E+04  0.00000000000E+00 0.  1.
        -13    1    3    3    0    0 -0.59804743954E+02  0.85266017882E+03  0.98561592248E+03  0.13046243653E+04  0.00000000000E+00 0. -1.
         22    1    1    2    0    0  0.24744329509E+03 -0.18774347426E+04 -0.68275195303E+03  0.20129927040E+04  0.00000000000E+00 0. -1.
<mgrwt>
<rscale>  0 0.46415629E+04</rscale>
<asrwt>0</asrwt>
<pdfrwt beam="1">  1        1 0.26306613E+00 0.46415629E+04</pdfrwt>
<pdfrwt beam="2">  1       -1 0.48459267E+00 0.46415629E+04</pdfrwt>
<totfact> 0.65791003E-03</totfact>
</mgrwt>
</event>
<event>
 6    1  0.8968082E-007  0.2996763E+04  0.7818608E-02  0.8244656E-01
          2   -1    0    0  501    0  0.00000000000E+00  0.00000000000E+00  0.11193655604E+04  0.11193655604E+04  0.00000000000E+00 0. -1.
         -2   -1    0    0    0  501 -0.00000000000E+00 -0.00000000000E+00 -0.20057319634E+04  0.20057319634E+04  0.00000000000E+00 0.  1.
         23    2    1    2    0    0  0.14668680944E+04  0.29877679179E+03 -0.42689659929E+03  0.15591849853E+04  0.88586308575E+02 0.  0.
         11    1    3    3    0    0  0.94519505541E+03  0.18095301512E+03 -0.23166639360E+03  0.98985201136E+03  0.00000000000E+00 0. -1.
        -11    1    3    3    0    0  0.52167303903E+03  0.11782377667E+03 -0.19523020568E+03  0.56933297394E+03  0.00000000000E+00 0.  1.
         22    1    1    2    0    0 -0.14668680944E+04 -0.29877679179E+03 -0.45946980364E+03  0.15659125385E+04  0.00000000000E+00 0.  1.
<mgrwt>
<rscale>  0 0.29967631E+04</rscale>
<asrwt>0</asrwt>
<pdfrwt beam="1">  1        2 0.17221009E+00 0.29967631E+04</pdfrwt>
<pdfrwt beam="2">  1       -2 0.30857414E+00 0.29967631E+04</pdfrwt>
<totfact> 0.51098923E-01</totfact>
</mgrwt>
</event>
<event>
 6    1  0.8968082E-007  0.2956586E+04  0.7818608E-02  0.8256238E-01
         -1   -1    0    0    0  501 -0.00000000000E+00  0.00000000000E+00  0.16109872198E+04  0.16109872198E+04  0.00000000000E+00 0.  1.
          1   -1    0    0  501    0  0.00000000000E+00 -0.00000000000E+00 -0.13565289127E+04  0.13565289127E+04  0.00000000000E+00 0. -1.
         23    2    1    2    0    0 -0.72291169291E+02  0.13730121964E+04 -0.41395812966E+03  0.14387358875E+04  0.90615209475E+02 0.  0.
         11    1    3    3    0    0 -0.14635849021E+02  0.64824518092E+03 -0.15255356603E+03  0.66611456460E+03  0.00000000000E+00 0.  1.
        -11    1    3    3    0    0 -0.57655320270E+02  0.72476701550E+03 -0.26140456363E+03  0.77262132290E+03  0.00000000000E+00 0. -1.
         22    1    1    2    0    0  0.72291169291E+02 -0.13730121964E+04  0.66841643681E+03  0.15287802451E+04  0.00000000000E+00 0.  1.
<mgrwt>
<rscale>  0 0.29565864E+04</rscale>
<asrwt>0</asrwt>
<pdfrwt beam="1">  1        1 0.20869676E+00 0.29565864E+04</pdfrwt>
<pdfrwt beam="2">  1       -1 0.24784419E+00 0.29565864E+04</pdfrwt>
<totfact> 0.50724200E-01</totfact>
</mgrwt>
</event>
<event>
 6    1  0.8968082E-007  0.2033503E+04  0.7818608E-02  0.8591115E-01
          2   -1    0    0  501    0  0.00000000000E+00  0.00000000000E+00  0.22703404388E+04  0.22703404388E+04  0.00000000000E+00 0. -1.
         -2   -1    0    0    0  501 -0.00000000000E+00 -0.00000000000E+00 -0.45534318315E+03  0.45534318315E+03  0.00000000000E+00 0.  1.
         23    2    1    2    0    0  0.76762479091E+03 -0.43100758277E+03  0.23307072982E+03  0.91529502025E+03  0.91802249304E+02 0.  0.
         13    1    3    3    0    0  0.75093738625E+03 -0.41935169102E+03  0.24135783175E+03  0.89331763767E+03  0.00000000000E+00 0. -1.
        -13    1    3    3    0    0  0.16687404659E+02 -0.11655891743E+02 -0.82871019287E+01  0.21977382577E+02  0.00000000000E+00 0.  1.
         22    1    1    2    0    0 -0.76762479091E+03  0.43100758277E+03  0.15819265258E+04  0.18103886017E+04  0.00000000000E+00 0. -1.
<mgrwt>
<rscale>  0 0.20335034E+04</rscale>
<asrwt>0</asrwt>
<pdfrwt beam="1">  1        2 0.34928314E+00 0.20335034E+04</pdfrwt>
<pdfrwt beam="2">  1       -2 0.70052799E-01 0.20335034E+04</pdfrwt>
<totfact> 0.81040227E+00</totfact>
</mgrwt>
</event>
<event>
 6    1  0.8968082E-007  0.1986699E+03  0.7818608E-02  0.1150866E+00
          1   -1    0    0  501    0  0.00000000000E+00  0.00000000000E+00  0.70657517594E+03  0.70657517594E+03  0.00000000000E+00 0. -1.
         -1   -1    0    0    0  501 -0.00000000000E+00 -0.00000000000E+00 -0.13965160015E+02  0.13965160015E+02  0.00000000000E+00 0.  1.
         23    2    1    2    0    0 -0.69046422209E+02 -0.42161340430E+02  0.47127606522E+03  0.48488443261E+03  0.80416393176E+02 0.  0.
         11    1    3    3    0    0 -0.51564739282E+02 -0.29197021887E+02  0.12947204737E+03  0.14238819991E+03  0.00000000000E+00 0. -1.
        -11    1    3    3    0    0 -0.17481682927E+02 -0.12964318543E+02  0.34180401785E+03  0.34249623269E+03  0.00000000000E+00 0.  1.
         22    1    1    2    0    0  0.69046422209E+02  0.42161340430E+02  0.22133395071E+03  0.23565590335E+03  0.00000000000E+00 0.  1.
<mgrwt>
<rscale>  0 0.19866993E+03</rscale>
<asrwt>0</asrwt>
<pdfrwt beam="1">  1        1 0.10870385E+00 0.19866993E+03</pdfrwt>
<pdfrwt beam="2">  1       -1 0.21484867E-02 0.19866993E+03</pdfrwt>
<totfact> 0.16762675E+04</totfact>
</mgrwt>
</event>
<event>
 6    1  0.8968082E-007  0.9100398E+03  0.7818608E-02  0.9413118E-01
         -2   -1    0    0    0  501 -0.00000000000E+00  0.00000000000E+00  0.10032628917E+03  0.10032628917E+03  0.00000000000E+00 0.  1.
          2   -1    0    0  501    0  0.00000000000E+00 -0.00000000000E+00 -0.20636973968E+04  0.20636973968E+04  0.00000000000E+00 0. -1.
         23    2    1    2    0    0  0.35504059643E+02  0.34592968663E+03 -0.30952381574E+03  0.47401222115E+03  0.89189163836E+02 0.  0.
         13    1    3    3    0    0  0.11996590209E+02  0.26321194869E+03 -0.27638465894E+03  0.38185458987E+03  0.00000000000E+00 0.  1.
        -13    1    3    3    0    0  0.23507469434E+02  0.82717737943E+02 -0.33139156802E+02  0.92157631280E+02  0.00000000000E+00 0. -1.
         22    1    1    2    0    0 -0.35504059643E+02 -0.34592968663E+03 -0.16538472919E+04  0.16900114649E+04  0.00000000000E+00 0. -1.
<mgrwt>
<rscale>  0 0.91003978E+03</rscale>
<asrwt>0</asrwt>
<pdfrwt beam="1">  1        2 0.31749192E+00 0.91003978E+03</pdfrwt>
<pdfrwt beam="2">  1       -2 0.15434813E-01 0.91003978E+03</pdfrwt>
<totfact> 0.20800009E+02</totfact>
</mgrwt>
</event>
<event>
 6    1  0.8968082E-007  0.1605545E+04  0.7818608E-02  0.8817149E-01
          1   -1    0    0  501    0  0.00000000000E+00  0.00000000000E+00  0.85085913291E+03  0.85085913291E+03  0.00000000000E+00 0. -1.
         -1   -1    0    0    0  501 -0.00000000000E+00 -0.00000000000E+00 -0.75740372341E+03  0.75740372341E+03  0.00000000000E+00 0.  1.
         23    2    1    2    0    0  0.10657303873E+02 -0.30862463883E+03  0.78641950918E+03  0.84960483766E+03  0.89498547078E+02 0.  0.
         11    1    3    3    0    0  0.45146206471E+02 -0.18123683890E+03  0.40485457603E+03  0.44586118857E+03  0.00000000000E+00 0.  1.
        -11    1    3    3    0    0 -0.34488902598E+02 -0.12738779993E+03  0.38156493315E+03  0.40374364909E+03  0.00000000000E+00 0. -1.
         22    1    1    2    0    0 -0.10657303873E+02  0.30862463883E+03 -0.69296409969E+03  0.75865801866E+03  0.00000000000E+00 0.  1.
<mgrwt>
<rscale>  0 0.16055452E+04</rscale>
<asrwt>0</asrwt>
<pdfrwt beam="1">  1        1 0.13090141E+00 0.16055452E+04</pdfrwt>
<pdfrwt beam="2">  1       -1 0.11652365E+00 0.16055452E+04</pdfrwt>
<totfact> 0.12755515E+01</totfact>
</mgrwt>
</event>
<event>
 6    1  0.8968082E-007  0.8275827E+03  0.7818608E-02  0.9520929E-01
         -2   -1    0    0    0  501 -0.00000000000E+00  0.00000000000E+00  0.44210971062E+03  0.44210971062E+03  0.00000000000E+00 0.  1.
          2   -1    0    0  501    0  0.00000000000E+00 -0.00000000000E+00 -0.38728690472E+03  0.38728690472E+03  0.00000000000E+00 0. -1.
         23    2    1    2    0    0  0.53825999715E+02  0.38962397507E+03  0.13818361541E+03  0.42733554441E+03  0.93898220172E+02 0.  0.
         13    1    3    3    0    0  0.26593669429E+02  0.83740628050E+02 -0.60248520846E+01  0.88068239919E+02  0.00000000000E+00 0. -1.
        -13    1    3    3    0    0  0.27232330285E+02  0.30588334702E+03  0.14420846750E+03  0.33926730449E+03  0.00000000000E+00 0.  1.
         22    1    1    2    0    0 -0.53825999715E+02 -0.38962397507E+03 -0.83360809516E+02  0.40206107093E+03  0.00000000000E+00 0. -1.
<mgrwt>
<rscale>  0 0.82758275E+03</rscale>
<asrwt>0</asrwt>
<pdfrwt beam="1">  1        2 0.59582601E-01 0.82758275E+03</pdfrwt>
<pdfrwt beam="2">  1       -2 0.68016878E-01 0.82758275E+03</pdfrwt>
<totfact> 0.16433981E+02</totfact>
</mgrwt>
</event>
<event>
 6    1  0.8968082E-007  0.8307895E+03  0.7818608E-02  0.9516490E-01
          1   -1    0    0  501    0  0.00000000000E+00  0.00000000000E+00  0.24229511593E+03  0.24229511593E+03  0.00000000000E+00 0. -1.
         -1   -1    0    0    0  501 -0.00000000000E+00 -0.00000000000E+00 -0.71215970811E+03  0.71215970811E+03  0.00000000000E+00 0.  1.
         23    2    1    2    0    0 -0.14251036261E+02  0.39459040802E+03 -0.10963333543E+03  0.41997260686E+03  0.91939328584E+02 0.  0.
         13    1    3    3    0    0 -0.12952126892E+02  0.66355276696E+02  0.14324893034E+02  0.69108486432E+02  0.00000000000E+00 0. -1.
        -13    1    3    3    0    0 -0.12989093687E+01  0.32823513132E+03 -0.12395822847E+03  0.35086412043E+03  0.00000000000E+00 0.  1.
         22    1    1    2    0    0  0.14251036261E+02 -0.39459040802E+03 -0.36023125676E+03  0.53448221718E+03  0.00000000000E+00 0.  1.
<mgrwt>
<rscale>  0 0.83078955E+03</rscale>
<asrwt>0</asrwt>
<pdfrwt beam="1">  1        1 0.37276173E-01 0.83078955E+03</pdfrwt>
<pdfrwt beam="2">  1       -1 0.10956303E+00 0.83078955E+03</pdfrwt>
<totfact> 0.90279567E+01</totfact>
</mgrwt>
</event>
<event>
 6    1  0.8968082E-007  0.2422136E+04  0.7818608E-02  0.8431262E-01
         -1   -1    0    0    0  501 -0.00000000000E+00  0.00000000000E+00  0.62187931566E+03  0.62187931566E+03  0.00000000000E+00 0.  1.
          1   -1    0    0  501    0  0.00000000000E+00 -0.00000000000E+00 -0.23584741294E+04  0.23584741294E+04  0.00000000000E+00 0. -1.
         23    2    1    2    0    0  0.10499537928E+04  0.11335122127E+03 -0.14459079236E+03  0.10699272438E+04  0.92662523305E+02 0.  0.
         11    1    3    3    0    0  0.61485928211E+03  0.10037216906E+03 -0.54184038270E+02  0.62534983739E+03  0.00000000000E+00 0. -1.
        -11    1    3    3    0    0  0.43509451074E+03  0.12979052204E+02 -0.90406754086E+02  0.44457740637E+03  0.00000000000E+00 0.  1.
         22    1    1    2    0    0 -0.10499537928E+04 -0.11335122127E+03 -0.15920040213E+04  0.19104262013E+04  0.00000000000E+00 0. -1.
<mgrwt>
<rscale>  0 0.24221365E+04</rscale>
<asrwt>0</asrwt>
<pdfrwt beam="1">  1        1 0.36284218E+00 0.24221365E+04</pdfrwt>
<pdfrwt beam="2">  1       -1 0.95673740E-01 0.24221365E+04</pdfrwt>
<totfact> 0.15989538E+00</totfact>
</mgrwt>
</event>
<event>
 6    1  0.8968082E-007  0.2848453E+04  0.7818608E-02  0.8288381E-01
          2   -1    0    0  501    0  0.00000000000E+00  0.00000000000E+00  0.24763615189E+04  0.24763615189E+04  0.00000000000E+00 0. -1.
         -2   -1    0    0    0  501 -0.00000000000E+00 -0.00000000000E+00 -0.81911376873E+03  0.81911376873E+03  0.00000000000E+00 0.  1.
         23    2    1    2    0    0 -0.48273807361E+03  0.75200226535E+03  0.21103350155E+04  0.22935613568E+04  0.91467835748E+02 0.  0.
         13    1    3    3    0    0 -0.11362610419E+03  0.22317828526E+03  0.67663395106E+03  0.72149354972E+03  0.00000000000E+00 0. -1.
        -13    1    3    3    0    0 -0.36911196941E+03  0.52882398008E+03  0.14337010645E+04  0.15720678071E+04  0.00000000000E+00 0.  1.
         22    1    1    2    0    0  0.48273807361E+03 -0.75200226535E+03 -0.45308726533E+03  0.10019139308E+04  0.00000000000E+00 0.  1.
<mgrwt>
<rscale>  0 0.28484535E+04</rscale>
<asrwt>0</asrwt>
<pdfrwt beam="1">  1        2 0.38097869E+00 0.28484535E+04</pdfrwt>
<pdfrwt beam="2">  1       -2 0.12601750E+00 0.28484535E+04</pdfrwt>
<totfact> 0.14625622E+00</totfact>
</mgrwt>
</event>
<event>
 6    1  0.8968082E-007  0.5367473E+03  0.7818608E-02  0.1004609E+00
          1   -1    0    0  501    0  0.00000000000E+00  0.00000000000E+00  0.80102031312E+03  0.80102031312E+03  0.00000000000E+00 0. -1.
         -1   -1    0    0    0  501 -0.00000000000E+00 -0.00000000000E+00 -0.89915850948E+02  0.89915850948E+02  0.00000000000E+00 0.  1.
         23    2    1    2    0    0 -0.13811950041E+03 -0.19793579390E+03  0.53074473583E+03  0.58963032976E+03  0.87854289961E+02 0.  0.
         11    1    3    3    0    0 -0.38440017702E+02 -0.76356189239E+02  0.10268392476E+03  0.13361096886E+03  0.00000000000E+00 0.  1.
        -11    1    3    3    0    0 -0.99679482710E+02 -0.12157960466E+03  0.42806081107E+03  0.45601936090E+03  0.00000000000E+00 0. -1.
         22    1    1    2    0    0  0.13811950041E+03  0.19793579390E+03  0.18035972634E+03  0.30130583430E+03  0.00000000000E+00 0.  1.
<mgrwt>
<rscale>  0 0.53674733E+03</rscale>
<asrwt>0</asrwt>
<pdfrwt beam="1">  1        1 0.12323389E+00 0.53674733E+03</pdfrwt>
<pdfrwt beam="2">  1       -1 0.13833208E-01 0.53674733E+03</pdfrwt>
<totfact> 0.83645820E+02</totfact>
</mgrwt>
</event>
<event>
 6    1  0.8968082E-007  0.5124678E+04  0.7818608E-02  0.7809557E-01
          2   -1    0    0  501    0  0.00000000000E+00  0.00000000000E+00  0.27385320677E+04  0.27385320677E+04  0.00000000000E+00 0. -1.
         -2   -1    0    0    0  501 -0.00000000000E+00 -0.00000000000E+00 -0.23974821541E+04  0.23974821541E+04  0.00000000000E+00 0.  1.
         23    2    1    2    0    0  0.44797836575E+02 -0.75273871133E+03  0.26240505771E+04  0.27317025858E+04  0.89079584532E+02 0.  0.
         13    1    3    3    0    0  0.55772118399E+02 -0.26705117745E+03  0.10001754040E+04  0.10367148592E+04  0.00000000000E+00 0. -1.
        -13    1    3    3    0    0 -0.10974281824E+02 -0.48568753388E+03  0.16238751731E+04  0.16949877266E+04  0.00000000000E+00 0.  1.
         22    1    1    2    0    0 -0.44797836575E+02  0.75273871133E+03 -0.22830006635E+04  0.24043116360E+04  0.00000000000E+00 0.  1.
<mgrwt>
<rscale>  0 0.51246782E+04</rscale>
<asrwt>0</asrwt>
<pdfrwt beam="1">  1        2 0.42131262E+00 0.51246782E+04</pdfrwt>
<pdfrwt beam="2">  1       -2 0.36884341E+00 0.51246782E+04</pdfrwt>
<totfact> 0.21441735E-02</totfact>
</mgrwt>
</event>
<event>
 6    1  0.8968082E-007  0.8825328E+03  0.7818608E-02  0.9447684E-01
         -1   -1    0    0    0  501 -0.00000000000E+00  0.00000000000E+00  0.25828135139E+03  0.25828135139E+03  0.00000000000E+00 0.  1.
          1   -1    0    0  501    0  0.00000000000E+00 -0.00000000000E+00 -0.75389124768E+03  0.75389124768E+03  0.00000000000E+00 0. -1.
         23    2    1    2    0    0  0.41523018262E+03 -0.10464720306E+03 -0.34789150826E+03  0.55919592879E+03  0.91128719913E+02 0.  0.
         11    1    3    3    0    0  0.12682822237E+03 -0.39754181324E+02 -0.16382783262E+03  0.21096291537E+03  0.00000000000E+00 0.  1.
        -11    1    3    3    0    0  0.28840196024E+03 -0.64893021733E+02 -0.18406367564E+03  0.34823301341E+03  0.00000000000E+00 0. -1.
         22    1    1    2    0    0 -0.41523018262E+03  0.10464720306E+03 -0.14771838803E+03  0.45297667029E+03  0.00000000000E+00 0. -1.
<mgrwt>
<rscale>  0 0.88253283E+03</rscale>
<asrwt>0</asrwt>
<pdfrwt beam="1">  1        1 0.11598327E+00 0.88253283E+03</pdfrwt>
<pdfrwt beam="2">  1       -1 0.39735592E-01 0.88253283E+03</pdfrwt>
<totfact> 0.15091191E+02</totfact>
</mgrwt>
</event>
<event>
 6    1  0.8968082E-007  0.1122668E+04  0.7818608E-02  0.9183376E-01
          2   -1    0    0  501    0  0.00000000000E+00  0.00000000000E+00  0.27698505262E+03  0.27698505262E+03  0.00000000000E+00 0. -1.
         -2   -1    0    0    0  501 -0.00000000000E+00 -0.00000000000E+00 -0.11375908183E+04  0.11375908183E+04  0.00000000000E+00 0.  1.
         23    2    1    2    0    0  0.21128622440E+03 -0.60765216665E+02 -0.10788443909E+04  0.11047979219E+04  0.91317841693E+02 0.  0.
         13    1    3    3    0    0  0.12719564013E+03 -0.17537031782E+02 -0.80295640068E+03  0.81315758605E+03  0.00000000000E+00 0. -1.
        -13    1    3    3    0    0  0.84090584264E+02 -0.43228184883E+02 -0.27588799021E+03  0.29164033581E+03  0.00000000000E+00 0.  1.
         22    1    1    2    0    0 -0.21128622440E+03  0.60765216665E+02  0.21823862522E+03  0.30977794904E+03  0.00000000000E+00 0. -1.
<mgrwt>
<rscale>  0 0.11226676E+04</rscale>
<asrwt>0</asrwt>
<pdfrwt beam="1">  1        2 0.42613085E-01 0.11226676E+04</pdfrwt>
<pdfrwt beam="2">  1       -2 0.17501397E+00 0.11226676E+04</pdfrwt>
<totfact> 0.23352369E+01</totfact>
</mgrwt>
</event>
<event>
 6    1  0.8968082E-007  0.3620885E+04  0.7818608E-02  0.8085725E-01
         -2   -1    0    0    0  501 -0.00000000000E+00  0.00000000000E+00  0.10259791932E+04  0.10259791932E+04  0.00000000000E+00 0.  1.
          2   -1    0    0  501    0  0.00000000000E+00 -0.00000000000E+00 -0.31947053459E+04  0.31947053459E+04  0.00000000000E+00 0. -1.
         23    2    1    2    0    0  0.99957163233E+03 -0.54672339525E+02 -0.28416648907E+04  0.30144594117E+04  0.98861927708E+02 0.  0.
         13    1    3    3    0    0  0.51366701325E+03  0.18694081238E+02 -0.14044614483E+04  0.14955651871E+04  0.00000000000E+00 0.  1.
        -13    1    3    3    0    0  0.48590461908E+03 -0.73366420763E+02 -0.14372034424E+04  0.15188942246E+04  0.00000000000E+00 0. -1.
         22    1    1    2    0    0 -0.99957163233E+03  0.54672339525E+02  0.67293873801E+03  0.12062251274E+04  0.00000000000E+00 0.  1.
<mgrwt>
<rscale>  0 0.36208845E+04</rscale>
<asrwt>0</asrwt>
<pdfrwt beam="1">  1        2 0.49149313E+00 0.36208845E+04</pdfrwt>
<pdfrwt beam="2">  1       -2 0.15784295E+00 0.36208845E+04</pdfrwt>
<totfact> 0.27767942E-01</totfact>
</mgrwt>
</event>
<event>
 6    1  0.8968082E-007  0.2112046E+04  0.7818608E-02  0.8555956E-01
         -1   -1    0    0    0  501 -0.00000000000E+00  0.00000000000E+00  0.41298401727E+03  0.41298401727E+03  0.00000000000E+00 0.  1.
          1   -1    0    0  501    0  0.00000000000E+00 -0.00000000000E+00 -0.27003082088E+04  0.27003082088E+04  0.00000000000E+00 0. -1.
         23    2    1    2    0    0 -0.26582409959E+03  0.10052291184E+04 -0.89127867991E+03  0.13725765391E+04  0.91872944919E+02 0.  0.
         11    1    3    3    0    0 -0.18188238374E+02  0.15439447130E+03 -0.16639605099E+03  0.22771936801E+03  0.00000000000E+00 0. -1.
        -11    1    3    3    0    0 -0.24763586121E+03  0.85083464709E+03 -0.72488262892E+03  0.11448571711E+04  0.00000000000E+00 0.  1.
         22    1    1    2    0    0  0.26582409959E+03 -0.10052291184E+04 -0.13960455116E+04  0.17407156870E+04  0.00000000000E+00 0.  1.
<mgrwt>
<rscale>  0 0.21120456E+04</rscale>
<asrwt>0</asrwt>
<pdfrwt beam="1">  1        1 0.41543204E+00 0.21120456E+04</pdfrwt>
<pdfrwt beam="2">  1       -1 0.63536002E-01 0.21120456E+04</pdfrwt>
<totfact> 0.22653190E+00</totfact>
</mgrwt>
</event>
<event>
 6    1  0.8968082E-007  0.1039715E+04  0.7818608E-02  0.9266028E-01
         -2   -1    0    0    0  501 -0.00000000000E+00  0.00000000000E+00  0.29140649701E+03  0.29140649701E+03  0.00000000000E+00 0.  1.
          2   -1    0    0  501    0  0.00000000000E+00 -0.00000000000E+00 -0.92740413469E+03  0.92740413469E+03  0.00000000000E+00 0. -1.
         23    2    1    2    0    0  0.22996243077E+03  0.67727287666E+02 -0.85592359589E+03  0.89348443822E+03  0.90771880432E+02 0.  0.
         13    1    3    3    0    0  0.10681217908E+03  0.29055290011E+02 -0.24166602936E+03  0.26581106302E+03  0.00000000000E+00 0.  1.
        -13    1    3    3    0    0  0.12315025170E+03  0.38671997655E+02 -0.61425756653E+03  0.62767337520E+03  0.00000000000E+00 0. -1.
         22    1    1    2    0    0 -0.22996243077E+03 -0.67727287666E+02  0.21992595821E+03  0.32532619347E+03  0.00000000000E+00 0.  1.
<mgrwt>
<rscale>  0 0.10397146E+04</rscale>
<asrwt>0</asrwt>
<pdfrwt beam="1">  1        2 0.14267756E+00 0.10397146E+04</pdfrwt>
<pdfrwt beam="2">  1       -2 0.44831768E-01 0.10397146E+04</pdfrwt>
<totfact> 0.13205071E+02</totfact>
</mgrwt>
</event>
<event>
 6    1  0.8968082E-007  0.2965592E+04  0.7818608E-02  0.8253625E-01
         -1   -1    0    0    0  501 -0.00000000000E+00  0.00000000000E+00  0.80767354865E+03  0.80767354865E+03  0.00000000000E+00 0.  1.
          1   -1    0    0  501    0  0.00000000000E+00 -0.00000000000E+00 -0.27222426640E+04  0.27222426640E+04  0.00000000000E+00 0. -1.
         23    2    1    2    0    0  0.11589458958E+04 -0.55751915318E+03 -0.82682761986E+02  0.12916600148E+04  0.86982521174E+02 0.  0.
         13    1    3    3    0    0  0.59613684631E+03 -0.32692272672E+03 -0.67703540696E+02  0.68325791484E+03  0.00000000000E+00 0.  1.
        -13    1    3    3    0    0  0.56280904953E+03 -0.23059642646E+03 -0.14979221291E+02  0.60840209994E+03  0.00000000000E+00 0. -1.
         22    1    1    2    0    0 -0.11589458958E+04  0.55751915318E+03 -0.18318863533E+04  0.22382561978E+04  0.00000000000E+00 0. -1.
<mgrwt>
<rscale>  0 0.29655916E+04</rscale>
<asrwt>0</asrwt>
<pdfrwt beam="1">  1        1 0.41880656E+00 0.29655916E+04</pdfrwt>
<pdfrwt beam="2">  1       -1 0.12425747E+00 0.29655916E+04</pdfrwt>
<totfact> 0.45860468E-01</totfact>
</mgrwt>
</event>
<event>
 6    1  0.8968082E-007  0.1953869E+04  0.7818608E-02  0.8628497E-01
          2   -1    0    0  501    0  0.00000000000E+00  0.00000000000E+00  0.19396337817E+04  0.19396337817E+04  0.00000000000E+00 0. -1.
         -2   -1    0    0    0  501 -0.00000000000E+00 -0.00000000000E+00 -0.49205230182E+03  0.49205230182E+03  0.00000000000E+00 0.  1.
         23    2    1    2    0    0  0.95876796423E+03 -0.98806458963E+02  0.90058868933E+03  0.13234443055E+04  0.10698652681E+03 0.  0.
         11    1    3    3    0    0  0.33229493896E+03  0.13693587733E+01  0.36015736699E+03  0.49003584624E+03  0.00000000000E+00 0.  1.
        -11    1    3    3    0    0  0.62647302527E+03 -0.10017581774E+03  0.54043132235E+03  0.83340845929E+03  0.00000000000E+00 0. -1.
         22    1    1    2    0    0 -0.95876796423E+03  0.98806458963E+02  0.54699279054E+03  0.11082417780E+04  0.00000000000E+00 0.  1.
<mgrwt>
<rscale>  0 0.19538693E+04</rscale>
<asrwt>0</asrwt>
<pdfrwt beam="1">  1        2 0.29840519E+00 0.19538693E+04</pdfrwt>
<pdfrwt beam="2">  1       -2 0.75700355E-01 0.19538693E+04</pdfrwt>
<totfact> 0.10527646E+01</totfact>
</mgrwt>
</event>
<event>
 6    1  0.8968082E-007  0.2874660E+04  0.7818608E-02  0.8280457E-01
         -1   -1    0    0    0  501 -0.00000000000E+00  0.00000000000E+00  0.11358653173E+04  0.11358653173E+04  0.00000000000E+00 0.  1.
          1   -1    0    0  501    0  0.00000000000E+00 -0.00000000000E+00 -0.18188048358E+04  0.18188048358E+04  0.00000000000E+00 0. -1.
         23    2    1    2    0    0 -0.11814395263E+04  0.21337477022E+03 -0.11513803080E+04  0.16659634680E+04  0.91812395400E+02 0.  0.
         11    1    3    3    0    0 -0.48787788936E+03  0.73305544758E+02 -0.41437664661E+03  0.64428762449E+03  0.00000000000E+00 0. -1.
        -11    1    3    3    0    0 -0.69356163697E+03  0.14006922546E+03 -0.73700366142E+03  0.10216758435E+04  0.00000000000E+00 0.  1.
         22    1    1    2    0    0  0.11814395263E+04 -0.21337477022E+03  0.46844078953E+03  0.12887066851E+04  0.00000000000E+00 0.  1.
<mgrwt>
<rscale>  0 0.28746599E+04</rscale>
<asrwt>0</asrwt>
<pdfrwt beam="1">  1        1 0.27981613E+00 0.28746599E+04</pdfrwt>
<pdfrwt beam="2">  1       -1 0.17474851E+00 0.28746599E+04</pdfrwt>
<totfact> 0.77296107E-01</totfact>
</mgrwt>
</event>
<event>
 6    1  0.8968082E-007  0.3004190E+04  0.7818608E-02  0.8242535E-01
          1   -1    0    0  501    0  0.00000000000E+00  0.00000000000E+00  0.17554954247E+04  0.17554954247E+04  0.00000000000E+00 0. -1.
         -1   -1    0    0    0  501 -0.00000000000E+00 -0.00000000000E+00 -0.12852722078E+04  0.12852722078E+04  0.00000000000E+00 0.  1.
         23    2    1    2    0    0  0.47541824193E+03  0.98378100555E+03 -0.80591985923E+03  0.13607709889E+04  0.91341628219E+02 0.  0.
         13    1    3    3    0    0  0.15650678821E+03  0.37863199100E+03 -0.34860626590E+03  0.53794320146E+03  0.00000000000E+00 0.  1.
        -13    1    3    3    0    0  0.31891145372E+03  0.60514901454E+03 -0.45731359333E+03  0.82282778743E+03  0.00000000000E+00 0. -1.
         22    1    1    2    0    0 -0.47541824193E+03 -0.98378100555E+03  0.12761430761E+04  0.16799966436E+04  0.00000000000E+00 0. -1.
<mgrwt>
<rscale>  0 0.30041901E+04</rscale>
<asrwt>0</asrwt>
<pdfrwt beam="1">  1        1 0.27007622E+00 0.30041901E+04</pdfrwt>
<pdfrwt beam="2">  1       -1 0.19773418E+00 0.30041901E+04</pdfrwt>
<totfact> 0.57991617E-01</totfact>
</mgrwt>
</event>
<event>
 6    1  0.8968082E-007  0.6367920E+04  0.7818608E-02  0.7646386E-01
          2   -1    0    0  501    0  0.00000000000E+00  0.00000000000E+00  0.25237975136E+04  0.25237975136E+04  0.00000000000E+00 0. -1.
         -2   -1    0    0    0  501 -0.00000000000E+00 -0.00000000000E+00 -0.40168050225E+04  0.40168050225E+04  0.00000000000E+00 0.  1.
         23    2    1    2    0    0 -0.16452672302E+03  0.24661406478E+04  0.13138769596E+04  0.28006133441E+04  0.90794827211E+02 0.  0.
         11    1    3    3    0    0 -0.77220274666E+02  0.16053372201E+04  0.88951297437E+03  0.18369278409E+04  0.00000000000E+00 0. -1.
        -11    1    3    3    0    0 -0.87306448349E+02  0.86080342772E+03  0.42436398520E+03  0.96368550317E+03  0.00000000000E+00 0.  1.
         22    1    1    2    0    0  0.16452672302E+03 -0.24661406478E+04 -0.28068844685E+04  0.37399891921E+04  0.00000000000E+00 0.  1.
<mgrwt>
<rscale>  0 0.63679204E+04</rscale>
<asrwt>0</asrwt>
<pdfrwt beam="1">  1        2 0.38827654E+00 0.63679204E+04</pdfrwt>
<pdfrwt beam="2">  1       -2 0.61797000E+00 0.63679204E+04</pdfrwt>
<totfact> 0.98170987E-04</totfact>
</mgrwt>
</event>
<event>
 6    1  0.8968082E-007  0.2531180E+04  0.7818608E-02  0.8391961E-01
         -1   -1    0    0    0  501 -0.00000000000E+00  0.00000000000E+00  0.72667166009E+03  0.72667166009E+03  0.00000000000E+00 0.  1.
          1   -1    0    0  501    0  0.00000000000E+00 -0.00000000000E+00 -0.22041844114E+04  0.22041844114E+04  0.00000000000E+00 0. -1.
         23    2    1    2    0    0 -0.82633269709E+03 -0.63264737942E+03 -0.15703890016E+04  0.18860142506E+04  0.88654972564E+02 0.  0.
         11    1    3    3    0    0 -0.47836544964E+03 -0.33902627327E+03 -0.95258583596E+03  0.11185669816E+04  0.00000000000E+00 0. -1.
        -11    1    3    3    0    0 -0.34796724744E+03 -0.29362110615E+03 -0.61780316559E+03  0.76744726899E+03  0.00000000000E+00 0.  1.
         22    1    1    2    0    0  0.82633269709E+03  0.63264737942E+03  0.92876250217E+02  0.10448418210E+04  0.00000000000E+00 0.  1.
<mgrwt>
<rscale>  0 0.25311802E+04</rscale>
<asrwt>0</asrwt>
<pdfrwt beam="1">  1        1 0.33910529E+00 0.25311802E+04</pdfrwt>
<pdfrwt beam="2">  1       -1 0.11179564E+00 0.25311802E+04</pdfrwt>
<totfact> 0.14078586E+00</totfact>
</mgrwt>
</event>
<event>
 6    1  0.1074231E-006  0.4349037E+04  0.7818608E-02  0.7937612E-01
         -1   -1    0    0    0  501 -0.00000000000E+00  0.00000000000E+00  0.22655037210E+04  0.22655037210E+04  0.00000000000E+00 0.  1.
          1   -1    0    0  501    0  0.00000000000E+00 -0.00000000000E+00 -0.20871873902E+04  0.20871873902E+04  0.00000000000E+00 0. -1.
         23    2    1    2    0    0 -0.11781264417E+04 -0.43019874400E+03 -0.16874728073E+04  0.21045314238E+04  0.91843162739E+02 0.  0.
         11    1    3    3    0    0 -0.57243542010E+03 -0.16281606535E+03 -0.77409611177E+03  0.97643032090E+03  0.00000000000E+00 0. -1.
        -11    1    3    3    0    0 -0.60569102160E+03 -0.26738267865E+03 -0.91337669553E+03  0.11281011029E+04  0.00000000000E+00 0.  1.
         22    1    1    2    0    0  0.11781264417E+04  0.43019874400E+03  0.18657891381E+04  0.22481596873E+04  0.00000000000E+00 0.  1.
<mgrwt>
<rscale>  0 0.43490370E+04</rscale>
<asrwt>0</asrwt>
<pdfrwt beam="1">  1        1 0.32110575E+00 0.43490370E+04</pdfrwt>
<pdfrwt beam="2">  1       -1 0.34853904E+00 0.43490370E+04</pdfrwt>
<totfact> 0.31420307E-02</totfact>
</mgrwt>
</event>
<event>
 6    1  0.8968082E-007  0.2953057E+04  0.7818608E-02  0.8257264E-01
          1   -1    0    0  501    0  0.00000000000E+00  0.00000000000E+00  0.27913741458E+04  0.27913741458E+04  0.00000000000E+00 0. -1.
         -1   -1    0    0    0  501 -0.00000000000E+00 -0.00000000000E+00 -0.78102597886E+03  0.78102597886E+03  0.00000000000E+00 0.  1.
         23    2    1    2    0    0 -0.18764499832E+03 -0.14020906182E+04  0.15119492466E+04  0.20725767248E+04  0.92276805610E+02 0.  0.
         11    1    3    3    0    0 -0.26865181938E+02 -0.53760836242E+03  0.56992292677E+03  0.78393662487E+03  0.00000000000E+00 0. -1.
        -11    1    3    3    0    0 -0.16077981638E+03 -0.86448225578E+03  0.94202631983E+03  0.12886400999E+04  0.00000000000E+00 0.  1.
         22    1    1    2    0    0  0.18764499832E+03  0.14020906182E+04  0.49839892038E+03  0.14998233999E+04  0.00000000000E+00 0.  1.
<mgrwt>
<rscale>  0 0.29530565E+04</rscale>
<asrwt>0</asrwt>
<pdfrwt beam="1">  1        1 0.42944217E+00 0.29530565E+04</pdfrwt>
<pdfrwt beam="2">  1       -1 0.12015784E+00 0.29530565E+04</pdfrwt>
<totfact> 0.44543505E-01</totfact>
</mgrwt>
</event>
<event>
 6    1  0.8968082E-007  0.1183004E+04  0.7818608E-02  0.9127864E-01
          2   -1    0    0  501    0  0.00000000000E+00  0.00000000000E+00  0.11051239011E+04  0.11051239011E+04  0.00000000000E+00 0. -1.
         -2   -1    0    0    0  501 -0.00000000000E+00 -0.00000000000E+00 -0.31659331018E+03  0.31659331018E+03  0.00000000000E+00 0.  1.
         23    2    1    2    0    0 -0.30321380552E+03 -0.46249301340E+03  0.63662036742E+03  0.84820599492E+03  0.91266194762E+02 0.  0.
         13    1    3    3    0    0 -0.27400015013E+03 -0.35547167177E+03  0.52747265965E+03  0.69257750351E+03  0.00000000000E+00 0. -1.
        -13    1    3    3    0    0 -0.29213655396E+02 -0.10702134163E+03  0.10914770777E+03  0.15562849140E+03  0.00000000000E+00 0.  1.
         22    1    1    2    0    0  0.30321380552E+03  0.46249301340E+03  0.15191022351E+03  0.57351121637E+03  0.00000000000E+00 0. -1.
<mgrwt>
<rscale>  0 0.11830044E+04</rscale>
<asrwt>0</asrwt>
<pdfrwt beam="1">  1        2 0.17001906E+00 0.11830044E+04</pdfrwt>
<pdfrwt beam="2">  1       -2 0.48706664E-01 0.11830044E+04</pdfrwt>
<totfact> 0.85259508E+01</totfact>
</mgrwt>
</event>
<event>
 6    1  0.8968082E-007  0.3031141E+04  0.7818608E-02  0.8234894E-01
         -2   -1    0    0    0  501 -0.00000000000E+00  0.00000000000E+00  0.10002223006E+04  0.10002223006E+04  0.00000000000E+00 0.  1.
          2   -1    0    0  501    0  0.00000000000E+00 -0.00000000000E+00 -0.22964428428E+04  0.22964428428E+04  0.00000000000E+00 0. -1.
         23    2    1    2    0    0 -0.10168711987E+04 -0.36636875565E+03 -0.18016027977E+04  0.21034910890E+04  0.10319409404E+03 0.  0.
         13    1    3    3    0    0 -0.71413307956E+03 -0.21548256800E+03 -0.11859352317E+04  0.14010214725E+04  0.00000000000E+00 0. -1.
        -13    1    3    3    0    0 -0.30273811915E+03 -0.15088618765E+03 -0.61566756598E+03  0.70246961657E+03  0.00000000000E+00 0.  1.
         22    1    1    2    0    0  0.10168711987E+04  0.36636875565E+03  0.50538225551E+03  0.11931740544E+04  0.00000000000E+00 0.  1.
<mgrwt>
<rscale>  0 0.30311406E+04</rscale>
<asrwt>0</asrwt>
<pdfrwt beam="1">  1        2 0.35329890E+00 0.30311406E+04</pdfrwt>
<pdfrwt beam="2">  1       -2 0.15388036E+00 0.30311406E+04</pdfrwt>
<totfact> 0.10884766E+00</totfact>
</mgrwt>
</event>
<event>
 6    1  0.8968082E-007  0.2590693E+04  0.7818608E-02  0.8371370E-01
         -2   -1    0    0    0  501 -0.00000000000E+00  0.00000000000E+00  0.54251045876E+03  0.54251045876E+03  0.00000000000E+00 0.  1.
          2   -1    0    0  501    0  0.00000000000E+00 -0.00000000000E+00 -0.30928842260E+04  0.30928842260E+04  0.00000000000E+00 0. -1.
         23    2    1    2    0    0  0.48478890791E+03  0.40307180805E+03  0.30853446140E+03  0.70779439998E+03  0.91061688402E+02 0.  0.
         13    1    3    3    0    0  0.23755442660E+03  0.25631898713E+03  0.17246731788E+03  0.38971336197E+03  0.00000000000E+00 0. -1.
        -13    1    3    3    0    0  0.24723448131E+03  0.14675282092E+03  0.13606714352E+03  0.31808103801E+03  0.00000000000E+00 0.  1.
         22    1    1    2    0    0 -0.48478890791E+03 -0.40307180805E+03 -0.28589082286E+04  0.29276002847E+04  0.00000000000E+00 0. -1.
<mgrwt>
<rscale>  0 0.25906926E+04</rscale>
<asrwt>0</asrwt>
<pdfrwt beam="1">  1        2 0.47582835E+00 0.25906926E+04</pdfrwt>
<pdfrwt beam="2">  1       -2 0.83463146E-01 0.25906926E+04</pdfrwt>
<totfact> 0.16908287E+00</totfact>
</mgrwt>
</event>
<event>
 6    1  0.8968082E-007  0.1223166E+04  0.7818608E-02  0.9092817E-01
         -2   -1    0    0    0  501 -0.00000000000E+00  0.00000000000E+00  0.17805926631E+03  0.17805926631E+03  0.00000000000E+00 0.  1.
          2   -1    0    0  501    0  0.00000000000E+00 -0.00000000000E+00 -0.21006152410E+04  0.21006152410E+04  0.00000000000E+00 0. -1.
         23    2    1    2    0    0  0.88103872229E+00 -0.20834348512E+03 -0.20310631612E+04  0.20437668796E+04  0.91420508099E+02 0.  0.
         11    1    3    3    0    0  0.21147687997E+02 -0.43683271111E+02 -0.22918947137E+03  0.23427177950E+03  0.00000000000E+00 0.  1.
        -11    1    3    3    0    0 -0.20266649275E+02 -0.16466021401E+03 -0.18018736898E+04  0.18094951001E+04  0.00000000000E+00 0. -1.
         22    1    1    2    0    0 -0.88103872229E+00  0.20834348512E+03  0.10850718653E+03  0.23490762770E+03  0.00000000000E+00 0.  1.
<mgrwt>
<rscale>  0 0.12231664E+04</rscale>
<asrwt>0</asrwt>
<pdfrwt beam="1">  1        2 0.32317159E+00 0.12231664E+04</pdfrwt>
<pdfrwt beam="2">  1       -2 0.27393732E-01 0.12231664E+04</pdfrwt>
<totfact> 0.70346504E+01</totfact>
</mgrwt>
</event>
<event>
 6    1  0.8968082E-007  0.2777243E+04  0.7818608E-02  0.8310369E-01
          2   -1    0    0  501    0  0.00000000000E+00  0.00000000000E+00  0.15915391749E+04  0.15915391749E+04  0.00000000000E+00 0. -1.
         -2   -1    0    0    0  501 -0.00000000000E+00 -0.00000000000E+00 -0.12115751336E+04  0.12115751336E+04  0.00000000000E+00 0.  1.
         23    2    1    2    0    0 -0.98316667215E+02 -0.10432697102E+04  0.11076087419E+04  0.15273617205E+04  0.89212358642E+02 0.  0.
         11    1    3    3    0    0 -0.89796524310E+02 -0.91747048119E+03  0.92927907664E+03  0.13089595494E+04  0.00000000000E+00 0. -1.
        -11    1    3    3    0    0 -0.85201429048E+01 -0.12579922904E+03  0.17832966521E+03  0.21840217114E+03  0.00000000000E+00 0.  1.
         22    1    1    2    0    0  0.98316667215E+02  0.10432697102E+04 -0.72764470060E+03  0.12757525880E+04  0.00000000000E+00 0.  1.
<mgrwt>
<rscale>  0 0.27772427E+04</rscale>
<asrwt>0</asrwt>
<pdfrwt beam="1">  1        2 0.24485218E+00 0.27772427E+04</pdfrwt>
<pdfrwt beam="2">  1       -2 0.18639617E+00 0.27772427E+04</pdfrwt>
<totfact> 0.16114387E+00</totfact>
</mgrwt>
</event>
<event>
 6    1  0.8968082E-007  0.2906745E+04  0.7818608E-02  0.8270873E-01
         -2   -1    0    0    0  501 -0.00000000000E+00  0.00000000000E+00  0.11232895249E+04  0.11232895249E+04  0.00000000000E+00 0.  1.
          2   -1    0    0  501    0  0.00000000000E+00 -0.00000000000E+00 -0.18804515873E+04  0.18804515873E+04  0.00000000000E+00 0. -1.
         23    2    1    2    0    0  0.65113787556E+03 -0.29476040914E+03 -0.16850349674E+04  0.18324971753E+04  0.88537134639E+02 0.  0.
         11    1    3    3    0    0  0.27205056763E+03 -0.16464529637E+03 -0.68868271602E+03  0.75855353688E+03  0.00000000000E+00 0.  1.
        -11    1    3    3    0    0  0.37908730793E+03 -0.13011511277E+03 -0.99635225141E+03  0.10739436384E+04  0.00000000000E+00 0. -1.
         22    1    1    2    0    0 -0.65113787556E+03  0.29476040914E+03  0.92787290499E+03  0.11712439368E+04  0.00000000000E+00 0. -1.
<mgrwt>
<rscale>  0 0.29067450E+04</rscale>
<asrwt>0</asrwt>
<pdfrwt beam="1">  1        2 0.28930024E+00 0.29067450E+04</pdfrwt>
<pdfrwt beam="2">  1       -2 0.17281378E+00 0.29067450E+04</pdfrwt>
<totfact> 0.13672933E+00</totfact>
</mgrwt>
</event>
<event>
 6    1  0.8968082E-007  0.1825211E+04  0.7818608E-02  0.8693006E-01
         -1   -1    0    0    0  501 -0.00000000000E+00  0.00000000000E+00  0.85942726375E+03  0.85942726375E+03  0.00000000000E+00 0.  1.
          1   -1    0    0  501    0  0.00000000000E+00 -0.00000000000E+00 -0.96907401142E+03  0.96907401142E+03  0.00000000000E+00 0. -1.
         23    2    1    2    0    0 -0.72950891406E+02  0.88587544676E+03 -0.25546722104E+03  0.92774562007E+03  0.73152544701E+02 0.  0.
         11    1    3    3    0    0 -0.45030357412E+02  0.23375228074E+03 -0.88887726128E+02  0.25410409224E+03  0.00000000000E+00 0. -1.
        -11    1    3    3    0    0 -0.27920533994E+02  0.65212316603E+03 -0.16657949492E+03  0.67364152783E+03  0.00000000000E+00 0.  1.
         22    1    1    2    0    0  0.72950891406E+02 -0.88587544676E+03  0.14582047338E+03  0.90075565510E+03  0.00000000000E+00 0. -1.
<mgrwt>
<rscale>  0 0.18252108E+04</rscale>
<asrwt>0</asrwt>
<pdfrwt beam="1">  1        1 0.14908831E+00 0.18252108E+04</pdfrwt>
<pdfrwt beam="2">  1       -1 0.13221958E+00 0.18252108E+04</pdfrwt>
<totfact> 0.73221062E+00</totfact>
</mgrwt>
</event>
<event>
 6    1  0.9078544E-007  0.3839159E+04  0.7818608E-02  0.8037803E-01
         -2   -1    0    0    0  501 -0.00000000000E+00  0.00000000000E+00  0.16891787946E+04  0.16891787946E+04  0.00000000000E+00 0.  1.
          2   -1    0    0  501    0  0.00000000000E+00 -0.00000000000E+00 -0.21814069593E+04  0.21814069593E+04  0.00000000000E+00 0. -1.
         23    2    1    2    0    0  0.95237046955E+03 -0.16625231116E+04 -0.14745086678E+03  0.19238284519E+04  0.91550784619E+02 0.  0.
         11    1    3    3    0    0  0.27671781514E+03 -0.54380854237E+03 -0.16760037790E+02  0.61039444529E+03  0.00000000000E+00 0. -1.
        -11    1    3    3    0    0  0.67565265441E+03 -0.11187145692E+04 -0.13069082899E+03  0.13134340066E+04  0.00000000000E+00 0.  1.
         22    1    1    2    0    0 -0.95237046955E+03  0.16625231116E+04 -0.34477729788E+03  0.19467573021E+04  0.00000000000E+00 0.  1.
<mgrwt>
<rscale>  0 0.38391595E+04</rscale>
<asrwt>0</asrwt>
<pdfrwt beam="1">  1        2 0.33560107E+00 0.38391595E+04</pdfrwt>
<pdfrwt beam="2">  1       -2 0.25987366E+00 0.38391595E+04</pdfrwt>
<totfact> 0.23631740E-01</totfact>
</mgrwt>
</event>
<event>
 6    1  0.8968082E-007  0.1596610E+04  0.7818608E-02  0.8822633E-01
         -1   -1    0    0    0  501 -0.00000000000E+00  0.00000000000E+00  0.32527524223E+03  0.32527524223E+03  0.00000000000E+00 0.  1.
          1   -1    0    0  501    0  0.00000000000E+00 -0.00000000000E+00 -0.19592366962E+04  0.19592366962E+04  0.00000000000E+00 0. -1.
         23    2    1    2    0    0  0.22769604525E+03 -0.55827934314E+03 -0.76401349688E+02  0.61432787898E+03  0.89667511749E+02 0.  0.
         13    1    3    3    0    0  0.49523835399E+02 -0.19720082456E+03 -0.57237030719E+02  0.21122701808E+03  0.00000000000E+00 0. -1.
        -13    1    3    3    0    0  0.17817220985E+03 -0.36107851858E+03 -0.19164318969E+02  0.40310086090E+03  0.00000000000E+00 0.  1.
         22    1    1    2    0    0 -0.22769604525E+03  0.55827934314E+03 -0.15575601043E+04  0.16701840594E+04  0.00000000000E+00 0. -1.
<mgrwt>
<rscale>  0 0.15966104E+04</rscale>
<asrwt>0</asrwt>
<pdfrwt beam="1">  1        1 0.30142102E+00 0.15966104E+04</pdfrwt>
<pdfrwt beam="2">  1       -1 0.50042347E-01 0.15966104E+04</pdfrwt>
<totfact> 0.12220324E+01</totfact>
</mgrwt>
</event>
<event>
 6    1  0.8968082E-007  0.2822931E+04  0.7818608E-02  0.8296184E-01
          1   -1    0    0  501    0  0.00000000000E+00  0.00000000000E+00  0.23459473367E+04  0.23459473367E+04  0.00000000000E+00 0. -1.
         -1   -1    0    0    0  501 -0.00000000000E+00 -0.00000000000E+00 -0.84922424586E+03  0.84922424586E+03  0.00000000000E+00 0.  1.
         23    2    1    2    0    0  0.62460402706E+03  0.59717227145E+03  0.20102430868E+04  0.21899613068E+04  0.90046348262E+02 0.  0.
         13    1    3    3    0    0  0.25999760203E+03  0.18963513346E+03  0.72308993089E+03  0.79146654071E+03  0.00000000000E+00 0. -1.
        -13    1    3    3    0    0  0.36460642503E+03  0.40753713799E+03  0.12871531559E+04  0.13984947661E+04  0.00000000000E+00 0.  1.
         22    1    1    2    0    0 -0.62460402706E+03 -0.59717227145E+03 -0.51351999590E+03  0.10052102758E+04  0.00000000000E+00 0.  1.
<mgrwt>
<rscale>  0 0.28229314E+04</rscale>
<asrwt>0</asrwt>
<pdfrwt beam="1">  1        1 0.36091497E+00 0.28229314E+04</pdfrwt>
<pdfrwt beam="2">  1       -1 0.13064988E+00 0.28229314E+04</pdfrwt>
<totfact> 0.74865482E-01</totfact>
</mgrwt>
</event>
<event>
 6    1  0.8968082E-007  0.2600441E+04  0.7818608E-02  0.8368051E-01
         -2   -1    0    0    0  501 -0.00000000000E+00  0.00000000000E+00  0.99510759578E+03  0.99510759578E+03  0.00000000000E+00 0.  1.
          2   -1    0    0  501    0  0.00000000000E+00 -0.00000000000E+00 -0.16988847337E+04  0.16988847337E+04  0.00000000000E+00 0. -1.
         23    2    1    2    0    0 -0.11845667781E+04  0.39615976044E+03 -0.72031202480E+03  0.14448268440E+04  0.92380671331E+02 0.  0.
         13    1    3    3    0    0 -0.85306772852E+03  0.28180659551E+03 -0.56500292065E+03  0.10613047663E+04  0.00000000000E+00 0.  1.
        -13    1    3    3    0    0 -0.33149904959E+03  0.11435316493E+03 -0.15530910415E+03  0.38352207764E+03  0.00000000000E+00 0. -1.
         22    1    1    2    0    0  0.11845667781E+04 -0.39615976044E+03  0.16534886895E+02  0.12491654855E+04  0.00000000000E+00 0.  1.
<mgrwt>
<rscale>  0 0.26004408E+04</rscale>
<asrwt>0</asrwt>
<pdfrwt beam="1">  1        2 0.26136688E+00 0.26004408E+04</pdfrwt>
<pdfrwt beam="2">  1       -2 0.15309348E+00 0.26004408E+04</pdfrwt>
<totfact> 0.24654775E+00</totfact>
</mgrwt>
</event>
<event>
 6    1  0.8968082E-007  0.2053218E+04  0.7818608E-02  0.8582136E-01
         -1   -1    0    0    0  501 -0.00000000000E+00  0.00000000000E+00  0.22629527341E+03  0.22629527341E+03  0.00000000000E+00 0.  1.
          1   -1    0    0  501    0  0.00000000000E+00 -0.00000000000E+00 -0.46573054853E+04  0.46573054853E+04  0.00000000000E+00 0. -1.
         23    2    1    2    0    0 -0.70923899145E+03 -0.53055818332E+03 -0.34445095745E+04  0.35578196906E+04  0.94460623639E+02 0.  0.
         13    1    3    3    0    0 -0.54631833017E+03 -0.36223320106E+03 -0.26098768864E+04  0.26909355198E+04  0.00000000000E+00 0. -1.
        -13    1    3    3    0    0 -0.16292066129E+03 -0.16832498226E+03 -0.83463268815E+03  0.86688417084E+03  0.00000000000E+00 0.  1.
         22    1    1    2    0    0  0.70923899145E+03  0.53055818332E+03 -0.98650063744E+03  0.13257810681E+04  0.00000000000E+00 0.  1.
<mgrwt>
<rscale>  0 0.20532182E+04</rscale>
<asrwt>0</asrwt>
<pdfrwt beam="1">  1        1 0.71650849E+00 0.20532182E+04</pdfrwt>
<pdfrwt beam="2">  1       -1 0.34814660E-01 0.20532182E+04</pdfrwt>
<totfact> 0.16112031E-01</totfact>
</mgrwt>
</event>
<event>
 6    1  0.8968082E-007  0.2060050E+04  0.7818608E-02  0.8579049E-01
         -1   -1    0    0    0  501 -0.00000000000E+00  0.00000000000E+00  0.50371204117E+03  0.50371204117E+03  0.00000000000E+00 0.  1.
          1   -1    0    0  501    0  0.00000000000E+00 -0.00000000000E+00 -0.21062657534E+04  0.21062657534E+04  0.00000000000E+00 0. -1.
         23    2    1    2    0    0 -0.71523695258E+03 -0.51605709295E+03 -0.14719020986E+04  0.17183788569E+04  0.91930878159E+02 0.  0.
         13    1    3    3    0    0 -0.51272511134E+03 -0.35074755257E+03 -0.95757206863E+03  0.11414268054E+04  0.00000000000E+00 0.  1.
        -13    1    3    3    0    0 -0.20251184124E+03 -0.16530954038E+03 -0.51433003000E+03  0.57695205151E+03  0.00000000000E+00 0. -1.
         22    1    1    2    0    0  0.71523695258E+03  0.51605709295E+03 -0.13065161360E+03  0.89159893767E+03  0.00000000000E+00 0.  1.
<mgrwt>
<rscale>  0 0.20600499E+04</rscale>
<asrwt>0</asrwt>
<pdfrwt beam="1">  1        1 0.32404089E+00 0.20600499E+04</pdfrwt>
<pdfrwt beam="2">  1       -1 0.77494158E-01 0.20600499E+04</pdfrwt>
<totfact> 0.38865793E+00</totfact>
</mgrwt>
</event>
<event>
 6    1  0.8968082E-007  0.1067229E+04  0.7818608E-02  0.9237735E-01
          1   -1    0    0  501    0  0.00000000000E+00  0.00000000000E+00  0.23331488905E+04  0.23331488905E+04  0.00000000000E+00 0. -1.
         -1   -1    0    0    0  501 -0.00000000000E+00 -0.00000000000E+00 -0.12204295784E+03  0.12204295784E+03  0.00000000000E+00 0.  1.
         23    2    1    2    0    0 -0.25294958058E+02 -0.42310603495E+03  0.18445695523E+04  0.18948281541E+04  0.90985429693E+02 0.  0.
         13    1    3    3    0    0 -0.55226960440E+02 -0.27052301452E+03  0.10921234826E+04  0.11264840966E+04  0.00000000000E+00 0.  1.
        -13    1    3    3    0    0  0.29932002382E+02 -0.15258302043E+03  0.75244606972E+03  0.76834405752E+03  0.00000000000E+00 0. -1.
         22    1    1    2    0    0  0.25294958058E+02  0.42310603495E+03  0.36653638027E+03  0.56036369420E+03  0.00000000000E+00 0.  1.
<mgrwt>
<rscale>  0 0.10672289E+04</rscale>
<asrwt>0</asrwt>
<pdfrwt beam="1">  1        1 0.35894595E+00 0.10672289E+04</pdfrwt>
<pdfrwt beam="2">  1       -1 0.18775841E-01 0.10672289E+04</pdfrwt>
<totfact> 0.40391489E+01</totfact>
</mgrwt>
</event>
<event>
 6    1  0.8968082E-007  0.2664486E+04  0.7818608E-02  0.8346621E-01
          2   -1    0    0  501    0  0.00000000000E+00  0.00000000000E+00  0.13745589352E+04  0.13745589352E+04  0.00000000000E+00 0. -1.
         -2   -1    0    0    0  501 -0.00000000000E+00 -0.00000000000E+00 -0.12912293263E+04  0.12912293263E+04  0.00000000000E+00 0.  1.
         23    2    1    2    0    0  0.55979522018E+03 -0.12568903843E+03 -0.11594693564E+04  0.12969501808E+04  0.92423807578E+02 0.  0.
         13    1    3    3    0    0  0.52674612437E+03 -0.12826033609E+03 -0.10381317876E+04  0.11711660009E+04  0.00000000000E+00 0.  1.
        -13    1    3    3    0    0  0.33049095809E+02  0.25712976590E+01 -0.12133756883E+03  0.12578417991E+03  0.00000000000E+00 0. -1.
         22    1    1    2    0    0 -0.55979522018E+03  0.12568903843E+03  0.12427989653E+04  0.13688380807E+04  0.00000000000E+00 0. -1.
<mgrwt>
<rscale>  0 0.26644855E+04</rscale>
<asrwt>0</asrwt>
<pdfrwt beam="1">  1        2 0.21147061E+00 0.26644855E+04</pdfrwt>
<pdfrwt beam="2">  1       -2 0.19865066E+00 0.26644855E+04</pdfrwt>
<totfact> 0.17876361E+00</totfact>
</mgrwt>
</event>
<event>
 6    1  0.8968082E-007  0.1974016E+04  0.7818608E-02  0.8618866E-01
         -2   -1    0    0    0  501 -0.00000000000E+00  0.00000000000E+00  0.89287046666E+03  0.89287046666E+03  0.00000000000E+00 0.  1.
          2   -1    0    0  501    0  0.00000000000E+00 -0.00000000000E+00 -0.10910705067E+04  0.10910705067E+04  0.00000000000E+00 0. -1.
         23    2    1    2    0    0 -0.32176828667E+03 -0.14896322096E+03 -0.10213841115E+04  0.10876391900E+04  0.11835807102E+03 0.  0.
         11    1    3    3    0    0 -0.28541688377E+03 -0.12686655348E+03 -0.74237779219E+03  0.80540840961E+03  0.00000000000E+00 0. -1.
        -11    1    3    3    0    0 -0.36351402901E+02 -0.22096667480E+02 -0.27900631929E+03  0.28223078041E+03  0.00000000000E+00 0.  1.
         22    1    1    2    0    0  0.32176828667E+03  0.14896322096E+03  0.82318407139E+03  0.89630178339E+03  0.00000000000E+00 0.  1.
<mgrwt>
<rscale>  0 0.19740158E+04</rscale>
<asrwt>0</asrwt>
<pdfrwt beam="1">  1        2 0.16785700E+00 0.19740158E+04</pdfrwt>
<pdfrwt beam="2">  1       -2 0.13736469E+00 0.19740158E+04</pdfrwt>
<totfact> 0.77513534E+00</totfact>
</mgrwt>
</event>
<event>
 6    1  0.8968082E-007  0.2321119E+04  0.7818608E-02  0.8469640E-01
          1   -1    0    0  501    0  0.00000000000E+00  0.00000000000E+00  0.18196901601E+04  0.18196901601E+04  0.00000000000E+00 0. -1.
         -1   -1    0    0    0  501 -0.00000000000E+00 -0.00000000000E+00 -0.74017999996E+03  0.74017999996E+03  0.00000000000E+00 0.  1.
         23    2    1    2    0    0  0.27404115533E+03  0.98588629687E+03  0.11406190743E+04  0.15347825323E+04  0.86459261145E+02 0.  0.
         13    1    3    3    0    0  0.21263328000E+03  0.65450762319E+03  0.72341762337E+03  0.99846191634E+03  0.00000000000E+00 0.  1.
        -13    1    3    3    0    0  0.61407875336E+02  0.33137867368E+03  0.41720145090E+03  0.53632061601E+03  0.00000000000E+00 0. -1.
         22    1    1    2    0    0 -0.27404115533E+03 -0.98588629687E+03 -0.61108914102E+02  0.10250876277E+04  0.00000000000E+00 0. -1.
<mgrwt>
<rscale>  0 0.23211189E+04</rscale>
<asrwt>0</asrwt>
<pdfrwt beam="1">  1        1 0.27995233E+00 0.23211189E+04</pdfrwt>
<pdfrwt beam="2">  1       -1 0.11387385E+00 0.23211189E+04</pdfrwt>
<totfact> 0.25045966E+00</totfact>
</mgrwt>
</event>
<event>
 6    1  0.8968082E-007  0.8542982E+03  0.7818608E-02  0.9484586E-01
          1   -1    0    0  501    0  0.00000000000E+00  0.00000000000E+00  0.18082073027E+04  0.18082073027E+04  0.00000000000E+00 0. -1.
         -1   -1    0    0    0  501 -0.00000000000E+00 -0.00000000000E+00 -0.10090454455E+03  0.10090454455E+03  0.00000000000E+00 0.  1.
         23    2    1    2    0    0 -0.41617036331E+03 -0.70919866187E+02  0.83118323060E+03  0.93658276013E+03  0.89968355720E+02 0.  0.
         13    1    3    3    0    0 -0.37007579987E+02 -0.34248412559E+02  0.10872226267E+03  0.11984592250E+03  0.00000000000E+00 0.  1.
        -13    1    3    3    0    0 -0.37916278333E+03 -0.36671453628E+02  0.72246096792E+03  0.81673683763E+03  0.00000000000E+00 0. -1.
         22    1    1    2    0    0  0.41617036331E+03  0.70919866187E+02  0.87611952754E+03  0.97252908710E+03  0.00000000000E+00 0.  1.
<mgrwt>
<rscale>  0 0.85429815E+03</rscale>
<asrwt>0</asrwt>
<pdfrwt beam="1">  1        1 0.27818572E+00 0.85429815E+03</pdfrwt>
<pdfrwt beam="2">  1       -1 0.15523777E-01 0.85429815E+03</pdfrwt>
<totfact> 0.12717004E+02</totfact>
</mgrwt>
</event>
<event>
 6    1  0.8968082E-007  0.3038766E+04  0.7818608E-02  0.8232747E-01
          1   -1    0    0  501    0  0.00000000000E+00  0.00000000000E+00  0.15687739901E+04  0.15687739901E+04  0.00000000000E+00 0. -1.
         -1   -1    0    0    0  501 -0.00000000000E+00 -0.00000000000E+00 -0.14715465461E+04  0.14715465461E+04  0.00000000000E+00 0.  1.
         23    2    1    2    0    0 -0.10585071684E+04  0.78793801639E+03  0.79940335189E+03  0.15455514072E+04  0.91649822109E+02 0.  0.
         11    1    3    3    0    0 -0.82315200473E+03  0.56801452722E+03  0.58569805260E+03  0.11589917751E+04  0.00000000000E+00 0. -1.
        -11    1    3    3    0    0 -0.23535516372E+03  0.21992348917E+03  0.21370529929E+03  0.38655963204E+03  0.00000000000E+00 0.  1.
         22    1    1    2    0    0  0.10585071684E+04 -0.78793801639E+03 -0.70217590792E+03  0.14947691290E+04  0.00000000000E+00 0.  1.
<mgrwt>
<rscale>  0 0.30387655E+04</rscale>
<asrwt>0</asrwt>
<pdfrwt beam="1">  1        1 0.24134985E+00 0.30387655E+04</pdfrwt>
<pdfrwt beam="2">  1       -1 0.22639178E+00 0.30387655E+04</pdfrwt>
<totfact> 0.49611343E-01</totfact>
</mgrwt>
</event>
<event>
 6    1  0.8968082E-007  0.3292153E+04  0.7818608E-02  0.8164895E-01
         -1   -1    0    0    0  501 -0.00000000000E+00  0.00000000000E+00  0.13983943071E+04  0.13983943071E+04  0.00000000000E+00 0.  1.
          1   -1    0    0  501    0  0.00000000000E+00 -0.00000000000E+00 -0.19376280352E+04  0.19376280352E+04  0.00000000000E+00 0. -1.
         23    2    1    2    0    0 -0.40628979999E+03  0.82315530311E+03 -0.16528945822E+04  0.18927979826E+04  0.89261685003E+02 0.  0.
         13    1    3    3    0    0 -0.20315794796E+03  0.51055471915E+03 -0.98422265338E+03  0.11272238041E+04  0.00000000000E+00 0. -1.
        -13    1    3    3    0    0 -0.20313185203E+03  0.31260058397E+03 -0.66867192883E+03  0.76557417852E+03  0.00000000000E+00 0.  1.
         22    1    1    2    0    0  0.40628979999E+03 -0.82315530311E+03  0.11136608541E+04  0.14432243597E+04  0.00000000000E+00 0.  1.
<mgrwt>
<rscale>  0 0.32921531E+04</rscale>
<asrwt>0</asrwt>
<pdfrwt beam="1">  1        1 0.29809662E+00 0.32921531E+04</pdfrwt>
<pdfrwt beam="2">  1       -1 0.21513759E+00 0.32921531E+04</pdfrwt>
<totfact> 0.32362899E-01</totfact>
</mgrwt>
</event>
<event>
 6    1  0.8968082E-007  0.1527079E+04  0.7818608E-02  0.8866643E-01
         -2   -1    0    0    0  501 -0.00000000000E+00  0.00000000000E+00  0.30415700732E+03  0.30415700732E+03  0.00000000000E+00 0.  1.
          2   -1    0    0  501    0  0.00000000000E+00 -0.00000000000E+00 -0.19167485978E+04  0.19167485978E+04  0.00000000000E+00 0. -1.
         23    2    1    2    0    0 -0.20118327050E+03 -0.48683238905E+03 -0.16080529790E+04  0.16941218901E+04  0.82061635597E+02 0.  0.
         11    1    3    3    0    0 -0.17004804284E+03 -0.35261790739E+03 -0.12733685564E+04  0.13321873764E+04  0.00000000000E+00 0.  1.
        -11    1    3    3    0    0 -0.31135227663E+02 -0.13421448166E+03 -0.33468442263E+03  0.36193451374E+03  0.00000000000E+00 0. -1.
         22    1    1    2    0    0  0.20118327050E+03  0.48683238905E+03 -0.45386114617E+01  0.52678371496E+03  0.00000000000E+00 0.  1.
<mgrwt>
<rscale>  0 0.15270789E+04</rscale>
<asrwt>0</asrwt>
<pdfrwt beam="1">  1        2 0.29488440E+00 0.15270789E+04</pdfrwt>
<pdfrwt beam="2">  1       -2 0.46793386E-01 0.15270789E+04</pdfrwt>
<totfact> 0.31031475E+01</totfact>
</mgrwt>
</event>
<event>
 6    1  0.8968082E-007  0.2944551E+04  0.7818608E-02  0.8259744E-01
          1   -1    0    0  501    0  0.00000000000E+00  0.00000000000E+00  0.24870736942E+04  0.24870736942E+04  0.00000000000E+00 0. -1.
         -1   -1    0    0    0  501 -0.00000000000E+00 -0.00000000000E+00 -0.87154434925E+03  0.87154434925E+03  0.00000000000E+00 0.  1.
         23    2    1    2    0    0 -0.64401210581E+03 -0.71168200025E+03  0.20799053296E+04  0.22923685806E+04  0.87776233987E+02 0.  0.
         13    1    3    3    0    0 -0.53757280047E+03 -0.63803764460E+03  0.17907303799E+04  0.19755484922E+04  0.00000000000E+00 0.  1.
        -13    1    3    3    0    0 -0.10643930534E+03 -0.73644355654E+02  0.28917494972E+03  0.31682008835E+03  0.00000000000E+00 0. -1.
         22    1    1    2    0    0  0.64401210581E+03  0.71168200025E+03 -0.46437598467E+03  0.10662494629E+04  0.00000000000E+00 0.  1.
<mgrwt>
<rscale>  0 0.29445509E+04</rscale>
<asrwt>0</asrwt>
<pdfrwt beam="1">  1        1 0.38262672E+00 0.29445509E+04</pdfrwt>
<pdfrwt beam="2">  1       -1 0.13408375E+00 0.29445509E+04</pdfrwt>
<totfact> 0.55413562E-01</totfact>
</mgrwt>
</event>
<event>
 6    1  0.8968082E-007  0.2040473E+04  0.7818608E-02  0.8587929E-01
          1   -1    0    0  501    0  0.00000000000E+00  0.00000000000E+00  0.14882279037E+04  0.14882279037E+04  0.00000000000E+00 0. -1.
         -1   -1    0    0    0  501 -0.00000000000E+00 -0.00000000000E+00 -0.69941052113E+03  0.69941052113E+03  0.00000000000E+00 0.  1.
         23    2    1    2    0    0 -0.86624838161E+03  0.33669207297E+01 -0.17892250053E+03  0.88882432107E+03  0.87165461834E+02 0.  0.
         11    1    3    3    0    0 -0.38112124416E+03 -0.20499234103E+02 -0.40760491697E+02  0.38384246643E+03  0.00000000000E+00 0.  1.
        -11    1    3    3    0    0 -0.48512713744E+03  0.23866154833E+02 -0.13816200883E+03  0.50498185464E+03  0.00000000000E+00 0. -1.
         22    1    1    2    0    0  0.86624838161E+03 -0.33669207297E+01  0.96773988308E+03  0.12988141037E+04  0.00000000000E+00 0. -1.
<mgrwt>
<rscale>  0 0.20404727E+04</rscale>
<asrwt>0</asrwt>
<pdfrwt beam="1">  1        1 0.22895814E+00 0.20404727E+04</pdfrwt>
<pdfrwt beam="2">  1       -1 0.10760162E+00 0.20404727E+04</pdfrwt>
<totfact> 0.49538364E+00</totfact>
</mgrwt>
</event>
<event>
 6    1  0.8968082E-007  0.5401653E+04  0.7818608E-02  0.7769369E-01
         -2   -1    0    0    0  501 -0.00000000000E+00  0.00000000000E+00  0.14453655380E+04  0.14453655380E+04  0.00000000000E+00 0.  1.
          2   -1    0    0  501    0  0.00000000000E+00 -0.00000000000E+00 -0.50467944964E+04  0.50467944964E+04  0.00000000000E+00 0. -1.
         23    2    1    2    0    0  0.18685110312E+04 -0.31216191144E+03  0.51111338673E+03  0.19642705621E+04  0.91342292887E+02 0.  0.
         13    1    3    3    0    0  0.79654157842E+03 -0.10783215287E+03  0.25585471624E+03  0.84354483886E+03  0.00000000000E+00 0.  1.
        -13    1    3    3    0    0  0.10719694528E+04 -0.20432975857E+03  0.25525867049E+03  0.11207257233E+04  0.00000000000E+00 0. -1.
         22    1    1    2    0    0 -0.18685110312E+04  0.31216191144E+03 -0.41125423451E+04  0.45278894722E+04  0.00000000000E+00 0. -1.
<mgrwt>
<rscale>  0 0.54016527E+04</rscale>
<asrwt>0</asrwt>
<pdfrwt beam="1">  1        2 0.77642993E+00 0.54016527E+04</pdfrwt>
<pdfrwt beam="2">  1       -2 0.22236393E+00 0.54016527E+04</pdfrwt>
<totfact> 0.19734360E-03</totfact>
</mgrwt>
</event>
<event>
 6    1  0.8968082E-007  0.1569031E+04  0.7818608E-02  0.8839803E-01
         -1   -1    0    0    0  501 -0.00000000000E+00  0.00000000000E+00  0.30234243613E+03  0.30234243613E+03  0.00000000000E+00 0.  1.
          1   -1    0    0  501    0  0.00000000000E+00 -0.00000000000E+00 -0.20356537073E+04  0.20356537073E+04  0.00000000000E+00 0. -1.
         23    2    1    2    0    0 -0.15364813196E+03 -0.15458456379E+03 -0.19884665902E+04  0.20024244333E+04  0.90554374683E+02 0.  0.
         11    1    3    3    0    0 -0.96099379420E+02 -0.62378535380E+02 -0.13422597212E+04  0.13471404276E+04  0.00000000000E+00 0.  1.
        -11    1    3    3    0    0 -0.57548752541E+02 -0.92206028405E+02 -0.64620686903E+03  0.65528400574E+03  0.00000000000E+00 0. -1.
         22    1    1    2    0    0  0.15364813196E+03  0.15458456379E+03  0.25515531905E+03  0.33557171015E+03  0.00000000000E+00 0.  1.
<mgrwt>
<rscale>  0 0.15690309E+04</rscale>
<asrwt>0</asrwt>
<pdfrwt beam="1">  1        1 0.31317750E+00 0.15690309E+04</pdfrwt>
<pdfrwt beam="2">  1       -1 0.46514220E-01 0.15690309E+04</pdfrwt>
<totfact> 0.12485752E+01</totfact>
</mgrwt>
</event>
<event>
 6    1  0.8968082E-007  0.3997594E+04  0.7818608E-02  0.8005032E-01
         -2   -1    0    0    0  501 -0.00000000000E+00  0.00000000000E+00  0.18464221184E+04  0.18464221184E+04  0.00000000000E+00 0.  1.
          2   -1    0    0  501    0  0.00000000000E+00 -0.00000000000E+00 -0.21637463501E+04  0.21637463501E+04  0.00000000000E+00 0. -1.
         23    2    1    2    0    0  0.35653615968E+03  0.13229684098E+04  0.12996546913E+04  0.18907382894E+04  0.91790609800E+02 0.  0.
         13    1    3    3    0    0  0.17700538272E+03  0.81334603630E+03  0.76217169365E+03  0.11286134728E+04  0.00000000000E+00 0. -1.
        -13    1    3    3    0    0  0.17953077696E+03  0.50962237348E+03  0.53748299762E+03  0.76212481665E+03  0.00000000000E+00 0.  1.
         22    1    1    2    0    0 -0.35653615968E+03 -0.13229684098E+04 -0.16169789230E+04  0.21194301790E+04  0.00000000000E+00 0. -1.
<mgrwt>
<rscale>  0 0.39975938E+04</rscale>
<asrwt>0</asrwt>
<pdfrwt beam="1">  1        2 0.33288405E+00 0.39975938E+04</pdfrwt>
<pdfrwt beam="2">  1       -2 0.28406494E+00 0.39975938E+04</pdfrwt>
<totfact> 0.16985914E-01</totfact>
</mgrwt>
</event>
<event>
 6    1  0.8968082E-007  0.2221428E+04  0.7818608E-02  0.8509562E-01
         -2   -1    0    0    0  501 -0.00000000000E+00  0.00000000000E+00  0.71315593062E+03  0.71315593062E+03  0.00000000000E+00 0.  1.
          2   -1    0    0  501    0  0.00000000000E+00 -0.00000000000E+00 -0.17298965806E+04  0.17298965806E+04  0.00000000000E+00 0. -1.
         23    2    1    2    0    0 -0.63657615356E+03  0.70162112145E+03 -0.11429500339E+04  0.14873170845E+04  0.90972152604E+02 0.  0.
         11    1    3    3    0    0 -0.19199160031E+03  0.27117501219E+03 -0.42557574701E+03  0.53991793661E+03  0.00000000000E+00 0. -1.
        -11    1    3    3    0    0 -0.44458455325E+03  0.43044610926E+03 -0.71737428687E+03  0.94739914789E+03  0.00000000000E+00 0.  1.
         22    1    1    2    0    0  0.63657615356E+03 -0.70162112145E+03  0.12620938388E+03  0.95573542674E+03  0.00000000000E+00 0.  1.
<mgrwt>
<rscale>  0 0.22214284E+04</rscale>
<asrwt>0</asrwt>
<pdfrwt beam="1">  1        2 0.26613793E+00 0.22214284E+04</pdfrwt>
<pdfrwt beam="2">  1       -2 0.10971630E+00 0.22214284E+04</pdfrwt>
<totfact> 0.56940797E+00</totfact>
</mgrwt>
</event>
<event>
 6    1  0.8968082E-007  0.2611315E+04  0.7818608E-02  0.8364368E-01
         -2   -1    0    0    0  501 -0.00000000000E+00  0.00000000000E+00  0.95553290918E+03  0.95553290918E+03  0.00000000000E+00 0.  1.
          2   -1    0    0  501    0  0.00000000000E+00 -0.00000000000E+00 -0.17840740015E+04  0.17840740015E+04  0.00000000000E+00 0. -1.
         23    2    1    2    0    0  0.29194153728E+03  0.43042286161E+03  0.83981979368E+03  0.99205955884E+03  0.91603392049E+02 0.  0.
         11    1    3    3    0    0  0.26074319991E+03  0.37174968744E+03  0.66688213968E+03  0.80679404723E+03  0.00000000000E+00 0.  1.
        -11    1    3    3    0    0  0.31198337370E+02  0.58673174165E+02  0.17293765400E+03  0.18526551161E+03  0.00000000000E+00 0. -1.
         22    1    1    2    0    0 -0.29194153728E+03 -0.43042286161E+03 -0.16683608860E+04  0.17475473518E+04  0.00000000000E+00 0. -1.
<mgrwt>
<rscale>  0 0.26113149E+04</rscale>
<asrwt>0</asrwt>
<pdfrwt beam="1">  1        2 0.27447292E+00 0.26113149E+04</pdfrwt>
<pdfrwt beam="2">  1       -2 0.14700506E+00 0.26113149E+04</pdfrwt>
<totfact> 0.24599135E+00</totfact>
</mgrwt>
</event>
<event>
 6    1  0.8968082E-007  0.2174554E+04  0.7818608E-02  0.8529094E-01
          2   -1    0    0  501    0  0.00000000000E+00  0.00000000000E+00  0.13620719615E+04  0.13620719615E+04  0.00000000000E+00 0. -1.
         -2   -1    0    0    0  501 -0.00000000000E+00 -0.00000000000E+00 -0.86792162192E+03  0.86792162192E+03  0.00000000000E+00 0.  1.
         23    2    1    2    0    0 -0.83748477869E+03 -0.45841983492E+03 -0.28212467159E+03  0.99949271284E+03  0.88667091525E+02 0.  0.
         13    1    3    3    0    0 -0.52483752061E+03 -0.33485830882E+03 -0.17603294511E+03  0.64697148916E+03  0.00000000000E+00 0. -1.
        -13    1    3    3    0    0 -0.31264725808E+03 -0.12356152611E+03 -0.10609172648E+03  0.35252122368E+03  0.00000000000E+00 0.  1.
         22    1    1    2    0    0  0.83748477869E+03  0.45841983492E+03  0.77627501121E+03  0.12305008706E+04  0.00000000000E+00 0.  1.
<mgrwt>
<rscale>  0 0.21745544E+04</rscale>
<asrwt>0</asrwt>
<pdfrwt beam="1">  1        2 0.20954953E+00 0.21745544E+04</pdfrwt>
<pdfrwt beam="2">  1       -2 0.13352640E+00 0.21745544E+04</pdfrwt>
<totfact> 0.56555954E+00</totfact>
</mgrwt>
</event>
<event>
 6    1  0.8968082E-007  0.2107034E+04  0.7818608E-02  0.8558151E-01
          2   -1    0    0  501    0  0.00000000000E+00  0.00000000000E+00  0.18261255035E+04  0.18261255035E+04  0.00000000000E+00 0. -1.
         -2   -1    0    0    0  501 -0.00000000000E+00 -0.00000000000E+00 -0.60778877895E+03  0.60778877895E+03  0.00000000000E+00 0.  1.
         23    2    1    2    0    0 -0.93437601435E+02 -0.39211069076E+02  0.18193383223E+04  0.18244300629E+04  0.91022141190E+02 0.  0.
         11    1    3    3    0    0 -0.33551997932E+02 -0.25438282061E+02  0.13980466765E+04  0.13986805756E+04  0.00000000000E+00 0.  1.
        -11    1    3    3    0    0 -0.59885603502E+02 -0.13772787015E+02  0.42129164578E+03  0.42574948735E+03  0.00000000000E+00 0. -1.
         22    1    1    2    0    0  0.93437601435E+02  0.39211069076E+02 -0.60100159778E+03  0.60948421951E+03  0.00000000000E+00 0.  1.
<mgrwt>
<rscale>  0 0.21070345E+04</rscale>
<asrwt>0</asrwt>
<pdfrwt beam="1">  1        2 0.28094238E+00 0.21070345E+04</pdfrwt>
<pdfrwt beam="2">  1       -2 0.93505967E-01 0.21070345E+04</pdfrwt>
<totfact> 0.74335551E+00</totfact>
</mgrwt>
</event>
<event>
 6    1  0.8968082E-007  0.1293145E+04  0.7818608E-02  0.9035019E-01
         -2   -1    0    0    0  501 -0.00000000000E+00  0.00000000000E+00  0.11454782444E+03  0.11454782444E+03  0.00000000000E+00 0.  1.
          2   -1    0    0  501    0  0.00000000000E+00 -0.00000000000E+00 -0.36496211572E+04  0.36496211572E+04  0.00000000000E+00 0. -1.
         23    2    1    2    0    0  0.12016423206E+03 -0.47025556442E+03 -0.30053566480E+04  0.30457126471E+04  0.92828920288E+02 0.  0.
         13    1    3    3    0    0  0.43438499775E+02 -0.19519578026E+03 -0.96785210841E+03  0.98829449035E+03  0.00000000000E+00 0. -1.
        -13    1    3    3    0    0  0.76725732282E+02 -0.27505978416E+03 -0.20375045396E+04  0.20574181568E+04  0.00000000000E+00 0.  1.
         22    1    1    2    0    0 -0.12016423206E+03  0.47025556442E+03 -0.52971668477E+03  0.71845633455E+03  0.00000000000E+00 0.  1.
<mgrwt>
<rscale>  0 0.12931453E+04</rscale>
<asrwt>0</asrwt>
<pdfrwt beam="1">  1        2 0.56148007E+00 0.12931453E+04</pdfrwt>
<pdfrwt beam="2">  1       -2 0.17622745E-01 0.12931453E+04</pdfrwt>
<totfact> 0.17026460E+01</totfact>
</mgrwt>
</event>
<event>
 6    1  0.8968082E-007  0.9318864E+03  0.7818608E-02  0.9386577E-01
          2   -1    0    0  501    0  0.00000000000E+00  0.00000000000E+00  0.58898591012E+03  0.58898591012E+03  0.00000000000E+00 0. -1.
         -2   -1    0    0    0  501 -0.00000000000E+00 -0.00000000000E+00 -0.36860483046E+03  0.36860483046E+03  0.00000000000E+00 0.  1.
         23    2    1    2    0    0  0.24883105843E+03 -0.33351678865E+03  0.31629235794E+03  0.53056695055E+03  0.91159691619E+02 0.  0.
         13    1    3    3    0    0  0.12106652342E+03 -0.13298162109E+03  0.85222013128E+02  0.19900755303E+03  0.00000000000E+00 0. -1.
        -13    1    3    3    0    0  0.12776453501E+03 -0.20053516756E+03  0.23107034482E+03  0.33155939753E+03  0.00000000000E+00 0.  1.
         22    1    1    2    0    0 -0.24883105843E+03  0.33351678865E+03 -0.95911278278E+02  0.42702379003E+03  0.00000000000E+00 0.  1.
<mgrwt>
<rscale>  0 0.93188637E+03</rscale>
<asrwt>0</asrwt>
<pdfrwt beam="1">  1        2 0.90613217E-01 0.93188637E+03</pdfrwt>
<pdfrwt beam="2">  1       -2 0.56708435E-01 0.93188637E+03</pdfrwt>
<totfact> 0.14826786E+02</totfact>
</mgrwt>
</event>
<event>
 6    1  0.8968082E-007  0.2354531E+04  0.7818608E-02  0.8456725E-01
         -2   -1    0    0    0  501 -0.00000000000E+00  0.00000000000E+00  0.65267761123E+03  0.65267761123E+03  0.00000000000E+00 0.  1.
          2   -1    0    0  501    0  0.00000000000E+00 -0.00000000000E+00 -0.21234894524E+04  0.21234894524E+04  0.00000000000E+00 0. -1.
         23    2    1    2    0    0 -0.35616537543E+03 -0.46225313645E+03 -0.19396627458E+04  0.20275998271E+04  0.91311305575E+02 0.  0.
         13    1    3    3    0    0 -0.35262942468E+03 -0.43460643330E+03 -0.18836407137E+04  0.19650273793E+04  0.00000000000E+00 0.  1.
        -13    1    3    3    0    0 -0.35359507447E+01 -0.27646703148E+02 -0.56022032050E+02  0.62572447752E+02  0.00000000000E+00 0. -1.
         22    1    1    2    0    0  0.35616537543E+03  0.46225313645E+03  0.46885090465E+03  0.74856723653E+03  0.00000000000E+00 0.  1.
<mgrwt>
<rscale>  0 0.23545310E+04</rscale>
<asrwt>0</asrwt>
<pdfrwt beam="1">  1        2 0.32669069E+00 0.23545310E+04</pdfrwt>
<pdfrwt beam="2">  1       -2 0.10041194E+00 0.23545310E+04</pdfrwt>
<totfact> 0.42083575E+00</totfact>
</mgrwt>
</event>
<event>
 6    1  0.8968082E-007  0.1877454E+04  0.7818608E-02  0.8666161E-01
          1   -1    0    0  501    0  0.00000000000E+00  0.00000000000E+00  0.12571356413E+04  0.12571356413E+04  0.00000000000E+00 0. -1.
         -1   -1    0    0    0  501 -0.00000000000E+00 -0.00000000000E+00 -0.70096535319E+03  0.70096535319E+03  0.00000000000E+00 0.  1.
         23    2    1    2    0    0  0.11639999879E+03 -0.68881441855E+03 -0.37199484940E+03  0.79641911659E+03  0.88819920971E+02 0.  0.
         13    1    3    3    0    0  0.44770960556E+02 -0.35079485911E+03 -0.14058068178E+03  0.38055801158E+03  0.00000000000E+00 0. -1.
        -13    1    3    3    0    0  0.71629038237E+02 -0.33801955945E+03 -0.23141416762E+03  0.41586110501E+03  0.00000000000E+00 0.  1.
         22    1    1    2    0    0 -0.11639999879E+03  0.68881441855E+03  0.92816513750E+03  0.11616818779E+04  0.00000000000E+00 0. -1.
<mgrwt>
<rscale>  0 0.18774542E+04</rscale>
<asrwt>0</asrwt>
<pdfrwt beam="1">  1        1 0.19340548E+00 0.18774542E+04</pdfrwt>
<pdfrwt beam="2">  1       -1 0.10784082E+00 0.18774542E+04</pdfrwt>
<totfact> 0.72806197E+00</totfact>
</mgrwt>
</event>
<event>
 6    1  0.8968082E-007  0.5678124E+04  0.7818608E-02  0.7731644E-01
          2   -1    0    0  501    0  0.00000000000E+00  0.00000000000E+00  0.36295048985E+04  0.36295048985E+04  0.00000000000E+00 0. -1.
         -2   -1    0    0    0  501 -0.00000000000E+00 -0.00000000000E+00 -0.22207637936E+04  0.22207637936E+04  0.00000000000E+00 0.  1.
         23    2    1    2    0    0  0.23418086703E+04  0.73181405725E+03 -0.76578405835E+03  0.25718270884E+04  0.90827783888E+02 0.  0.
         13    1    3    3    0    0  0.14013005499E+04  0.43333018398E+03 -0.50413302338E+03  0.15509894857E+04  0.00000000000E+00 0. -1.
        -13    1    3    3    0    0  0.94050812037E+03  0.29848387327E+03 -0.26165103498E+03  0.10208376028E+04  0.00000000000E+00 0.  1.
         22    1    1    2    0    0 -0.23418086703E+04 -0.73181405725E+03  0.21745251633E+04  0.32784416036E+04  0.00000000000E+00 0. -1.
<mgrwt>
<rscale>  0 0.56781240E+04</rscale>
<asrwt>0</asrwt>
<pdfrwt beam="1">  1        2 0.55838537E+00 0.56781240E+04</pdfrwt>
<pdfrwt beam="2">  1       -2 0.34165597E+00 0.56781240E+04</pdfrwt>
<totfact> 0.79423327E-03</totfact>
</mgrwt>
</event>
<event>
 6    1  0.8968082E-007  0.2232498E+04  0.7818608E-02  0.8505022E-01
          1   -1    0    0  501    0  0.00000000000E+00  0.00000000000E+00  0.16897192728E+04  0.16897192728E+04  0.00000000000E+00 0. -1.
         -1   -1    0    0    0  501 -0.00000000000E+00 -0.00000000000E+00 -0.73740749638E+03  0.73740749638E+03  0.00000000000E+00 0.  1.
         23    2    1    2    0    0 -0.42474594594E+03 -0.10118242229E+04  0.25971802719E+03  0.11294814100E+04  0.63854720876E+02 0.  0.
         13    1    3    3    0    0 -0.77244974641E+02 -0.13197686398E+03  0.26912693080E+02  0.15527064044E+03  0.00000000000E+00 0.  1.
        -13    1    3    3    0    0 -0.34750097129E+03 -0.87984735890E+03  0.23280533411E+03  0.97421076960E+03  0.00000000000E+00 0. -1.
         22    1    1    2    0    0  0.42474594594E+03  0.10118242229E+04  0.69259374921E+03  0.12976453591E+04  0.00000000000E+00 0.  1.
<mgrwt>
<rscale>  0 0.22324978E+04</rscale>
<asrwt>0</asrwt>
<pdfrwt beam="1">  1        1 0.25995681E+00 0.22324978E+04</pdfrwt>
<pdfrwt beam="2">  1       -1 0.11344731E+00 0.22324978E+04</pdfrwt>
<totfact> 0.31225426E+00</totfact>
</mgrwt>
</event>
<event>
 6    1  0.8968082E-007  0.4285904E+03  0.7818608E-02  0.1034306E+00
          2   -1    0    0  501    0  0.00000000000E+00  0.00000000000E+00  0.17450530519E+04  0.17450530519E+04  0.00000000000E+00 0. -1.
         -2   -1    0    0    0  501 -0.00000000000E+00 -0.00000000000E+00 -0.26315783761E+02  0.26315783761E+02  0.00000000000E+00 0.  1.
         23    2    1    2    0    0  0.97354143553E+02 -0.29604687295E+02  0.16311918979E+04  0.16371359834E+04  0.95252052368E+02 0.  0.
         11    1    3    3    0    0 -0.13743580107E+02 -0.11747643222E+02  0.50802001272E+03  0.50834164342E+03  0.00000000000E+00 0. -1.
        -11    1    3    3    0    0  0.11109772366E+03 -0.17857044073E+02  0.11231718852E+04  0.11287943400E+04  0.00000000000E+00 0.  1.
         22    1    1    2    0    0 -0.97354143553E+02  0.29604687295E+02  0.87545370150E+02  0.13423285221E+03  0.00000000000E+00 0.  1.
<mgrwt>
<rscale>  0 0.42859043E+03</rscale>
<asrwt>0</asrwt>
<pdfrwt beam="1">  1        2 0.26846961E+00 0.42859043E+03</pdfrwt>
<pdfrwt beam="2">  1       -2 0.40485835E-02 0.42859043E+03</pdfrwt>
<totfact> 0.27188541E+03</totfact>
</mgrwt>
</event>
<event>
 6    1  0.8968082E-007  0.3834993E+03  0.7818608E-02  0.1049648E+00
          2   -1    0    0  501    0  0.00000000000E+00  0.00000000000E+00  0.16736990517E+03  0.16736990517E+03  0.00000000000E+00 0. -1.
         -2   -1    0    0    0  501 -0.00000000000E+00 -0.00000000000E+00 -0.21968064393E+03  0.21968064393E+03  0.00000000000E+00 0.  1.
         23    2    1    2    0    0  0.49010256960E+02 -0.22230771798E+02 -0.20182321336E+03  0.22814745737E+03  0.91773854410E+02 0.  0.
         11    1    3    3    0    0  0.10151727753E+01 -0.41303179030E+02 -0.14756304979E+03  0.15323784401E+03  0.00000000000E+00 0.  1.
        -11    1    3    3    0    0  0.47995084185E+02  0.19072407232E+02 -0.54260163567E+02  0.74909613361E+02  0.00000000000E+00 0. -1.
         22    1    1    2    0    0 -0.49010256960E+02  0.22230771798E+02  0.14951247460E+03  0.15890309173E+03  0.00000000000E+00 0. -1.
<mgrwt>
<rscale>  0 0.38349930E+03</rscale>
<asrwt>0</asrwt>
<pdfrwt beam="1">  1        2 0.25749216E-01 0.38349930E+03</pdfrwt>
<pdfrwt beam="2">  1       -2 0.33797022E-01 0.38349930E+03</pdfrwt>
<totfact> 0.17176570E+03</totfact>
</mgrwt>
</event>
<event>
 6    1  0.8968082E-007  0.3661828E+04  0.7818608E-02  0.8076474E-01
          2   -1    0    0  501    0  0.00000000000E+00  0.00000000000E+00  0.16736739234E+04  0.16736739234E+04  0.00000000000E+00 0. -1.
         -2   -1    0    0    0  501 -0.00000000000E+00 -0.00000000000E+00 -0.20029269333E+04  0.20029269333E+04  0.00000000000E+00 0.  1.
         23    2    1    2    0    0  0.37760696647E+03  0.15836881575E+04  0.67368923279E+03  0.17643905275E+04  0.92528642728E+02 0.  0.
         11    1    3    3    0    0  0.22813662226E+03  0.97021089385E+03  0.46083956523E+03  0.10980567389E+04  0.00000000000E+00 0. -1.
        -11    1    3    3    0    0  0.14947034421E+03  0.61347726364E+03  0.21284966756E+03  0.66633378856E+03  0.00000000000E+00 0.  1.
         22    1    1    2    0    0 -0.37760696647E+03 -0.15836881575E+04 -0.10029422427E+04  0.19122103293E+04  0.00000000000E+00 0.  1.
<mgrwt>
<rscale>  0 0.36618283E+04</rscale>
<asrwt>0</asrwt>
<pdfrwt beam="1">  1        2 0.25748830E+00 0.36618283E+04</pdfrwt>
<pdfrwt beam="2">  1       -2 0.30814260E+00 0.36618283E+04</pdfrwt>
<totfact> 0.23301573E-01</totfact>
</mgrwt>
</event>
<event>
 6    1  0.8968082E-007  0.2068718E+04  0.7818608E-02  0.8575150E-01
          2   -1    0    0  501    0  0.00000000000E+00  0.00000000000E+00  0.19100896415E+04  0.19100896415E+04  0.00000000000E+00 0. -1.
         -2   -1    0    0    0  501 -0.00000000000E+00 -0.00000000000E+00 -0.56013023807E+03  0.56013023807E+03  0.00000000000E+00 0.  1.
         23    2    1    2    0    0  0.19513238673E+03 -0.76917298404E+03  0.14647408796E+04  0.16684228261E+04  0.92006274192E+02 0.  0.
         11    1    3    3    0    0  0.12131815836E+03 -0.60574794942E+03  0.10872439683E+04  0.12504991485E+04  0.00000000000E+00 0. -1.
        -11    1    3    3    0    0  0.73814228362E+02 -0.16342503462E+03  0.37749691127E+03  0.41792367756E+03  0.00000000000E+00 0.  1.
         22    1    1    2    0    0 -0.19513238673E+03  0.76917298404E+03 -0.11478147617E+03  0.80179705350E+03  0.00000000000E+00 0. -1.
<mgrwt>
<rscale>  0 0.20687184E+04</rscale>
<asrwt>0</asrwt>
<pdfrwt beam="1">  1        2 0.29385994E+00 0.20687184E+04</pdfrwt>
<pdfrwt beam="2">  1       -2 0.86173884E-01 0.20687184E+04</pdfrwt>
<totfact> 0.80869255E+00</totfact>
</mgrwt>
</event>
<event>
 6    1  0.8968082E-007  0.1842630E+04  0.7818608E-02  0.8683952E-01
          2   -1    0    0  501    0  0.00000000000E+00  0.00000000000E+00  0.21558924554E+04  0.21558924554E+04  0.00000000000E+00 0. -1.
         -2   -1    0    0    0  501 -0.00000000000E+00 -0.00000000000E+00 -0.39372137934E+03  0.39372137934E+03  0.00000000000E+00 0.  1.
         23    2    1    2    0    0 -0.45016917711E+03 -0.44790903186E+03 -0.35895349579E+02  0.64270071142E+03  0.92200539616E+02 0.  0.
         13    1    3    3    0    0 -0.29559569114E+03 -0.23108313754E+03 -0.29158425957E+02  0.37633288839E+03  0.00000000000E+00 0. -1.
        -13    1    3    3    0    0 -0.15457348597E+03 -0.21682589431E+03 -0.67369236216E+01  0.26636782303E+03  0.00000000000E+00 0.  1.
         22    1    1    2    0    0  0.45016917711E+03  0.44790903186E+03  0.17980664256E+04  0.19069131233E+04  0.00000000000E+00 0. -1.
<mgrwt>
<rscale>  0 0.18426296E+04</rscale>
<asrwt>0</asrwt>
<pdfrwt beam="1">  1        2 0.33167576E+00 0.18426296E+04</pdfrwt>
<pdfrwt beam="2">  1       -2 0.60572521E-01 0.18426296E+04</pdfrwt>
<totfact> 0.13058535E+01</totfact>
</mgrwt>
</event>
<event>
 6    1  0.8968082E-007  0.1950231E+04  0.7818608E-02  0.8630249E-01
         -1   -1    0    0    0  501 -0.00000000000E+00  0.00000000000E+00  0.59203228681E+03  0.59203228681E+03  0.00000000000E+00 0.  1.
          1   -1    0    0  501    0  0.00000000000E+00 -0.00000000000E+00 -0.16060785498E+04  0.16060785498E+04  0.00000000000E+00 0. -1.
         23    2    1    2    0    0 -0.59869488366E+03  0.38007063079E+03  0.24280018008E+03  0.75500577127E+03  0.90512646118E+02 0.  0.
         11    1    3    3    0    0 -0.55478163413E+03  0.37259083978E+03  0.24103347383E+03  0.71042503543E+03  0.00000000000E+00 0. -1.
        -11    1    3    3    0    0 -0.43913249525E+02  0.74797910051E+01  0.17667062456E+01  0.44580735843E+02  0.00000000000E+00 0.  1.
         22    1    1    2    0    0  0.59869488366E+03 -0.38007063079E+03 -0.12568464430E+04  0.14431050653E+04  0.00000000000E+00 0. -1.
<mgrwt>
<rscale>  0 0.19502311E+04</rscale>
<asrwt>0</asrwt>
<pdfrwt beam="1">  1        1 0.24708900E+00 0.19502311E+04</pdfrwt>
<pdfrwt beam="2">  1       -1 0.91081891E-01 0.19502311E+04</pdfrwt>
<totfact> 0.60565285E+00</totfact>
</mgrwt>
</event>
<event>
 6    1  0.8968082E-007  0.9802829E+03  0.7818608E-02  0.9330439E-01
         -2   -1    0    0    0  501 -0.00000000000E+00  0.00000000000E+00  0.16054304547E+03  0.16054304547E+03  0.00000000000E+00 0.  1.
          2   -1    0    0  501    0  0.00000000000E+00 -0.00000000000E+00 -0.14964125089E+04  0.14964125089E+04  0.00000000000E+00 0. -1.
         23    2    1    2    0    0 -0.22924022957E+03  0.34957942930E+03 -0.10923189363E+04  0.11731438973E+04  0.91373327933E+02 0.  0.
         13    1    3    3    0    0 -0.20989674469E+03  0.25792934443E+03 -0.89314201041E+03  0.95304083906E+03  0.00000000000E+00 0.  1.
        -13    1    3    3    0    0 -0.19343484871E+02  0.91650084876E+02 -0.19917692585E+03  0.22010305826E+03  0.00000000000E+00 0. -1.
         22    1    1    2    0    0  0.22924022957E+03 -0.34957942930E+03 -0.24355052721E+03  0.48381165710E+03  0.00000000000E+00 0.  1.
<mgrwt>
<rscale>  0 0.98028286E+03</rscale>
<asrwt>0</asrwt>
<pdfrwt beam="1">  1        2 0.23021731E+00 0.98028286E+03</pdfrwt>
<pdfrwt beam="2">  1       -2 0.24698930E-01 0.98028286E+03</pdfrwt>
<totfact> 0.18675502E+02</totfact>
</mgrwt>
</event>
<event>
 6    1  0.8968082E-007  0.3458270E+04  0.7818608E-02  0.8123751E-01
         -2   -1    0    0    0  501 -0.00000000000E+00  0.00000000000E+00  0.97482080945E+03  0.97482080945E+03  0.00000000000E+00 0.  1.
          2   -1    0    0  501    0  0.00000000000E+00 -0.00000000000E+00 -0.30671354446E+04  0.30671354446E+04  0.00000000000E+00 0. -1.
         23    2    1    2    0    0 -0.85484536947E+03 -0.13011979304E+04 -0.17109408115E+03  0.15691107116E+04  0.94649780239E+02 0.  0.
         13    1    3    3    0    0 -0.59235337401E+03 -0.96982516757E+03 -0.10537580180E+03  0.11412920025E+04  0.00000000000E+00 0.  1.
        -13    1    3    3    0    0 -0.26249199546E+03 -0.33137276281E+03 -0.65718279353E+02  0.42781870910E+03  0.00000000000E+00 0. -1.
         22    1    1    2    0    0  0.85484536947E+03  0.13011979304E+04 -0.19212205540E+04  0.24728455424E+04  0.00000000000E+00 0. -1.
<mgrwt>
<rscale>  0 0.34582698E+04</rscale>
<asrwt>0</asrwt>
<pdfrwt beam="1">  1        2 0.47186700E+00 0.34582698E+04</pdfrwt>
<pdfrwt beam="2">  1       -2 0.14997243E+00 0.34582698E+04</pdfrwt>
<totfact> 0.39000313E-01</totfact>
</mgrwt>
</event>
<event>
 6    1  0.8968082E-007  0.2813046E+04  0.7818608E-02  0.8299229E-01
         -1   -1    0    0    0  501 -0.00000000000E+00  0.00000000000E+00  0.23222265222E+04  0.23222265222E+04  0.00000000000E+00 0.  1.
          1   -1    0    0  501    0  0.00000000000E+00 -0.00000000000E+00 -0.85190118726E+03  0.85190118726E+03  0.00000000000E+00 0. -1.
         23    2    1    2    0    0 -0.10221148975E+04 -0.96152329556E+03  0.65676333368E+03  0.15520521743E+04  0.91005295119E+02 0.  0.
         11    1    3    3    0    0 -0.74165449079E+03 -0.64885119538E+03  0.48424907783E+03  0.10979783362E+04  0.00000000000E+00 0. -1.
        -11    1    3    3    0    0 -0.28046040675E+03 -0.31267210019E+03  0.17251425585E+03  0.45407383811E+03  0.00000000000E+00 0.  1.
         22    1    1    2    0    0  0.10221148975E+04  0.96152329556E+03  0.81356200123E+03  0.16220755351E+04  0.00000000000E+00 0.  1.
<mgrwt>
<rscale>  0 0.28130464E+04</rscale>
<asrwt>0</asrwt>
<pdfrwt beam="1">  1        1 0.13106172E+00 0.28130464E+04</pdfrwt>
<pdfrwt beam="2">  1       -1 0.35726562E+00 0.28130464E+04</pdfrwt>
<totfact> 0.23985675E-01</totfact>
</mgrwt>
</event>
<event>
 6    1  0.8968082E-007  0.2385126E+04  0.7818608E-02  0.8445093E-01
          1   -1    0    0  501    0  0.00000000000E+00  0.00000000000E+00  0.94379417668E+03  0.94379417668E+03  0.00000000000E+00 0. -1.
         -1   -1    0    0    0  501 -0.00000000000E+00 -0.00000000000E+00 -0.15069031466E+04  0.15069031466E+04  0.00000000000E+00 0.  1.
         23    2    1    2    0    0 -0.25157484042E+03 -0.29315828015E+03  0.87596634332E+03  0.96067402322E+03  0.79660948341E+02 0.  0.
         13    1    3    3    0    0 -0.11395493897E+03 -0.14413609893E+03  0.51240098744E+03  0.54434889093E+03  0.00000000000E+00 0.  1.
        -13    1    3    3    0    0 -0.13761990145E+03 -0.14902218122E+03  0.36356535588E+03  0.41632513228E+03  0.00000000000E+00 0. -1.
         22    1    1    2    0    0  0.25157484042E+03  0.29315828015E+03 -0.14390753133E+04  0.14900233001E+04  0.00000000000E+00 0.  1.
<mgrwt>
<rscale>  0 0.23851259E+04</rscale>
<asrwt>0</asrwt>
<pdfrwt beam="1">  1        1 0.14519910E+00 0.23851259E+04</pdfrwt>
<pdfrwt beam="2">  1       -1 0.23183125E+00 0.23851259E+04</pdfrwt>
<totfact> 0.13807523E+00</totfact>
</mgrwt>
</event>
<event>
 6    1  0.8968082E-007  0.2141659E+04  0.7818608E-02  0.8543111E-01
         -2   -1    0    0    0  501 -0.00000000000E+00  0.00000000000E+00  0.13358874358E+04  0.13358874358E+04  0.00000000000E+00 0.  1.
          2   -1    0    0  501    0  0.00000000000E+00 -0.00000000000E+00 -0.85836284290E+03  0.85836284290E+03  0.00000000000E+00 0. -1.
         23    2    1    2    0    0 -0.83623431245E+03 -0.61297400699E+03  0.50552139426E+03  0.11570382563E+04  0.90336525835E+02 0.  0.
         13    1    3    3    0    0 -0.11024986720E+03 -0.45353514476E+02  0.58694925288E+02  0.13287990347E+03  0.00000000000E+00 0. -1.
        -13    1    3    3    0    0 -0.72598444525E+03 -0.56762049252E+03  0.44682646898E+03  0.10241583528E+04  0.00000000000E+00 0.  1.
         22    1    1    2    0    0  0.83623431245E+03  0.61297400699E+03 -0.27996801355E+02  0.10372120224E+04  0.00000000000E+00 0. -1.
<mgrwt>
<rscale>  0 0.21416593E+04</rscale>
<asrwt>0</asrwt>
<pdfrwt beam="1">  1        2 0.13205582E+00 0.21416593E+04</pdfrwt>
<pdfrwt beam="2">  1       -2 0.20552115E+00 0.21416593E+04</pdfrwt>
<totfact> 0.35189713E+00</totfact>
</mgrwt>
</event>
<event>
 6    1  0.8968082E-007  0.1509315E+04  0.7818608E-02  0.8878282E-01
         -1   -1    0    0    0  501 -0.00000000000E+00  0.00000000000E+00  0.15297657647E+04  0.15297657647E+04  0.00000000000E+00 0.  1.
          1   -1    0    0  501    0  0.00000000000E+00 -0.00000000000E+00 -0.37228417899E+03  0.37228417899E+03  0.00000000000E+00 0. -1.
         23    2    1    2    0    0  0.64354407389E+03  0.33087353152E+03  0.83710221856E+03  0.11106782183E+04  0.96123417475E+02 0.  0.
         13    1    3    3    0    0  0.49348466215E+03  0.20625062355E+03  0.60684533892E+03  0.80890524590E+03  0.00000000000E+00 0.  1.
        -13    1    3    3    0    0  0.15005941174E+03  0.12462290798E+03  0.23025687964E+03  0.30177297239E+03  0.00000000000E+00 0. -1.
         22    1    1    2    0    0 -0.64354407389E+03 -0.33087353152E+03  0.32037936718E+03  0.79137172543E+03  0.00000000000E+00 0. -1.
<mgrwt>
<rscale>  0 0.15093145E+04</rscale>
<asrwt>0</asrwt>
<pdfrwt beam="1">  1        1 0.57274490E-01 0.15093145E+04</pdfrwt>
<pdfrwt beam="2">  1       -1 0.23534858E+00 0.15093145E+04</pdfrwt>
<totfact> 0.55525466E+00</totfact>
</mgrwt>
</event>
<event>
 6    1  0.8968082E-007  0.2060779E+04  0.7818608E-02  0.8578720E-01
          2   -1    0    0  501    0  0.00000000000E+00  0.00000000000E+00  0.17049635874E+04  0.17049635874E+04  0.00000000000E+00 0. -1.
         -2   -1    0    0    0  501 -0.00000000000E+00 -0.00000000000E+00 -0.62271267075E+03  0.62271267075E+03  0.00000000000E+00 0.  1.
         23    2    1    2    0    0 -0.53462329424E+03  0.35504657941E+03 -0.36546628329E+03  0.74408375019E+03  0.90635990556E+02 0.  0.
         11    1    3    3    0    0 -0.24409774478E+03  0.14572251446E+03 -0.11285916565E+03  0.30586917383E+03  0.00000000000E+00 0. -1.
        -11    1    3    3    0    0 -0.29052554947E+03  0.20932406495E+03 -0.25260711764E+03  0.43821457637E+03  0.00000000000E+00 0.  1.
         22    1    1    2    0    0  0.53462329424E+03 -0.35504657941E+03  0.14477172000E+04  0.15835925080E+04  0.00000000000E+00 0. -1.
<mgrwt>
<rscale>  0 0.20607789E+04</rscale>
<asrwt>0</asrwt>
<pdfrwt beam="1">  1        2 0.26230209E+00 0.20607789E+04</pdfrwt>
<pdfrwt beam="2">  1       -2 0.95801950E-01 0.20607789E+04</pdfrwt>
<totfact> 0.82329352E+00</totfact>
</mgrwt>
</event>
<event>
 6    1  0.8968082E-007  0.3583255E+04  0.7818608E-02  0.8094338E-01
         -1   -1    0    0    0  501 -0.00000000000E+00  0.00000000000E+00  0.15475763474E+04  0.15475763474E+04  0.00000000000E+00 0.  1.
          1   -1    0    0  501    0  0.00000000000E+00 -0.00000000000E+00 -0.20741652885E+04  0.20741652885E+04  0.00000000000E+00 0. -1.
         23    2    1    2    0    0  0.13203670107E+04  0.11053720576E+04  0.23196954275E+03  0.17400861409E+04  0.94199153753E+02 0.  0.
         11    1    3    3    0    0  0.59595349629E+03  0.48042170959E+03  0.58128462400E+02  0.76768776656E+03  0.00000000000E+00 0.  1.
        -11    1    3    3    0    0  0.72441351437E+03  0.62495034799E+03  0.17384108035E+03  0.97239837437E+03  0.00000000000E+00 0. -1.
         22    1    1    2    0    0 -0.13203670107E+04 -0.11053720576E+04 -0.75855848380E+03  0.18816554950E+04  0.00000000000E+00 0.  1.
<mgrwt>
<rscale>  0 0.35832550E+04</rscale>
<asrwt>0</asrwt>
<pdfrwt beam="1">  1        1 0.31910235E+00 0.35832550E+04</pdfrwt>
<pdfrwt beam="2">  1       -1 0.23808867E+00 0.35832550E+04</pdfrwt>
<totfact> 0.17943968E-01</totfact>
</mgrwt>
</event>
<event>
 6    1  0.8968082E-007  0.2945948E+04  0.7818608E-02  0.8259336E-01
          2   -1    0    0  501    0  0.00000000000E+00  0.00000000000E+00  0.19719946296E+04  0.19719946296E+04  0.00000000000E+00 0. -1.
         -2   -1    0    0    0  501 -0.00000000000E+00 -0.00000000000E+00 -0.11002321984E+04  0.11002321984E+04  0.00000000000E+00 0.  1.
         23    2    1    2    0    0 -0.39063985516E+03  0.13221045147E+04  0.97244988083E+03  0.16899468974E+04  0.98498229907E+02 0.  0.
         13    1    3    3    0    0 -0.34436169472E+02  0.22055090804E+03  0.13197991643E+03  0.25932074955E+03  0.00000000000E+00 0.  1.
        -13    1    3    3    0    0 -0.35620368569E+03  0.11015536066E+04  0.84046996439E+03  0.14306261479E+04  0.00000000000E+00 0. -1.
         22    1    1    2    0    0  0.39063985516E+03 -0.13221045147E+04 -0.10068744964E+03  0.13822799306E+04  0.00000000000E+00 0.  1.
<mgrwt>
<rscale>  0 0.29459477E+04</rscale>
<asrwt>0</asrwt>
<pdfrwt beam="1">  1        2 0.30338379E+00 0.29459477E+04</pdfrwt>
<pdfrwt beam="2">  1       -2 0.16926649E+00 0.29459477E+04</pdfrwt>
<totfact> 0.12845929E+00</totfact>
</mgrwt>
</event>
<event>
 6    1  0.1570844E-006  0.4732959E+04  0.7818608E-02  0.7871075E-01
         -2   -1    0    0    0  501 -0.00000000000E+00  0.00000000000E+00  0.15841642183E+04  0.15841642183E+04  0.00000000000E+00 0.  1.
          2   -1    0    0  501    0  0.00000000000E+00 -0.00000000000E+00 -0.35351294340E+04  0.35351294340E+04  0.00000000000E+00 0. -1.
         23    2    1    2    0    0 -0.16628574105E+04  0.12863497190E+04 -0.21489293018E+04  0.30076639152E+04  0.91404131567E+02 0.  0.
         13    1    3    3    0    0 -0.11642638194E+04  0.87283028119E+03 -0.14349413305E+04  0.20436241247E+04  0.00000000000E+00 0. -1.
        -13    1    3    3    0    0 -0.49859359117E+03  0.41351943781E+03 -0.71398797128E+03  0.96403979053E+03  0.00000000000E+00 0.  1.
         22    1    1    2    0    0  0.16628574105E+04 -0.12863497190E+04  0.19796408606E+03  0.21116297371E+04  0.00000000000E+00 0.  1.
<mgrwt>
<rscale>  0 0.47329591E+04</rscale>
<asrwt>0</asrwt>
<pdfrwt beam="1">  1        2 0.54386605E+00 0.47329591E+04</pdfrwt>
<pdfrwt beam="2">  1       -2 0.24371758E+00 0.47329591E+04</pdfrwt>
<totfact> 0.40038083E-02</totfact>
</mgrwt>
</event>
<event>
 6    1  0.8968082E-007  0.1100212E+04  0.7818608E-02  0.9204985E-01
          2   -1    0    0  501    0  0.00000000000E+00  0.00000000000E+00  0.26743120983E+04  0.26743120983E+04  0.00000000000E+00 0. -1.
         -2   -1    0    0    0  501 -0.00000000000E+00 -0.00000000000E+00 -0.11315676342E+03  0.11315676342E+03  0.00000000000E+00 0.  1.
         23    2    1    2    0    0 -0.39015056204E+03 -0.10603840056E+03  0.22200089180E+04  0.22584674617E+04  0.93670039312E+02 0.  0.
         11    1    3    3    0    0 -0.24205669407E+03 -0.24857126600E+02  0.14365572739E+04  0.14570196022E+04  0.00000000000E+00 0. -1.
        -11    1    3    3    0    0 -0.14809386798E+03 -0.81181273964E+02  0.78345164404E+03  0.80144785952E+03  0.00000000000E+00 0.  1.
         22    1    1    2    0    0  0.39015056204E+03  0.10603840056E+03  0.34114641696E+03  0.52900140006E+03  0.00000000000E+00 0.  1.
<mgrwt>
<rscale>  0 0.11002118E+04</rscale>
<asrwt>0</asrwt>
<pdfrwt beam="1">  1        2 0.41143258E+00 0.11002118E+04</pdfrwt>
<pdfrwt beam="2">  1       -2 0.17408735E-01 0.11002118E+04</pdfrwt>
<totfact> 0.75229481E+01</totfact>
</mgrwt>
</event>
<event>
 6    1  0.8968082E-007  0.1020010E+04  0.7818608E-02  0.9286866E-01
         -2   -1    0    0    0  501 -0.00000000000E+00  0.00000000000E+00  0.17506646068E+03  0.17506646068E+03  0.00000000000E+00 0.  1.
          2   -1    0    0  501    0  0.00000000000E+00 -0.00000000000E+00 -0.14857509508E+04  0.14857509508E+04  0.00000000000E+00 0. -1.
         23    2    1    2    0    0  0.36266559555E+03 -0.24547579890E+03 -0.25631230640E+03  0.51911455879E+03  0.10954097267E+03 0.  0.
         13    1    3    3    0    0  0.46752510089E+02 -0.39152637521E+02  0.33622021148E+01  0.61073976680E+02  0.00000000000E+00 0. -1.
        -13    1    3    3    0    0  0.31591308546E+03 -0.20632316138E+03 -0.25967450851E+03  0.45804058211E+03  0.00000000000E+00 0.  1.
         22    1    1    2    0    0 -0.36266559555E+03  0.24547579890E+03 -0.10543721837E+04  0.11417028527E+04  0.00000000000E+00 0. -1.
<mgrwt>
<rscale>  0 0.10200101E+04</rscale>
<asrwt>0</asrwt>
<pdfrwt beam="1">  1        2 0.22857706E+00 0.10200101E+04</pdfrwt>
<pdfrwt beam="2">  1       -2 0.26933303E-01 0.10200101E+04</pdfrwt>
<totfact> 0.16134984E+02</totfact>
</mgrwt>
</event>
<event>
 6    1  0.8968082E-007  0.1871511E+04  0.7818608E-02  0.8669168E-01
         -1   -1    0    0    0  501 -0.00000000000E+00  0.00000000000E+00  0.42743024501E+03  0.42743024501E+03  0.00000000000E+00 0.  1.
          1   -1    0    0  501    0  0.00000000000E+00 -0.00000000000E+00 -0.20486120352E+04  0.20486120352E+04  0.00000000000E+00 0. -1.
         23    2    1    2    0    0 -0.65023495842E+03 -0.66936662467E+03 -0.84415287294E+03  0.12616983760E+04  0.91823416380E+02 0.  0.
         11    1    3    3    0    0 -0.35995473118E+03 -0.39889788625E+03 -0.54007752137E+03  0.76182062274E+03  0.00000000000E+00 0. -1.
        -11    1    3    3    0    0 -0.29028022725E+03 -0.27046873842E+03 -0.30407535158E+03  0.49987775328E+03  0.00000000000E+00 0.  1.
         22    1    1    2    0    0  0.65023495842E+03  0.66936662467E+03 -0.77702891723E+03  0.12143439042E+04  0.00000000000E+00 0.  1.
<mgrwt>
<rscale>  0 0.18715114E+04</rscale>
<asrwt>0</asrwt>
<pdfrwt beam="1">  1        1 0.31517108E+00 0.18715114E+04</pdfrwt>
<pdfrwt beam="2">  1       -1 0.65758500E-01 0.18715114E+04</pdfrwt>
<totfact> 0.60722125E+00</totfact>
</mgrwt>
</event>
<event>
 6    1  0.1032127E-006  0.2712495E+04  0.7818608E-02  0.8330962E-01
         -4   -1    0    0    0  501 -0.00000000000E+00  0.00000000000E+00  0.13053881804E+04  0.13053881804E+04  0.00000000000E+00 0.  1.
          4   -1    0    0  501    0  0.00000000000E+00 -0.00000000000E+00 -0.14090884277E+04  0.14090884277E+04  0.00000000000E+00 0. -1.
         23    2    1    2    0    0  0.24987062199E+03 -0.42155981608E+03  0.12122479684E+04  0.13102445358E+04  0.83949987656E+02 0.  0.
         13    1    3    3    0    0  0.12025497716E+03 -0.27857862197E+03  0.70489747145E+03  0.76742931493E+03  0.00000000000E+00 0. -1.
        -13    1    3    3    0    0  0.12961564482E+03 -0.14298119411E+03  0.50735049699E+03  0.54281522091E+03  0.00000000000E+00 0.  1.
         22    1    1    2    0    0 -0.24987062199E+03  0.42155981608E+03 -0.13159482157E+04  0.14042320722E+04  0.00000000000E+00 0. -1.
<mgrwt>
<rscale>  0 0.27124951E+04</rscale>
<asrwt>0</asrwt>
<pdfrwt beam="1">  1        4 0.21678284E+00 0.27124951E+04</pdfrwt>
<pdfrwt beam="2">  1       -4 0.20082895E+00 0.27124951E+04</pdfrwt>
<totfact> 0.23187468E-02</totfact>
</mgrwt>
</event>
<event>
 6    1  0.8968082E-007  0.6775192E+03  0.7818608E-02  0.9756469E-01
         -2   -1    0    0    0  501 -0.00000000000E+00  0.00000000000E+00  0.21767516717E+03  0.21767516717E+03  0.00000000000E+00 0.  1.
          2   -1    0    0  501    0  0.00000000000E+00 -0.00000000000E+00 -0.52719863951E+03  0.52719863951E+03  0.00000000000E+00 0. -1.
         23    2    1    2    0    0 -0.28192995066E+03 -0.14138289340E+00 -0.35144655100E+03  0.45984387563E+03  0.91963007120E+02 0.  0.
         11    1    3    3    0    0 -0.67366214047E+02 -0.21442807525E+02 -0.14505727409E+03  0.16136794463E+03  0.00000000000E+00 0.  1.
        -11    1    3    3    0    0 -0.21456373662E+03  0.21301424631E+02 -0.20638927691E+03  0.29847593100E+03  0.00000000000E+00 0. -1.
         22    1    1    2    0    0  0.28192995066E+03  0.14138289340E+00  0.41923078664E+02  0.28502993105E+03  0.00000000000E+00 0.  1.
<mgrwt>
<rscale>  0 0.67751916E+03</rscale>
<asrwt>0</asrwt>
<pdfrwt beam="1">  1        2 0.81107482E-01 0.67751916E+03</pdfrwt>
<pdfrwt beam="2">  1       -2 0.33488487E-01 0.67751916E+03</pdfrwt>
<totfact> 0.48566608E+02</totfact>
</mgrwt>
</event>
<event>
 6    1  0.8968082E-007  0.1649836E+04  0.7818608E-02  0.8790503E-01
          1   -1    0    0  501    0  0.00000000000E+00  0.00000000000E+00  0.19946603893E+04  0.19946603893E+04  0.00000000000E+00 0. -1.
         -1   -1    0    0    0  501 -0.00000000000E+00 -0.00000000000E+00 -0.34115571876E+03  0.34115571876E+03  0.00000000000E+00 0.  1.
         23    2    1    2    0    0  0.30731552053E+03  0.17421207497E+03  0.18807442526E+04  0.19157797955E+04  0.90667552339E+02 0.  0.
         13    1    3    3    0    0  0.17711397478E+03  0.14105087900E+03  0.13109578114E+04  0.13303665261E+04  0.00000000000E+00 0.  1.
        -13    1    3    3    0    0  0.13020154576E+03  0.33161195971E+02  0.56978644119E+03  0.58541326941E+03  0.00000000000E+00 0. -1.
         22    1    1    2    0    0 -0.30731552053E+03 -0.17421207497E+03 -0.22723958203E+03  0.42003631256E+03  0.00000000000E+00 0.  1.
<mgrwt>
<rscale>  0 0.16498361E+04</rscale>
<asrwt>0</asrwt>
<pdfrwt beam="1">  1        1 0.30687082E+00 0.16498361E+04</pdfrwt>
<pdfrwt beam="2">  1       -1 0.52485496E-01 0.16498361E+04</pdfrwt>
<totfact> 0.10506546E+01</totfact>
</mgrwt>
</event>
<event>
 6    1  0.8968082E-007  0.2949246E+04  0.7818608E-02  0.8258374E-01
          2   -1    0    0  501    0  0.00000000000E+00  0.00000000000E+00  0.95009378993E+03  0.95009378993E+03  0.00000000000E+00 0. -1.
         -2   -1    0    0    0  501 -0.00000000000E+00 -0.00000000000E+00 -0.22887350300E+04  0.22887350300E+04  0.00000000000E+00 0.  1.
         23    2    1    2    0    0 -0.19037479562E+03  0.12535147015E+04 -0.14938029913E+04  0.19614812405E+04  0.91758434967E+02 0.  0.
         13    1    3    3    0    0 -0.12078505484E+03  0.88086379734E+03 -0.11075908206E+04  0.14203054196E+04  0.00000000000E+00 0.  1.
        -13    1    3    3    0    0 -0.69589740780E+02  0.37265090414E+03 -0.38621217065E+03  0.54117582091E+03  0.00000000000E+00 0. -1.
         22    1    1    2    0    0  0.19037479562E+03 -0.12535147015E+04  0.15516175123E+03  0.12773475794E+04  0.00000000000E+00 0. -1.
<mgrwt>
<rscale>  0 0.29492460E+04</rscale>
<asrwt>0</asrwt>
<pdfrwt beam="1">  1        2 0.14616828E+00 0.29492460E+04</pdfrwt>
<pdfrwt beam="2">  1       -2 0.35211308E+00 0.29492460E+04</pdfrwt>
<totfact> 0.35198132E-01</totfact>
</mgrwt>
</event>
<event>
 6    1  0.8968082E-007  0.2310433E+04  0.7818608E-02  0.8473819E-01
         -1   -1    0    0    0  501 -0.00000000000E+00  0.00000000000E+00  0.18018272585E+04  0.18018272585E+04  0.00000000000E+00 0.  1.
          1   -1    0    0  501    0  0.00000000000E+00 -0.00000000000E+00 -0.74065082244E+03  0.74065082244E+03  0.00000000000E+00 0. -1.
         23    2    1    2    0    0 -0.64856329895E+03  0.23783504291E+03  0.15478669361E+04  0.16974529315E+04  0.90854513323E+02 0.  0.
         11    1    3    3    0    0 -0.88560568474E+02  0.14882658329E+02  0.14468292460E+03  0.17028686526E+03  0.00000000000E+00 0. -1.
        -11    1    3    3    0    0 -0.56000273048E+03  0.22295238458E+03  0.14031840115E+04  0.15271660663E+04  0.00000000000E+00 0.  1.
         22    1    1    2    0    0  0.64856329895E+03 -0.23783504291E+03 -0.48669050000E+03  0.84502514943E+03  0.00000000000E+00 0. -1.
<mgrwt>
<rscale>  0 0.23104327E+04</rscale>
<asrwt>0</asrwt>
<pdfrwt beam="1">  1        1 0.11394628E+00 0.23104327E+04</pdfrwt>
<pdfrwt beam="2">  1       -1 0.27720419E+00 0.23104327E+04</pdfrwt>
<totfact> 0.10466957E+00</totfact>
</mgrwt>
</event>
<event>
 6    1  0.8968082E-007  0.1703621E+04  0.7818608E-02  0.8759302E-01
         -3   -1    0    0    0  501 -0.00000000000E+00  0.00000000000E+00  0.15203490692E+04  0.15203490692E+04  0.00000000000E+00 0.  1.
          3   -1    0    0  501    0  0.00000000000E+00 -0.00000000000E+00 -0.47724662470E+03  0.47724662470E+03  0.00000000000E+00 0. -1.
         23    2    1    2    0    0 -0.50574950643E+03 -0.16809261696E+03 -0.25254765634E+03  0.59661501062E+03  0.90174614213E+02 0.  0.
         13    1    3    3    0    0 -0.95425321712E+02 -0.34218311482E+02 -0.89511891856E+02  0.13523780406E+03  0.00000000000E+00 0.  1.
        -13    1    3    3    0    0 -0.41032418472E+03 -0.13387430547E+03 -0.16303576448E+03  0.46137720656E+03  0.00000000000E+00 0. -1.
         22    1    1    2    0    0  0.50574950643E+03  0.16809261696E+03  0.12956501008E+04  0.14009806832E+04  0.00000000000E+00 0.  1.
<mgrwt>
<rscale>  0 0.17036214E+04</rscale>
<asrwt>0</asrwt>
<pdfrwt beam="1">  1        3 0.73422558E-01 0.17036214E+04</pdfrwt>
<pdfrwt beam="2">  1       -3 0.23389985E+00 0.17036214E+04</pdfrwt>
<totfact> 0.39810624E-01</totfact>
</mgrwt>
</event>
<event>
 6    1  0.8968082E-007  0.8362935E+03  0.7818608E-02  0.9508920E-01
         -2   -1    0    0    0  501 -0.00000000000E+00  0.00000000000E+00  0.14711802845E+03  0.14711802845E+03  0.00000000000E+00 0.  1.
          2   -1    0    0  501    0  0.00000000000E+00 -0.00000000000E+00 -0.11884792206E+04  0.11884792206E+04  0.00000000000E+00 0. -1.
         23    2    1    2    0    0 -0.24473026894E+03  0.28429903301E+03 -0.80367140383E+03  0.89150797855E+03  0.90442831476E+02 0.  0.
         13    1    3    3    0    0 -0.16107843935E+03  0.21397772176E+03 -0.47708325946E+03  0.54712079607E+03  0.00000000000E+00 0. -1.
        -13    1    3    3    0    0 -0.83651829588E+02  0.70321311249E+02 -0.32658814437E+03  0.34438718247E+03  0.00000000000E+00 0.  1.
         22    1    1    2    0    0  0.24473026894E+03 -0.28429903301E+03 -0.23768978833E+03  0.44408927051E+03  0.00000000000E+00 0.  1.
<mgrwt>
<rscale>  0 0.83629354E+03</rscale>
<asrwt>0</asrwt>
<pdfrwt beam="1">  1        2 0.18284296E+00 0.83629354E+03</pdfrwt>
<pdfrwt beam="2">  1       -2 0.22633543E-01 0.83629354E+03</pdfrwt>
<totfact> 0.33135507E+02</totfact>
</mgrwt>
</event>
<event>
 6    1  0.8968082E-007  0.1378242E+04  0.7818608E-02  0.8969720E-01
         -2   -1    0    0    0  501 -0.00000000000E+00  0.00000000000E+00  0.37950989899E+03  0.37950989899E+03  0.00000000000E+00 0.  1.
          2   -1    0    0  501    0  0.00000000000E+00 -0.00000000000E+00 -0.12513187336E+04  0.12513187336E+04  0.00000000000E+00 0. -1.
         23    2    1    2    0    0 -0.22023895047E+03  0.14212217121E+03  0.31253773478E+03  0.41782380849E+03  0.90515150250E+02 0.  0.
         11    1    3    3    0    0 -0.78424540784E+02  0.94001131005E+01  0.59788975118E+02  0.99063072177E+02  0.00000000000E+00 0. -1.
        -11    1    3    3    0    0 -0.14181440969E+03  0.13272205811E+03  0.25274875966E+03  0.31876073631E+03  0.00000000000E+00 0.  1.
         22    1    1    2    0    0  0.22023895047E+03 -0.14212217121E+03 -0.11843465694E+04  0.12130048241E+04  0.00000000000E+00 0. -1.
<mgrwt>
<rscale>  0 0.13782421E+04</rscale>
<asrwt>0</asrwt>
<pdfrwt beam="1">  1        2 0.19251057E+00 0.13782421E+04</pdfrwt>
<pdfrwt beam="2">  1       -2 0.58386138E-01 0.13782421E+04</pdfrwt>
<totfact> 0.47215188E+01</totfact>
</mgrwt>
</event>
<event>
 6    1  0.8968082E-007  0.3788593E+04  0.7818608E-02  0.8048607E-01
         -2   -1    0    0    0  501 -0.00000000000E+00  0.00000000000E+00  0.84790594428E+03  0.84790594428E+03  0.00000000000E+00 0.  1.
          2   -1    0    0  501    0  0.00000000000E+00 -0.00000000000E+00 -0.42320252116E+04  0.42320252116E+04  0.00000000000E+00 0. -1.
         23    2    1    2    0    0  0.33648887118E+03 -0.18611429279E+04 -0.18056473755E+04  0.26164678880E+04  0.92000032827E+02 0.  0.
         13    1    3    3    0    0  0.31175379038E+03 -0.15283407250E+04 -0.14919633692E+04  0.21584648463E+04  0.00000000000E+00 0.  1.
        -13    1    3    3    0    0  0.24735080804E+02 -0.33280220296E+03 -0.31368400621E+03  0.45800304177E+03  0.00000000000E+00 0. -1.
         22    1    1    2    0    0 -0.33648887118E+03  0.18611429279E+04 -0.15784718919E+04  0.24634632679E+04  0.00000000000E+00 0. -1.
<mgrwt>
<rscale>  0 0.37885931E+04</rscale>
<asrwt>0</asrwt>
<pdfrwt beam="1">  1        2 0.65108080E+00 0.37885931E+04</pdfrwt>
<pdfrwt beam="2">  1       -2 0.13044707E+00 0.37885931E+04</pdfrwt>
<totfact> 0.74996689E-02</totfact>
</mgrwt>
</event>
<event>
 6    1  0.1151327E-006  0.3255253E+04  0.7818608E-02  0.8174375E-01
         -1   -1    0    0    0  501 -0.00000000000E+00  0.00000000000E+00  0.17149495533E+04  0.17149495533E+04  0.00000000000E+00 0.  1.
          1   -1    0    0  501    0  0.00000000000E+00 -0.00000000000E+00 -0.15447498693E+04  0.15447498693E+04  0.00000000000E+00 0. -1.
         23    2    1    2    0    0  0.13199708790E+04  0.90880357214E+03 -0.19291237991E+03  0.16165021049E+04  0.87274364784E+02 0.  0.
         11    1    3    3    0    0  0.63196244623E+03  0.47606016953E+03 -0.67282249623E+02  0.79406342289E+03  0.00000000000E+00 0. -1.
        -11    1    3    3    0    0  0.68800843274E+03  0.43274340261E+03 -0.12563013029E+03  0.82243868201E+03  0.00000000000E+00 0.  1.
         22    1    1    2    0    0 -0.13199708790E+04 -0.90880357214E+03  0.36311206385E+03  0.16431973177E+04  0.00000000000E+00 0. -1.
<mgrwt>
<rscale>  0 0.32552530E+04</rscale>
<asrwt>0</asrwt>
<pdfrwt beam="1">  1        1 0.23765382E+00 0.32552530E+04</pdfrwt>
<pdfrwt beam="2">  1       -1 0.26383839E+00 0.32552530E+04</pdfrwt>
<totfact> 0.28736495E-01</totfact>
</mgrwt>
</event>
<event>
 6    1  0.8968082E-007  0.2876076E+04  0.7818608E-02  0.8280031E-01
          2   -1    0    0  501    0  0.00000000000E+00  0.00000000000E+00  0.79517553081E+03  0.79517553081E+03  0.00000000000E+00 0. -1.
         -2   -1    0    0    0  501 -0.00000000000E+00 -0.00000000000E+00 -0.26006248833E+04  0.26006248833E+04  0.00000000000E+00 0.  1.
         23    2    1    2    0    0 -0.20881105223E+03 -0.14083181405E+04 -0.11263217009E+04  0.18184049635E+04  0.10504283394E+03 0.  0.
         11    1    3    3    0    0 -0.13061223616E+03 -0.11106169533E+04 -0.84809195537E+03  0.14034919088E+04  0.00000000000E+00 0. -1.
        -11    1    3    3    0    0 -0.78198816063E+02 -0.29770118718E+03 -0.27822974550E+03  0.41491305471E+03  0.00000000000E+00 0.  1.
         22    1    1    2    0    0  0.20881105223E+03  0.14083181405E+04 -0.67912765156E+03  0.15773954506E+04  0.00000000000E+00 0. -1.
<mgrwt>
<rscale>  0 0.28760760E+04</rscale>
<asrwt>0</asrwt>
<pdfrwt beam="1">  1        2 0.12233469E+00 0.28760760E+04</pdfrwt>
<pdfrwt beam="2">  1       -2 0.40009614E+00 0.28760760E+04</pdfrwt>
<totfact> 0.22243735E-01</totfact>
</mgrwt>
</event>
<event>
 6    1  0.8968082E-007  0.6469299E+03  0.7818608E-02  0.9812557E-01
          1   -1    0    0  501    0  0.00000000000E+00  0.00000000000E+00  0.78911493394E+03  0.78911493394E+03  0.00000000000E+00 0. -1.
         -1   -1    0    0    0  501 -0.00000000000E+00 -0.00000000000E+00 -0.13259105222E+03  0.13259105222E+03  0.00000000000E+00 0.  1.
         23    2    1    2    0    0 -0.71280567521E+02  0.34849625558E+01  0.77491833458E+03  0.78346593864E+03  0.90704947384E+02 0.  0.
         13    1    3    3    0    0 -0.84710638190E+02  0.15620901810E+02  0.72958510145E+03  0.73465251994E+03  0.00000000000E+00 0.  1.
        -13    1    3    3    0    0  0.13430070669E+02 -0.12135939254E+02  0.45333233127E+02  0.48813418703E+02  0.00000000000E+00 0. -1.
         22    1    1    2    0    0  0.71280567521E+02 -0.34849625558E+01 -0.11839445286E+03  0.13824004752E+03  0.00000000000E+00 0.  1.
<mgrwt>
<rscale>  0 0.64692992E+03</rscale>
<asrwt>0</asrwt>
<pdfrwt beam="1">  1        1 0.12140229E+00 0.64692992E+03</pdfrwt>
<pdfrwt beam="2">  1       -1 0.20398624E-01 0.64692992E+03</pdfrwt>
<totfact> 0.45219820E+02</totfact>
</mgrwt>
</event>
<event>
 6    1  0.8968082E-007  0.3618076E+04  0.7818608E-02  0.8086364E-01
         -2   -1    0    0    0  501 -0.00000000000E+00  0.00000000000E+00  0.13070612518E+04  0.13070612518E+04  0.00000000000E+00 0.  1.
          2   -1    0    0  501    0  0.00000000000E+00 -0.00000000000E+00 -0.25037988598E+04  0.25037988598E+04  0.00000000000E+00 0. -1.
         23    2    1    2    0    0 -0.40432332724E+03  0.38599436029E+03 -0.24096474305E+04  0.24753380277E+04  0.91807476705E+02 0.  0.
         13    1    3    3    0    0 -0.16999780172E+03  0.12362838180E+03 -0.75523847866E+03  0.78394412366E+03  0.00000000000E+00 0. -1.
        -13    1    3    3    0    0 -0.23432552552E+03  0.26236597849E+03 -0.16544089519E+04  0.16913939040E+04  0.00000000000E+00 0.  1.
         22    1    1    2    0    0  0.40432332724E+03 -0.38599436029E+03  0.12129098225E+04  0.13355220839E+04  0.00000000000E+00 0.  1.
<mgrwt>
<rscale>  0 0.36180760E+04</rscale>
<asrwt>0</asrwt>
<pdfrwt beam="1">  1        2 0.38519983E+00 0.36180760E+04</pdfrwt>
<pdfrwt beam="2">  1       -2 0.20108635E+00 0.36180760E+04</pdfrwt>
<totfact> 0.36874886E-01</totfact>
</mgrwt>
</event>
<event>
 6    1  0.8968082E-007  0.2008824E+04  0.7818608E-02  0.8602506E-01
          1   -1    0    0  501    0  0.00000000000E+00  0.00000000000E+00  0.58048337325E+03  0.58048337325E+03  0.00000000000E+00 0. -1.
         -1   -1    0    0    0  501 -0.00000000000E+00 -0.00000000000E+00 -0.17379366284E+04  0.17379366284E+04  0.00000000000E+00 0.  1.
         23    2    1    2    0    0  0.68590620451E+03  0.72922102485E+03 -0.63680318869E+03  0.11900108931E+04  0.91525953724E+02 0.  0.
         11    1    3    3    0    0  0.34024683207E+03  0.38402787943E+03 -0.27510621409E+03  0.58217587372E+03  0.00000000000E+00 0. -1.
        -11    1    3    3    0    0  0.34565937244E+03  0.34519314543E+03 -0.36169697460E+03  0.60783501943E+03  0.00000000000E+00 0.  1.
         22    1    1    2    0    0 -0.68590620451E+03 -0.72922102485E+03 -0.52065006649E+03  0.11284091085E+04  0.00000000000E+00 0. -1.
<mgrwt>
<rscale>  0 0.20088239E+04</rscale>
<asrwt>0</asrwt>
<pdfrwt beam="1">  1        1 0.89305136E-01 0.20088239E+04</pdfrwt>
<pdfrwt beam="2">  1       -1 0.26737486E+00 0.20088239E+04</pdfrwt>
<totfact> 0.17895361E+00</totfact>
</mgrwt>
</event>
<event>
 6    1  0.8968082E-007  0.2490532E+04  0.7818608E-02  0.8406366E-01
         -2   -1    0    0    0  501 -0.00000000000E+00  0.00000000000E+00  0.40392630006E+03  0.40392630006E+03  0.00000000000E+00 0.  1.
          2   -1    0    0  501    0  0.00000000000E+00 -0.00000000000E+00 -0.38390356419E+04  0.38390356419E+04  0.00000000000E+00 0. -1.
         23    2    1    2    0    0 -0.63634474866E+03  0.62065976988E+03 -0.32012316864E+04  0.33238036603E+04  0.98149237761E+02 0.  0.
         11    1    3    3    0    0 -0.23714378976E+03  0.17007817580E+03 -0.10976736831E+04  0.11358042426E+04  0.00000000000E+00 0.  1.
        -11    1    3    3    0    0 -0.39920095890E+03  0.45058159409E+03 -0.21035580034E+04  0.21879994177E+04  0.00000000000E+00 0. -1.
         22    1    1    2    0    0  0.63634474866E+03 -0.62065976988E+03 -0.23387765543E+03  0.91915828170E+03  0.00000000000E+00 0.  1.
<mgrwt>
<rscale>  0 0.24905320E+04</rscale>
<asrwt>0</asrwt>
<pdfrwt beam="1">  1        2 0.59062087E+00 0.24905320E+04</pdfrwt>
<pdfrwt beam="2">  1       -2 0.62142507E-01 0.24905320E+04</pdfrwt>
<totfact> 0.98640401E-01</totfact>
</mgrwt>
</event>
<event>
 6    1  0.8968082E-007  0.6085517E+04  0.7818608E-02  0.7679888E-01
         -2   -1    0    0    0  501 -0.00000000000E+00  0.00000000000E+00  0.20119798526E+04  0.20119798526E+04  0.00000000000E+00 0.  1.
          2   -1    0    0  501    0  0.00000000000E+00 -0.00000000000E+00 -0.46016256613E+04  0.46016256613E+04  0.00000000000E+00 0. -1.
         23    2    1    2    0    0 -0.26175374754E+04 -0.92797479375E+03  0.54480803028E+02  0.27790201136E+04  0.85702865328E+02 0.  0.
         11    1    3    3    0    0 -0.17042262398E+04 -0.56436733502E+03  0.51659634048E+02  0.17959861589E+04  0.00000000000E+00 0. -1.
        -11    1    3    3    0    0 -0.91331123564E+03 -0.36360745874E+03  0.28211689800E+01  0.98303395475E+03  0.00000000000E+00 0.  1.
         22    1    1    2    0    0  0.26175374754E+04  0.92797479375E+03 -0.26441266118E+04  0.38345854003E+04  0.00000000000E+00 0.  1.
<mgrwt>
<rscale>  0 0.60855166E+04</rscale>
<asrwt>0</asrwt>
<pdfrwt beam="1">  1        2 0.70794240E+00 0.60855166E+04</pdfrwt>
<pdfrwt beam="2">  1       -2 0.30953537E+00 0.60855166E+04</pdfrwt>
<totfact> 0.17836769E-03</totfact>
</mgrwt>
</event>
<event>
 6    1  0.8968082E-007  0.3943318E+04  0.7818608E-02  0.8016080E-01
         -2   -1    0    0    0  501 -0.00000000000E+00  0.00000000000E+00  0.23530390904E+04  0.23530390904E+04  0.00000000000E+00 0.  1.
          2   -1    0    0  501    0  0.00000000000E+00 -0.00000000000E+00 -0.16520931967E+04  0.16520931967E+04  0.00000000000E+00 0. -1.
         23    2    1    2    0    0 -0.52671151873E+03  0.74131595701E+01 -0.15779974929E+04  0.16661019457E+04  0.91321558662E+02 0.  0.
         13    1    3    3    0    0 -0.18333652277E+03  0.94408469952E+00 -0.69186545154E+03  0.71574504882E+03  0.00000000000E+00 0. -1.
        -13    1    3    3    0    0 -0.34337499596E+03  0.64690748706E+01 -0.88613204132E+03  0.95035689687E+03  0.00000000000E+00 0.  1.
         22    1    1    2    0    0  0.52671151873E+03 -0.74131595701E+01  0.22789433866E+04  0.23390303414E+04  0.00000000000E+00 0.  1.
<mgrwt>
<rscale>  0 0.39433183E+04</rscale>
<asrwt>0</asrwt>
<pdfrwt beam="1">  1        2 0.25416818E+00 0.39433183E+04</pdfrwt>
<pdfrwt beam="2">  1       -2 0.36200601E+00 0.39433183E+04</pdfrwt>
<totfact> 0.10788234E-01</totfact>
</mgrwt>
</event>
<event>
 6    1  0.8968082E-007  0.2521800E+03  0.7818608E-02  0.1111935E+00
         -2   -1    0    0    0  501 -0.00000000000E+00  0.00000000000E+00  0.18561746852E+03  0.18561746852E+03  0.00000000000E+00 0.  1.
          2   -1    0    0  501    0  0.00000000000E+00 -0.00000000000E+00 -0.85652947005E+02  0.85652947005E+02  0.00000000000E+00 0. -1.
         23    2    1    2    0    0  0.73945172481E+02 -0.80209479768E+02  0.70993928811E+02  0.15839550946E+03  0.90263781831E+02 0.  0.
         13    1    3    3    0    0  0.22663127140E+02 -0.27780175803E+02  0.76871493222E+02  0.84820881684E+02  0.00000000000E+00 0.  1.
        -13    1    3    3    0    0  0.51282045341E+02 -0.52429303965E+02 -0.58775644119E+01  0.73574627773E+02  0.00000000000E+00 0. -1.
         22    1    1    2    0    0 -0.73945172481E+02  0.80209479768E+02  0.28970592704E+02  0.11287490607E+03  0.00000000000E+00 0. -1.
<mgrwt>
<rscale>  0 0.25217996E+03</rscale>
<asrwt>0</asrwt>
<pdfrwt beam="1">  1        2 0.13177376E-01 0.25217996E+03</pdfrwt>
<pdfrwt beam="2">  1       -2 0.28556534E-01 0.25217996E+03</pdfrwt>
<totfact> 0.50419642E+03</totfact>
</mgrwt>
</event>
<event>
 6    1  0.8968082E-007  0.9725836E+03  0.7818608E-02  0.9339136E-01
         -2   -1    0    0    0  501 -0.00000000000E+00  0.00000000000E+00  0.23365958821E+03  0.23365958821E+03  0.00000000000E+00 0.  1.
          2   -1    0    0  501    0  0.00000000000E+00 -0.00000000000E+00 -0.10120693433E+04  0.10120693433E+04  0.00000000000E+00 0. -1.
         23    2    1    2    0    0  0.12684022035E+03 -0.29167252221E+03  0.71526611508E+02  0.33823065109E+03  0.90125553930E+02 0.  0.
         11    1    3    3    0    0  0.55168447191E+02 -0.11540895757E+03 -0.15765558797E+02  0.12888497933E+03  0.00000000000E+00 0. -1.
        -11    1    3    3    0    0  0.71671773161E+02 -0.17626356464E+03  0.87292170305E+02  0.20934567176E+03  0.00000000000E+00 0.  1.
         22    1    1    2    0    0 -0.12684022035E+03  0.29167252221E+03 -0.84993636660E+03  0.90749828043E+03  0.00000000000E+00 0. -1.
<mgrwt>
<rscale>  0 0.97258358E+03</rscale>
<asrwt>0</asrwt>
<pdfrwt beam="1">  1        2 0.15570297E+00 0.97258358E+03</pdfrwt>
<pdfrwt beam="2">  1       -2 0.35947630E-01 0.97258358E+03</pdfrwt>
<totfact> 0.17980643E+02</totfact>
</mgrwt>
</event>
<event>
 6    1  0.8968082E-007  0.2127708E+04  0.7818608E-02  0.8549135E-01
          2   -1    0    0  501    0  0.00000000000E+00  0.00000000000E+00  0.17464122405E+04  0.17464122405E+04  0.00000000000E+00 0. -1.
         -2   -1    0    0    0  501 -0.00000000000E+00 -0.00000000000E+00 -0.64806329927E+03  0.64806329927E+03  0.00000000000E+00 0.  1.
         23    2    1    2    0    0 -0.63490821951E+03  0.55825240704E+02 -0.40532264814E+03  0.76130281363E+03  0.95239803883E+02 0.  0.
         13    1    3    3    0    0 -0.44627769782E+03  0.93637854846E+01 -0.31941542987E+03  0.54888767602E+03  0.00000000000E+00 0. -1.
        -13    1    3    3    0    0 -0.18863052169E+03  0.46461455219E+02 -0.85907218276E+02  0.21241513761E+03  0.00000000000E+00 0.  1.
         22    1    1    2    0    0  0.63490821951E+03 -0.55825240704E+02  0.15036715893E+04  0.16331727261E+04  0.00000000000E+00 0. -1.
<mgrwt>
<rscale>  0 0.21277083E+04</rscale>
<asrwt>0</asrwt>
<pdfrwt beam="1">  1        2 0.26867881E+00 0.21277083E+04</pdfrwt>
<pdfrwt beam="2">  1       -2 0.99702046E-01 0.21277083E+04</pdfrwt>
<totfact> 0.70684131E+00</totfact>
</mgrwt>
</event>
<event>
 6    1  0.8968082E-007  0.5209137E+04  0.7818608E-02  0.7797031E-01
          1   -1    0    0  501    0  0.00000000000E+00  0.00000000000E+00  0.24636051814E+04  0.24636051814E+04  0.00000000000E+00 0. -1.
         -1   -1    0    0    0  501 -0.00000000000E+00 -0.00000000000E+00 -0.27535975220E+04  0.27535975220E+04  0.00000000000E+00 0.  1.
         23    2    1    2    0    0  0.12854647114E+04 -0.16162383933E+04  0.14432735282E+04  0.25211209834E+04  0.91468395725E+02 0.  0.
         11    1    3    3    0    0  0.22630829761E+03 -0.31945543237E+03  0.30884449123E+03  0.49865031696E+03  0.00000000000E+00 0. -1.
        -11    1    3    3    0    0  0.10591564138E+04 -0.12967829610E+04  0.11344290370E+04  0.20224706665E+04  0.00000000000E+00 0.  1.
         22    1    1    2    0    0 -0.12854647114E+04  0.16162383933E+04 -0.17332658689E+04  0.26960817200E+04  0.00000000000E+00 0.  1.
<mgrwt>
<rscale>  0 0.52091370E+04</rscale>
<asrwt>0</asrwt>
<pdfrwt beam="1">  1        1 0.37901618E+00 0.52091370E+04</pdfrwt>
<pdfrwt beam="2">  1       -1 0.42363039E+00 0.52091370E+04</pdfrwt>
<totfact> 0.50251342E-03</totfact>
</mgrwt>
</event>
<event>
 6    1  0.8968082E-007  0.1657428E+04  0.7818608E-02  0.8786024E-01
          2   -1    0    0  501    0  0.00000000000E+00  0.00000000000E+00  0.13942666989E+04  0.13942666989E+04  0.00000000000E+00 0. -1.
         -2   -1    0    0    0  501 -0.00000000000E+00 -0.00000000000E+00 -0.49256486705E+03  0.49256486705E+03  0.00000000000E+00 0.  1.
         23    2    1    2    0    0  0.44495313501E+03  0.56406457927E+03 -0.12082947343E+02  0.72443973675E+03  0.92275633939E+02 0.  0.
         11    1    3    3    0    0  0.22670179075E+03  0.32890602908E+03 -0.44676748049E+02  0.40195632811E+03  0.00000000000E+00 0. -1.
        -11    1    3    3    0    0  0.21825134426E+03  0.23515855019E+03  0.32593800706E+02  0.32248340863E+03  0.00000000000E+00 0.  1.
         22    1    1    2    0    0 -0.44495313501E+03 -0.56406457927E+03  0.91378477920E+03  0.11623918292E+04  0.00000000000E+00 0. -1.
<mgrwt>
<rscale>  0 0.16574279E+04</rscale>
<asrwt>0</asrwt>
<pdfrwt beam="1">  1        2 0.21450257E+00 0.16574279E+04</pdfrwt>
<pdfrwt beam="2">  1       -2 0.75779211E-01 0.16574279E+04</pdfrwt>
<totfact> 0.21723383E+01</totfact>
</mgrwt>
</event>
<event>
 6    1  0.8968082E-007  0.1940081E+04  0.7818608E-02  0.8635159E-01
          2   -1    0    0  501    0  0.00000000000E+00  0.00000000000E+00  0.32327207781E+03  0.32327207781E+03  0.00000000000E+00 0. -1.
         -2   -1    0    0    0  501 -0.00000000000E+00 -0.00000000000E+00 -0.29107934583E+04  0.29107934583E+04  0.00000000000E+00 0.  1.
         23    2    1    2    0    0  0.78366702534E+03 -0.50316383828E+03 -0.17359818938E+04  0.19721513741E+04  0.91869756673E+02 0.  0.
         13    1    3    3    0    0  0.23901250821E+03 -0.10456647576E+03 -0.48468467211E+03  0.55043651615E+03  0.00000000000E+00 0. -1.
        -13    1    3    3    0    0  0.54465451713E+03 -0.39859736252E+03 -0.12512972217E+04  0.14217148580E+04  0.00000000000E+00 0.  1.
         22    1    1    2    0    0 -0.78366702534E+03  0.50316383828E+03 -0.85153948669E+03  0.12619141620E+04  0.00000000000E+00 0. -1.
<mgrwt>
<rscale>  0 0.19400807E+04</rscale>
<asrwt>0</asrwt>
<pdfrwt beam="1">  1        2 0.49734167E-01 0.19400807E+04</pdfrwt>
<pdfrwt beam="2">  1       -2 0.44781437E+00 0.19400807E+04</pdfrwt>
<totfact> 0.33909978E-01</totfact>
</mgrwt>
</event>
<event>
 6    1  0.8968082E-007  0.3796311E+04  0.7818608E-02  0.8046947E-01
          2   -1    0    0  501    0  0.00000000000E+00  0.00000000000E+00  0.21466530306E+04  0.21466530306E+04  0.00000000000E+00 0. -1.
         -2   -1    0    0    0  501 -0.00000000000E+00 -0.00000000000E+00 -0.16784244550E+04  0.16784244550E+04  0.00000000000E+00 0.  1.
         23    2    1    2    0    0  0.21553559617E+03 -0.14359188901E+04  0.14643650052E+04  0.20642235910E+04  0.91299031509E+02 0.  0.
         11    1    3    3    0    0  0.14342574653E+03 -0.74414426227E+03  0.81047495630E+03  0.11095905924E+04  0.00000000000E+00 0.  1.
        -11    1    3    3    0    0  0.72109849640E+02 -0.69177462781E+03  0.65389004885E+03  0.95463299864E+03  0.00000000000E+00 0. -1.
         22    1    1    2    0    0 -0.21553559617E+03  0.14359188901E+04 -0.99613642954E+03  0.17608538947E+04  0.00000000000E+00 0.  1.
<mgrwt>
<rscale>  0 0.37963113E+04</rscale>
<asrwt>0</asrwt>
<pdfrwt beam="1">  1        2 0.33025431E+00 0.37963113E+04</pdfrwt>
<pdfrwt beam="2">  1       -2 0.25821915E+00 0.37963113E+04</pdfrwt>
<totfact> 0.25390151E-01</totfact>
</mgrwt>
</event>
<event>
 6    1  0.8968082E-007  0.1885025E+04  0.7818608E-02  0.8662346E-01
         -1   -1    0    0    0  501 -0.00000000000E+00  0.00000000000E+00  0.15645037984E+04  0.15645037984E+04  0.00000000000E+00 0.  1.
          1   -1    0    0  501    0  0.00000000000E+00 -0.00000000000E+00 -0.56780296824E+03  0.56780296824E+03  0.00000000000E+00 0. -1.
         23    2    1    2    0    0 -0.19849923793E+03 -0.91701945756E+03  0.42838463134E+03  0.10353519203E+04  0.90075376988E+02 0.  0.
         13    1    3    3    0    0 -0.40133460662E+02 -0.39342169092E+03  0.17291425382E+03  0.43161401822E+03  0.00000000000E+00 0.  1.
        -13    1    3    3    0    0 -0.15836577727E+03 -0.52359776664E+03  0.25547037752E+03  0.60373790210E+03  0.00000000000E+00 0. -1.
         22    1    1    2    0    0  0.19849923793E+03  0.91701945756E+03  0.56831619880E+03  0.10969548463E+04  0.00000000000E+00 0. -1.
<mgrwt>
<rscale>  0 0.18850251E+04</rscale>
<asrwt>0</asrwt>
<pdfrwt beam="1">  1        1 0.87354304E-01 0.18850251E+04</pdfrwt>
<pdfrwt beam="2">  1       -1 0.24069289E+00 0.18850251E+04</pdfrwt>
<totfact> 0.27863196E+00</totfact>
</mgrwt>
</event>
<event>
 6    1  0.8968082E-007  0.1533944E+04  0.7818608E-02  0.8862189E-01
          1   -1    0    0  501    0  0.00000000000E+00  0.00000000000E+00  0.99669513831E+03  0.99669513831E+03  0.00000000000E+00 0. -1.
         -1   -1    0    0    0  501 -0.00000000000E+00 -0.00000000000E+00 -0.59019673400E+03  0.59019673400E+03  0.00000000000E+00 0.  1.
         23    2    1    2    0    0  0.42784051861E+03  0.26752413704E+03  0.79758056499E+03  0.94848610037E+03  0.94204308190E+02 0.  0.
         13    1    3    3    0    0  0.39044719801E+03  0.22405504185E+03  0.65472943207E+03  0.79455667226E+03  0.00000000000E+00 0.  1.
        -13    1    3    3    0    0  0.37393320598E+02  0.43469095182E+02  0.14285113291E+03  0.15392942810E+03  0.00000000000E+00 0. -1.
         22    1    1    2    0    0 -0.42784051861E+03 -0.26752413704E+03 -0.39108216068E+03  0.63840577195E+03  0.00000000000E+00 0.  1.
<mgrwt>
<rscale>  0 0.15339442E+04</rscale>
<asrwt>0</asrwt>
<pdfrwt beam="1">  1        1 0.15333771E+00 0.15339442E+04</pdfrwt>
<pdfrwt beam="2">  1       -1 0.90799498E-01 0.15339442E+04</pdfrwt>
<totfact> 0.17398030E+01</totfact>
</mgrwt>
</event>
<event>
 6    1  0.8968082E-007  0.1045719E+04  0.7818608E-02  0.9259775E-01
          4   -1    0    0  501    0  0.00000000000E+00  0.00000000000E+00  0.68302755763E+03  0.68302755763E+03  0.00000000000E+00 0. -1.
         -4   -1    0    0    0  501 -0.00000000000E+00 -0.00000000000E+00 -0.40025073059E+03  0.40025073059E+03  0.00000000000E+00 0.  1.
         23    2    1    2    0    0 -0.26271316303E+03 -0.49526031530E+02 -0.31817151753E+03  0.42554738073E+03  0.91577425443E+02 0.  0.
         11    1    3    3    0    0 -0.16556836033E+03  0.32161059229E+01 -0.14503342906E+03  0.22013159888E+03  0.00000000000E+00 0. -1.
        -11    1    3    3    0    0 -0.97144802694E+02 -0.52742137453E+02 -0.17313808847E+03  0.20541578185E+03  0.00000000000E+00 0.  1.
         22    1    1    2    0    0  0.26271316303E+03  0.49526031530E+02  0.60094834457E+03  0.65773090749E+03  0.00000000000E+00 0. -1.
<mgrwt>
<rscale>  0 0.10457194E+04</rscale>
<asrwt>0</asrwt>
<pdfrwt beam="1">  1        4 0.10508116E+00 0.10457194E+04</pdfrwt>
<pdfrwt beam="2">  1       -4 0.61577035E-01 0.10457194E+04</pdfrwt>
<totfact> 0.35991801E+00</totfact>
</mgrwt>
</event>
<event>
 6    1  0.8968082E-007  0.8929445E+03  0.7818608E-02  0.9434444E-01
         -1   -1    0    0    0  501 -0.00000000000E+00  0.00000000000E+00  0.24951295397E+03  0.24951295397E+03  0.00000000000E+00 0.  1.
          1   -1    0    0  501    0  0.00000000000E+00 -0.00000000000E+00 -0.79890627424E+03  0.79890627424E+03  0.00000000000E+00 0. -1.
         23    2    1    2    0    0  0.10880320423E+03 -0.37751025676E+03 -0.41706907021E+02  0.40647092389E+03  0.95535410526E+02 0.  0.
         13    1    3    3    0    0  0.44235434263E+02 -0.17005145332E+03 -0.66313241949E+02  0.18780765820E+03  0.00000000000E+00 0.  1.
        -13    1    3    3    0    0  0.64567769967E+02 -0.20745880345E+03  0.24606334928E+02  0.21866326570E+03  0.00000000000E+00 0. -1.
         22    1    1    2    0    0 -0.10880320423E+03  0.37751025676E+03 -0.50768641325E+03  0.64194830431E+03  0.00000000000E+00 0. -1.
<mgrwt>
<rscale>  0 0.89294449E+03</rscale>
<asrwt>0</asrwt>
<pdfrwt beam="1">  1        1 0.12290866E+00 0.89294449E+03</pdfrwt>
<pdfrwt beam="2">  1       -1 0.38386609E-01 0.89294449E+03</pdfrwt>
<totfact> 0.14651371E+02</totfact>
</mgrwt>
</event>
<event>
 6    1  0.8968082E-007  0.7619387E+03  0.7818608E-02  0.9616804E-01
          4   -1    0    0  501    0  0.00000000000E+00  0.00000000000E+00  0.30684126510E+03  0.30684126510E+03  0.00000000000E+00 0. -1.
         -4   -1    0    0    0  501 -0.00000000000E+00 -0.00000000000E+00 -0.47300565607E+03  0.47300565607E+03  0.00000000000E+00 0.  1.
         23    2    1    2    0    0  0.22451978462E+03 -0.51407371960E+01 -0.39169537927E+03  0.46157064566E+03  0.95846908800E+02 0.  0.
         13    1    3    3    0    0  0.12980826976E+03 -0.49312177273E+02 -0.24192792906E+03  0.27894623242E+03  0.00000000000E+00 0.  1.
        -13    1    3    3    0    0  0.94711514866E+02  0.44171440077E+02 -0.14976745021E+03  0.18262441323E+03  0.00000000000E+00 0. -1.
         22    1    1    2    0    0 -0.22451978462E+03  0.51407371960E+01  0.22553098831E+03  0.31827627551E+03  0.00000000000E+00 0. -1.
<mgrwt>
<rscale>  0 0.76193872E+03</rscale>
<asrwt>0</asrwt>
<pdfrwt beam="1">  1        4 0.47206349E-01 0.76193872E+03</pdfrwt>
<pdfrwt beam="2">  1       -4 0.72770101E-01 0.76193872E+03</pdfrwt>
<totfact> 0.14842852E+01</totfact>
</mgrwt>
</event>
<event>
 6    1  0.8968082E-007  0.3102804E+04  0.7818608E-02  0.8214969E-01
          2   -1    0    0  501    0  0.00000000000E+00  0.00000000000E+00  0.42583039025E+04  0.42583039025E+04  0.00000000000E+00 0. -1.
         -2   -1    0    0    0  501 -0.00000000000E+00 -0.00000000000E+00 -0.56521279786E+03  0.56521279786E+03  0.00000000000E+00 0.  1.
         23    2    1    2    0    0 -0.99430281629E+03  0.11820498705E+04  0.20488741005E+04  0.25675624580E+04  0.92800372638E+02 0.  0.
         11    1    3    3    0    0 -0.46025857093E+03  0.53325341086E+03  0.10098560265E+04  0.12312620950E+04  0.00000000000E+00 0. -1.
        -11    1    3    3    0    0 -0.53404424536E+03  0.64879645967E+03  0.10390180739E+04  0.13363003629E+04  0.00000000000E+00 0.  1.
         22    1    1    2    0    0  0.99430281629E+03 -0.11820498705E+04  0.16442170042E+04  0.22559542424E+04  0.00000000000E+00 0. -1.
<mgrwt>
<rscale>  0 0.31028038E+04</rscale>
<asrwt>0</asrwt>
<pdfrwt beam="1">  1        2 0.65512366E+00 0.31028038E+04</pdfrwt>
<pdfrwt beam="2">  1       -2 0.86955818E-01 0.31028038E+04</pdfrwt>
<totfact> 0.20039209E-01</totfact>
</mgrwt>
</event>
<event>
 6    1  0.8968082E-007  0.2843199E+04  0.7818608E-02  0.8289981E-01
         -1   -1    0    0    0  501 -0.00000000000E+00  0.00000000000E+00  0.19563047276E+04  0.19563047276E+04  0.00000000000E+00 0.  1.
          1   -1    0    0  501    0  0.00000000000E+00 -0.00000000000E+00 -0.10330423435E+04  0.10330423435E+04  0.00000000000E+00 0. -1.
         23    2    1    2    0    0 -0.67235073814E+03 -0.94647176315E+03 -0.39763655314E+03  0.12307572054E+04  0.93723832650E+02 0.  0.
         13    1    3    3    0    0 -0.16874500988E+03 -0.17934279096E+03 -0.65198020763E+02  0.25473416916E+03  0.00000000000E+00 0.  1.
        -13    1    3    3    0    0 -0.50360572826E+03 -0.76712897219E+03 -0.33243853237E+03  0.97602303627E+03  0.00000000000E+00 0. -1.
         22    1    1    2    0    0  0.67235073814E+03  0.94647176315E+03  0.13208989372E+04  0.17585898657E+04  0.00000000000E+00 0.  1.
<mgrwt>
<rscale>  0 0.28431993E+04</rscale>
<asrwt>0</asrwt>
<pdfrwt beam="1">  1        1 0.15892959E+00 0.28431993E+04</pdfrwt>
<pdfrwt beam="2">  1       -1 0.30096996E+00 0.28431993E+04</pdfrwt>
<totfact> 0.40037302E-01</totfact>
</mgrwt>
</event>
<event>
 6    1  0.8968082E-007  0.1628890E+04  0.7818608E-02  0.8802994E-01
          1   -1    0    0  501    0  0.00000000000E+00  0.00000000000E+00  0.31366809506E+04  0.31366809506E+04  0.00000000000E+00 0. -1.
         -1   -1    0    0    0  501 -0.00000000000E+00 -0.00000000000E+00 -0.21147222699E+03  0.21147222699E+03  0.00000000000E+00 0.  1.
         23    2    1    2    0    0 -0.50687161381E+03  0.46797269468E+03  0.23476650807E+04  0.24484454832E+04  0.86236171797E+02 0.  0.
         13    1    3    3    0    0 -0.12580645529E+03  0.14549742531E+03  0.77153520496E+03  0.79514988364E+03  0.00000000000E+00 0. -1.
        -13    1    3    3    0    0 -0.38106515851E+03  0.32247526936E+03  0.15761298757E+04  0.16532955996E+04  0.00000000000E+00 0.  1.
         22    1    1    2    0    0  0.50687161381E+03 -0.46797269468E+03  0.57754364294E+03  0.89970769439E+03  0.00000000000E+00 0.  1.
<mgrwt>
<rscale>  0 0.16288903E+04</rscale>
<asrwt>0</asrwt>
<pdfrwt beam="1">  1        1 0.48256626E+00 0.16288903E+04</pdfrwt>
<pdfrwt beam="2">  1       -1 0.32534191E-01 0.16288903E+04</pdfrwt>
<totfact> 0.40348133E+00</totfact>
</mgrwt>
</event>
<event>
 6    1  0.8968082E-007  0.6898584E+03  0.7818608E-02  0.9734735E-01
          1   -1    0    0  501    0  0.00000000000E+00  0.00000000000E+00  0.67120698356E+03  0.67120698356E+03  0.00000000000E+00 0. -1.
         -1   -1    0    0    0  501 -0.00000000000E+00 -0.00000000000E+00 -0.17725703822E+03  0.17725703822E+03  0.00000000000E+00 0.  1.
         23    2    1    2    0    0 -0.16305000695E+03 -0.29360966895E+03  0.29391889427E+03  0.45756203424E+03  0.10090964426E+03 0.  0.
         11    1    3    3    0    0 -0.10098756540E+03 -0.11818322147E+03  0.18616141291E+03  0.24253212954E+03  0.00000000000E+00 0.  1.
        -11    1    3    3    0    0 -0.62062441551E+02 -0.17542644749E+03  0.10775748135E+03  0.21502990470E+03  0.00000000000E+00 0. -1.
         22    1    1    2    0    0  0.16305000695E+03  0.29360966895E+03  0.20003105107E+03  0.39090198754E+03  0.00000000000E+00 0. -1.
<mgrwt>
<rscale>  0 0.68985843E+03</rscale>
<asrwt>0</asrwt>
<pdfrwt beam="1">  1        1 0.10326261E+00 0.68985843E+03</pdfrwt>
<pdfrwt beam="2">  1       -1 0.27270314E-01 0.68985843E+03</pdfrwt>
<totfact> 0.35386309E+02</totfact>
</mgrwt>
</event>
<event>
 6    1  0.8968082E-007  0.9363748E+03  0.7818608E-02  0.9381220E-01
         -2   -1    0    0    0  501 -0.00000000000E+00  0.00000000000E+00  0.33061298514E+03  0.33061298514E+03  0.00000000000E+00 0.  1.
          2   -1    0    0  501    0  0.00000000000E+00 -0.00000000000E+00 -0.66300915994E+03  0.66300915994E+03  0.00000000000E+00 0. -1.
         23    2    1    2    0    0  0.35790783304E+03  0.16288907871E+03 -0.42856903335E+03  0.58880108877E+03  0.91566570732E+02 0.  0.
         11    1    3    3    0    0  0.26496539555E+03  0.13782967855E+03 -0.26640863985E+03  0.40022149432E+03  0.00000000000E+00 0. -1.
        -11    1    3    3    0    0  0.92942437492E+02  0.25059400157E+02 -0.16216039350E+03  0.18857959445E+03  0.00000000000E+00 0.  1.
         22    1    1    2    0    0 -0.35790783304E+03 -0.16288907871E+03  0.96172858549E+02  0.40482105631E+03  0.00000000000E+00 0.  1.
<mgrwt>
<rscale>  0 0.93637479E+03</rscale>
<asrwt>0</asrwt>
<pdfrwt beam="1">  1        2 0.10200141E+00 0.93637479E+03</pdfrwt>
<pdfrwt beam="2">  1       -2 0.50863537E-01 0.93637479E+03</pdfrwt>
<totfact> 0.16056586E+02</totfact>
</mgrwt>
</event>
<event>
 6    1  0.8968082E-007  0.2765393E+04  0.7818608E-02  0.8314094E-01
         -2   -1    0    0    0  501 -0.00000000000E+00  0.00000000000E+00  0.17810568185E+04  0.17810568185E+04  0.00000000000E+00 0.  1.
          2   -1    0    0  501    0  0.00000000000E+00 -0.00000000000E+00 -0.10734357039E+04  0.10734357039E+04  0.00000000000E+00 0. -1.
         23    2    1    2    0    0  0.90925887397E+03  0.89903079752E+03 -0.18481797386E+03  0.12951799811E+04  0.91243768107E+02 0.  0.
         11    1    3    3    0    0  0.35304071558E+03  0.38875969340E+03 -0.40619164719E+02  0.52670842277E+03  0.00000000000E+00 0. -1.
        -11    1    3    3    0    0  0.55621815839E+03  0.51027110411E+03 -0.14419880914E+03  0.76847155834E+03  0.00000000000E+00 0.  1.
         22    1    1    2    0    0 -0.90925887397E+03 -0.89903079752E+03  0.89243908848E+03  0.15593125413E+04  0.00000000000E+00 0. -1.
<mgrwt>
<rscale>  0 0.27653933E+04</rscale>
<asrwt>0</asrwt>
<pdfrwt beam="1">  1        2 0.16514395E+00 0.27653933E+04</pdfrwt>
<pdfrwt beam="2">  1       -2 0.27400874E+00 0.27653933E+04</pdfrwt>
<totfact> 0.90460199E-01</totfact>
</mgrwt>
</event>
<event>
 6    1  0.8968082E-007  0.3081433E+04  0.7818608E-02  0.8220852E-01
          2   -1    0    0  501    0  0.00000000000E+00  0.00000000000E+00  0.12258482546E+04  0.12258482546E+04  0.00000000000E+00 0. -1.
         -2   -1    0    0    0  501 -0.00000000000E+00 -0.00000000000E+00 -0.19364614788E+04  0.19364614788E+04  0.00000000000E+00 0.  1.
         23    2    1    2    0    0 -0.18574471321E+03  0.15281780199E+04 -0.34472424040E+03  0.15800000585E+04  0.87955807273E+02 0.  0.
         11    1    3    3    0    0 -0.43546910124E+02  0.71069202381E+03 -0.14823302577E+03  0.72729121817E+03  0.00000000000E+00 0. -1.
        -11    1    3    3    0    0 -0.14219780308E+03  0.81748599604E+03 -0.19649121464E+03  0.85270884031E+03  0.00000000000E+00 0.  1.
         22    1    1    2    0    0  0.18574471321E+03 -0.15281780199E+04 -0.36588898383E+03  0.15823096749E+04  0.00000000000E+00 0. -1.
<mgrwt>
<rscale>  0 0.30814334E+04</rscale>
<asrwt>0</asrwt>
<pdfrwt beam="1">  1        2 0.18859204E+00 0.30814334E+04</pdfrwt>
<pdfrwt beam="2">  1       -2 0.29791715E+00 0.30814334E+04</pdfrwt>
<totfact> 0.50871833E-01</totfact>
</mgrwt>
</event>
<event>
 6    1  0.8968082E-007  0.1749318E+04  0.7818608E-02  0.8733726E-01
         -2   -1    0    0    0  501 -0.00000000000E+00  0.00000000000E+00  0.43992598014E+03  0.43992598014E+03  0.00000000000E+00 0.  1.
          2   -1    0    0  501    0  0.00000000000E+00 -0.00000000000E+00 -0.17389943522E+04  0.17389943522E+04  0.00000000000E+00 0. -1.
         23    2    1    2    0    0 -0.31596947015E+03 -0.66144741190E+03 -0.12393775087E+04  0.14434528729E+04  0.10074821213E+03 0.  0.
         11    1    3    3    0    0 -0.27195678835E+03 -0.58332391917E+03 -0.10153821839E+04  0.12021764716E+04  0.00000000000E+00 0.  1.
        -11    1    3    3    0    0 -0.44012681804E+02 -0.78123492729E+02 -0.22399532483E+03  0.24127640130E+03  0.00000000000E+00 0. -1.
         22    1    1    2    0    0  0.31596947015E+03  0.66144741190E+03 -0.59690863320E+02  0.73546745947E+03  0.00000000000E+00 0.  1.
<mgrwt>
<rscale>  0 0.17493185E+04</rscale>
<asrwt>0</asrwt>
<pdfrwt beam="1">  1        2 0.26753760E+00 0.17493185E+04</pdfrwt>
<pdfrwt beam="2">  1       -2 0.67680919E-01 0.17493185E+04</pdfrwt>
<totfact> 0.17688130E+01</totfact>
</mgrwt>
</event>
<event>
 6    1  0.8968082E-007  0.6265214E+03  0.7818608E-02  0.9851861E-01
          1   -1    0    0  501    0  0.00000000000E+00  0.00000000000E+00  0.10782674886E+03  0.10782674886E+03  0.00000000000E+00 0. -1.
         -1   -1    0    0    0  501 -0.00000000000E+00 -0.00000000000E+00 -0.91009206015E+03  0.91009206015E+03  0.00000000000E+00 0.  1.
         23    2    1    2    0    0  0.17938347078E+03 -0.59706587935E+02 -0.80154093679E+03  0.82885841932E+03  0.93782192866E+02 0.  0.
         11    1    3    3    0    0  0.12365281752E+03 -0.52855575758E+01 -0.60327444053E+03  0.61583927042E+03  0.00000000000E+00 0.  1.
        -11    1    3    3    0    0  0.55730653256E+02 -0.54421030359E+02 -0.19826649626E+03  0.21301914890E+03  0.00000000000E+00 0. -1.
         22    1    1    2    0    0 -0.17938347078E+03  0.59706587935E+02 -0.72437450415E+00  0.18906038969E+03  0.00000000000E+00 0. -1.
<mgrwt>
<rscale>  0 0.62652141E+03</rscale>
<asrwt>0</asrwt>
<pdfrwt beam="1">  1        1 0.16588730E-01 0.62652141E+03</pdfrwt>
<pdfrwt beam="2">  1       -1 0.14001417E+00 0.62652141E+03</pdfrwt>
<totfact> 0.14416597E+02</totfact>
</mgrwt>
</event>
<event>
 6    1  0.8968082E-007  0.1081770E+04  0.7818608E-02  0.9223144E-01
         -2   -1    0    0    0  501 -0.00000000000E+00  0.00000000000E+00  0.58985800477E+03  0.58985800477E+03  0.00000000000E+00 0.  1.
          2   -1    0    0  501    0  0.00000000000E+00 -0.00000000000E+00 -0.49597841624E+03  0.49597841624E+03  0.00000000000E+00 0. -1.
         23    2    1    2    0    0 -0.24147559309E+03  0.37516446051E+03  0.34716294387E+03  0.57279520183E+03  0.92268083092E+02 0.  0.
         13    1    3    3    0    0 -0.81061619613E+02  0.14333063264E+03  0.18457145196E+03  0.24734849365E+03  0.00000000000E+00 0.  1.
        -13    1    3    3    0    0 -0.16041397348E+03  0.23183382786E+03  0.16259149191E+03  0.32544670818E+03  0.00000000000E+00 0. -1.
         22    1    1    2    0    0  0.24147559309E+03 -0.37516446051E+03 -0.25328335534E+03  0.51304121918E+03  0.00000000000E+00 0. -1.
<mgrwt>
<rscale>  0 0.10817705E+04</rscale>
<asrwt>0</asrwt>
<pdfrwt beam="1">  1        2 0.76304372E-01 0.10817705E+04</pdfrwt>
<pdfrwt beam="2">  1       -2 0.90747384E-01 0.10817705E+04</pdfrwt>
<totfact> 0.64088119E+01</totfact>
</mgrwt>
</event>
<event>
 6    1  0.8968082E-007  0.1066187E+04  0.7818608E-02  0.9238790E-01
          1   -1    0    0  501    0  0.00000000000E+00  0.00000000000E+00  0.20100250720E+03  0.20100250720E+03  0.00000000000E+00 0. -1.
         -1   -1    0    0    0  501 -0.00000000000E+00 -0.00000000000E+00 -0.14138556428E+04  0.14138556428E+04  0.00000000000E+00 0.  1.
         23    2    1    2    0    0  0.36406372581E+03  0.14322847978E+03 -0.71194063291E+02  0.40802666579E+03  0.91435067009E+02 0.  0.
         13    1    3    3    0    0  0.18911112914E+03  0.40279447985E+02 -0.13677551188E+01  0.19335801987E+03  0.00000000000E+00 0.  1.
        -13    1    3    3    0    0  0.17495259668E+03  0.10294903179E+03 -0.69826308172E+02  0.21466864593E+03  0.00000000000E+00 0. -1.
         22    1    1    2    0    0 -0.36406372581E+03 -0.14322847978E+03 -0.11416590723E+04  0.12068314842E+04  0.00000000000E+00 0.  1.
<mgrwt>
<rscale>  0 0.10661867E+04</rscale>
<asrwt>0</asrwt>
<pdfrwt beam="1">  1        1 0.30923462E-01 0.10661867E+04</pdfrwt>
<pdfrwt beam="2">  1       -1 0.21751626E+00 0.10661867E+04</pdfrwt>
<totfact> 0.16915212E+01</totfact>
</mgrwt>
</event>
<event>
 6    1  0.8968082E-007  0.4098986E+04  0.7818608E-02  0.7984870E-01
          2   -1    0    0  501    0  0.00000000000E+00  0.00000000000E+00  0.30506520920E+04  0.30506520920E+04  0.00000000000E+00 0. -1.
         -2   -1    0    0    0  501 -0.00000000000E+00 -0.00000000000E+00 -0.13768927242E+04  0.13768927242E+04  0.00000000000E+00 0.  1.
         23    2    1    2    0    0 -0.17131249774E+03  0.15012412582E+04 -0.65672290508E+03  0.16500961827E+04  0.91973642268E+02 0.  0.
         13    1    3    3    0    0 -0.81009648815E+02  0.36257901090E+03 -0.16524708905E+03  0.40661124282E+03  0.00000000000E+00 0.  1.
        -13    1    3    3    0    0 -0.90302848926E+02  0.11386622473E+04 -0.49147581603E+03  0.12434849399E+04  0.00000000000E+00 0. -1.
         22    1    1    2    0    0  0.17131249774E+03 -0.15012412582E+04  0.23304822729E+04  0.27774486335E+04  0.00000000000E+00 0. -1.
<mgrwt>
<rscale>  0 0.40989856E+04</rscale>
<asrwt>0</asrwt>
<pdfrwt beam="1">  1        2 0.46933109E+00 0.40989856E+04</pdfrwt>
<pdfrwt beam="2">  1       -2 0.21182965E+00 0.40989856E+04</pdfrwt>
<totfact> 0.14100129E-01</totfact>
</mgrwt>
</event>
<event>
 6    1  0.8968082E-007  0.2599114E+04  0.7818608E-02  0.8368502E-01
         -2   -1    0    0    0  501 -0.00000000000E+00  0.00000000000E+00  0.61657215137E+03  0.61657215137E+03  0.00000000000E+00 0.  1.
          2   -1    0    0  501    0  0.00000000000E+00 -0.00000000000E+00 -0.27390928911E+04  0.27390928911E+04  0.00000000000E+00 0. -1.
         23    2    1    2    0    0  0.10246183417E+04 -0.45660279556E+03 -0.21945901295E+03  0.11465989966E+04  0.90543590060E+02 0.  0.
         11    1    3    3    0    0  0.42963895004E+03 -0.24049166932E+03 -0.92544939300E+02  0.50098945717E+03  0.00000000000E+00 0. -1.
        -11    1    3    3    0    0  0.59497939161E+03 -0.21611112623E+03 -0.12691407365E+03  0.64560953944E+03  0.00000000000E+00 0.  1.
         22    1    1    2    0    0 -0.10246183417E+04  0.45660279556E+03 -0.19030617267E+04  0.22090660458E+04  0.00000000000E+00 0. -1.
<mgrwt>
<rscale>  0 0.25991140E+04</rscale>
<asrwt>0</asrwt>
<pdfrwt beam="1">  1        2 0.42139890E+00 0.25991140E+04</pdfrwt>
<pdfrwt beam="2">  1       -2 0.94857256E-01 0.25991140E+04</pdfrwt>
<totfact> 0.20815411E+00</totfact>
</mgrwt>
</event>
<event>
 6    1  0.8968082E-007  0.2019517E+04  0.7818608E-02  0.8597550E-01
          2   -1    0    0  501    0  0.00000000000E+00  0.00000000000E+00  0.13523855357E+04  0.13523855357E+04  0.00000000000E+00 0. -1.
         -2   -1    0    0    0  501 -0.00000000000E+00 -0.00000000000E+00 -0.75393595995E+03  0.75393595995E+03  0.00000000000E+00 0.  1.
         23    2    1    2    0    0  0.76306573567E+03  0.58745963927E+03  0.60935868567E+03  0.11432549594E+04  0.91300326249E+02 0.  0.
         11    1    3    3    0    0  0.63673611641E+03  0.52974617932E+03  0.51485055742E+03  0.97526149977E+03  0.00000000000E+00 0.  1.
        -11    1    3    3    0    0  0.12632961926E+03  0.57713459951E+02  0.94508128244E+02  0.16799345959E+03  0.00000000000E+00 0. -1.
         22    1    1    2    0    0 -0.76306573567E+03 -0.58745963927E+03 -0.10909109872E+02  0.96306653634E+03  0.00000000000E+00 0.  1.
<mgrwt>
<rscale>  0 0.20195169E+04</rscale>
<asrwt>0</asrwt>
<pdfrwt beam="1">  1        2 0.20805931E+00 0.20195169E+04</pdfrwt>
<pdfrwt beam="2">  1       -2 0.11599015E+00 0.20195169E+04</pdfrwt>
<totfact> 0.82567044E+00</totfact>
</mgrwt>
</event>
<event>
 6    1  0.8968082E-007  0.1842054E+04  0.7818608E-02  0.8684250E-01
         -2   -1    0    0    0  501 -0.00000000000E+00  0.00000000000E+00  0.59031655933E+03  0.59031655933E+03  0.00000000000E+00 0.  1.
          2   -1    0    0  501    0  0.00000000000E+00 -0.00000000000E+00 -0.14370101982E+04  0.14370101982E+04  0.00000000000E+00 0. -1.
         23    2    1    2    0    0  0.38999586310E+02 -0.37118517428E+03  0.50083213019E+03  0.62906887731E+03  0.74802596417E+02 0.  0.
         13    1    3    3    0    0  0.58292894619E+02 -0.29387357824E+03  0.37281985768E+03  0.47828274883E+03  0.00000000000E+00 0. -1.
        -13    1    3    3    0    0 -0.19293308309E+02 -0.77311596040E+02  0.12801227251E+03  0.15078612847E+03  0.00000000000E+00 0.  1.
         22    1    1    2    0    0 -0.38999586310E+02  0.37118517428E+03 -0.13475257691E+04  0.13982578802E+04  0.00000000000E+00 0. -1.
<mgrwt>
<rscale>  0 0.18420542E+04</rscale>
<asrwt>0</asrwt>
<pdfrwt beam="1">  1        2 0.22107849E+00 0.18420542E+04</pdfrwt>
<pdfrwt beam="2">  1       -2 0.90817932E-01 0.18420542E+04</pdfrwt>
<totfact> 0.13422335E+01</totfact>
</mgrwt>
</event>
<event>
 6    1  0.8968082E-007  0.2141057E+04  0.7818608E-02  0.8543370E-01
         -1   -1    0    0    0  501 -0.00000000000E+00  0.00000000000E+00  0.22588174459E+04  0.22588174459E+04  0.00000000000E+00 0.  1.
          1   -1    0    0  501    0  0.00000000000E+00 -0.00000000000E+00 -0.50735901655E+03  0.50735901655E+03  0.00000000000E+00 0. -1.
         23    2    1    2    0    0 -0.47125412429E+03 -0.67496153335E+03 -0.30446927749E+01  0.82815305528E+03  0.90414001390E+02 0.  0.
         13    1    3    3    0    0 -0.13372738755E+03 -0.12801998988E+03 -0.10205876710E+02  0.18540844616E+03  0.00000000000E+00 0. -1.
        -13    1    3    3    0    0 -0.33752673675E+03 -0.54694154347E+03  0.71611839356E+01  0.64274460912E+03  0.00000000000E+00 0.  1.
         22    1    1    2    0    0  0.47125412429E+03  0.67496153335E+03  0.17545031221E+04  0.19380234071E+04  0.00000000000E+00 0.  1.
<mgrwt>
<rscale>  0 0.21410571E+04</rscale>
<asrwt>0</asrwt>
<pdfrwt beam="1">  1        1 0.78055234E-01 0.21410571E+04</pdfrwt>
<pdfrwt beam="2">  1       -1 0.34751037E+00 0.21410571E+04</pdfrwt>
<totfact> 0.64308136E-01</totfact>
</mgrwt>
</event>
<event>
 6    1  0.8968082E-007  0.6147523E+03  0.7818608E-02  0.9875264E-01
          2   -1    0    0  501    0  0.00000000000E+00  0.00000000000E+00  0.17460183986E+04  0.17460183986E+04  0.00000000000E+00 0. -1.
         -2   -1    0    0    0  501 -0.00000000000E+00 -0.00000000000E+00 -0.54111739530E+02  0.54111739530E+02  0.00000000000E+00 0.  1.
         23    2    1    2    0    0 -0.32404015414E+01 -0.28715553687E+03  0.11243411506E+04  0.11640488470E+04  0.91640016648E+02 0.  0.
         11    1    3    3    0    0  0.82348542274E+01 -0.12855743088E+03  0.68043314151E+03  0.69252009785E+03  0.00000000000E+00 0. -1.
        -11    1    3    3    0    0 -0.11475255769E+02 -0.15859810598E+03  0.44390800910E+03  0.47152874913E+03  0.00000000000E+00 0.  1.
         22    1    1    2    0    0  0.32404015414E+01  0.28715553687E+03  0.56756550846E+03  0.63608129114E+03  0.00000000000E+00 0.  1.
<mgrwt>
<rscale>  0 0.61475228E+03</rscale>
<asrwt>0</asrwt>
<pdfrwt beam="1">  1        2 0.26861817E+00 0.61475228E+03</pdfrwt>
<pdfrwt beam="2">  1       -2 0.83248844E-02 0.61475228E+03</pdfrwt>
<totfact> 0.87469408E+02</totfact>
</mgrwt>
</event>
<event>
 6    1  0.8968082E-007  0.1640242E+04  0.7818608E-02  0.8796200E-01
          2   -1    0    0  501    0  0.00000000000E+00  0.00000000000E+00  0.64818770381E+03  0.64818770381E+03  0.00000000000E+00 0. -1.
         -2   -1    0    0    0  501 -0.00000000000E+00 -0.00000000000E+00 -0.10376601763E+04  0.10376601763E+04  0.00000000000E+00 0.  1.
         23    2    1    2    0    0 -0.19141496649E+03 -0.23796838061E+03  0.58418956079E+03  0.66541346546E+03  0.90713822027E+02 0.  0.
         13    1    3    3    0    0 -0.19051076429E+03 -0.19439303691E+03  0.53059426666E+03  0.59633319539E+03  0.00000000000E+00 0. -1.
        -13    1    3    3    0    0 -0.90420220801E+00 -0.43575343695E+02  0.53595294133E+02  0.69080270070E+02  0.00000000000E+00 0.  1.
         22    1    1    2    0    0  0.19141496649E+03  0.23796838061E+03 -0.97366203324E+03  0.10204344146E+04  0.00000000000E+00 0.  1.
<mgrwt>
<rscale>  0 0.16402421E+04</rscale>
<asrwt>0</asrwt>
<pdfrwt beam="1">  1        2 0.99721187E-01 0.16402421E+04</pdfrwt>
<pdfrwt beam="2">  1       -2 0.15964002E+00 0.16402421E+04</pdfrwt>
<totfact> 0.10923395E+01</totfact>
</mgrwt>
</event>
<event>
 6    1  0.8968082E-007  0.1124573E+04  0.7818608E-02  0.9181567E-01
          2   -1    0    0  501    0  0.00000000000E+00  0.00000000000E+00  0.64391243937E+03  0.64391243937E+03  0.00000000000E+00 0. -1.
         -2   -1    0    0    0  501 -0.00000000000E+00 -0.00000000000E+00 -0.49100807609E+03  0.49100807609E+03  0.00000000000E+00 0.  1.
         23    2    1    2    0    0 -0.20123981930E+03  0.42338110237E+03  0.38396117522E+03  0.61229610629E+03  0.87927896487E+02 0.  0.
         11    1    3    3    0    0 -0.99248393884E+02  0.19850487642E+03  0.23816773992E+03  0.32554308777E+03  0.00000000000E+00 0. -1.
        -11    1    3    3    0    0 -0.10199142542E+03  0.22487622595E+03  0.14579343530E+03  0.28675301852E+03  0.00000000000E+00 0.  1.
         22    1    1    2    0    0  0.20123981930E+03 -0.42338110237E+03 -0.23105681194E+03  0.52262440917E+03  0.00000000000E+00 0.  1.
<mgrwt>
<rscale>  0 0.11245732E+04</rscale>
<asrwt>0</asrwt>
<pdfrwt beam="1">  1        2 0.99063452E-01 0.11245732E+04</pdfrwt>
<pdfrwt beam="2">  1       -2 0.75539704E-01 0.11245732E+04</pdfrwt>
<totfact> 0.70919055E+01</totfact>
</mgrwt>
</event>
<event>
 6    1  0.8968082E-007  0.2054326E+04  0.7818608E-02  0.8581635E-01
          2   -1    0    0  501    0  0.00000000000E+00  0.00000000000E+00  0.26783970885E+04  0.26783970885E+04  0.00000000000E+00 0. -1.
         -2   -1    0    0    0  501 -0.00000000000E+00 -0.00000000000E+00 -0.39391595649E+03  0.39391595649E+03  0.00000000000E+00 0.  1.
         23    2    1    2    0    0 -0.76962010321E+03  0.61959791384E+03  0.15531245683E+04  0.18430453356E+04  0.91670639691E+02 0.  0.
         11    1    3    3    0    0 -0.31421871959E+03  0.29891328150E+03  0.73234721221E+03  0.85112572093E+03  0.00000000000E+00 0.  1.
        -11    1    3    3    0    0 -0.45540138362E+03  0.32068463234E+03  0.82077735612E+03  0.99191961466E+03  0.00000000000E+00 0. -1.
         22    1    1    2    0    0  0.76962010321E+03 -0.61959791384E+03  0.73135656367E+03  0.12292677094E+04  0.00000000000E+00 0. -1.
<mgrwt>
<rscale>  0 0.20543255E+04</rscale>
<asrwt>0</asrwt>
<pdfrwt beam="1">  1        2 0.41206108E+00 0.20543255E+04</pdfrwt>
<pdfrwt beam="2">  1       -2 0.60602456E-01 0.20543255E+04</pdfrwt>
<totfact> 0.64210823E+00</totfact>
</mgrwt>
</event>
<event>
 6    1  0.8968082E-007  0.1623540E+04  0.7818608E-02  0.8806216E-01
          2   -1    0    0  501    0  0.00000000000E+00  0.00000000000E+00  0.94474142014E+03  0.94474142014E+03  0.00000000000E+00 0. -1.
         -2   -1    0    0    0  501 -0.00000000000E+00 -0.00000000000E+00 -0.69751429599E+03  0.69751429599E+03  0.00000000000E+00 0.  1.
         23    2    1    2    0    0 -0.21533368712E+03  0.77159790339E+03  0.87899901651E+01  0.80644222726E+03  0.92411474630E+02 0.  0.
         11    1    3    3    0    0 -0.98195781167E+01  0.15864841220E+03  0.17384789591E+02  0.15989988655E+03  0.00000000000E+00 0.  1.
        -11    1    3    3    0    0 -0.20551410901E+03  0.61294949119E+03 -0.85947994256E+01  0.64654234071E+03  0.00000000000E+00 0. -1.
         22    1    1    2    0    0  0.21533368712E+03 -0.77159790339E+03  0.23843713398E+03  0.83581348888E+03  0.00000000000E+00 0.  1.
<mgrwt>
<rscale>  0 0.16235401E+04</rscale>
<asrwt>0</asrwt>
<pdfrwt beam="1">  1        2 0.14534483E+00 0.16235401E+04</pdfrwt>
<pdfrwt beam="2">  1       -2 0.10730989E+00 0.16235401E+04</pdfrwt>
<totfact> 0.18276402E+01</totfact>
</mgrwt>
</event>
<event>
 6    1  0.8968082E-007  0.1168838E+04  0.7818608E-02  0.9140579E-01
         -3   -1    0    0    0  501 -0.00000000000E+00  0.00000000000E+00  0.49120216827E+03  0.49120216827E+03  0.00000000000E+00 0.  1.
          3   -1    0    0  501    0  0.00000000000E+00 -0.00000000000E+00 -0.69532542501E+03  0.69532542501E+03  0.00000000000E+00 0. -1.
         23    2    1    2    0    0  0.50144196482E+03 -0.22622560853E+03  0.86486412948E+02  0.56437323128E+03  0.91734260330E+02 0.  0.
         11    1    3    3    0    0  0.28271914702E+03 -0.14743617288E+03  0.91887093542E+02  0.33182944282E+03  0.00000000000E+00 0. -1.
        -11    1    3    3    0    0  0.21872281780E+03 -0.78789435651E+02 -0.54006805936E+01  0.23254378846E+03  0.00000000000E+00 0.  1.
         22    1    1    2    0    0 -0.50144196482E+03  0.22622560853E+03 -0.29060966969E+03  0.62215436200E+03  0.00000000000E+00 0. -1.
<mgrwt>
<rscale>  0 0.11688376E+04</rscale>
<asrwt>0</asrwt>
<pdfrwt beam="1">  1        3 0.10697314E+00 0.11688376E+04</pdfrwt>
<pdfrwt beam="2">  1       -3 0.75569565E-01 0.11688376E+04</pdfrwt>
<totfact> 0.31917156E+00</totfact>
</mgrwt>
</event>
<event>
 6    1  0.8968082E-007  0.2621367E+04  0.7818608E-02  0.8360979E-01
         -2   -1    0    0    0  501 -0.00000000000E+00  0.00000000000E+00  0.54444894373E+03  0.54444894373E+03  0.00000000000E+00 0.  1.
          2   -1    0    0  501    0  0.00000000000E+00 -0.00000000000E+00 -0.31552839128E+04  0.31552839128E+04  0.00000000000E+00 0. -1.
         23    2    1    2    0    0 -0.40070086275E+03  0.99228773615E+03 -0.24290321098E+03  0.11012146357E+04  0.92062866361E+02 0.  0.
         11    1    3    3    0    0 -0.24383032240E+03  0.53409828184E+03 -0.94442943539E+02  0.59467106065E+03  0.00000000000E+00 0. -1.
        -11    1    3    3    0    0 -0.15687054036E+03  0.45818945431E+03 -0.14846026744E+03  0.50654357510E+03  0.00000000000E+00 0.  1.
         22    1    1    2    0    0  0.40070086275E+03 -0.99228773615E+03 -0.23679317581E+04  0.25985182207E+04  0.00000000000E+00 0. -1.
<mgrwt>
<rscale>  0 0.26213668E+04</rscale>
<asrwt>0</asrwt>
<pdfrwt beam="1">  1        2 0.48542829E+00 0.26213668E+04</pdfrwt>
<pdfrwt beam="2">  1       -2 0.83761377E-01 0.26213668E+04</pdfrwt>
<totfact> 0.15253160E+00</totfact>
</mgrwt>
</event>
<event>
 6    1  0.8968082E-007  0.3171994E+04  0.7818608E-02  0.8196253E-01
          1   -1    0    0  501    0  0.00000000000E+00  0.00000000000E+00  0.30642081212E+04  0.30642081212E+04  0.00000000000E+00 0. -1.
         -1   -1    0    0    0  501 -0.00000000000E+00 -0.00000000000E+00 -0.82089285586E+03  0.82089285586E+03  0.00000000000E+00 0.  1.
         23    2    1    2    0    0 -0.61175125498E+02 -0.58553291552E+03  0.29245750338E+04  0.29847088051E+04  0.93575272908E+02 0.  0.
         11    1    3    3    0    0  0.19784193381E+02 -0.17662538511E+03  0.77918660401E+03  0.79919941494E+03  0.00000000000E+00 0. -1.
        -11    1    3    3    0    0 -0.80959318879E+02 -0.40890753040E+03  0.21453884298E+04  0.21855093901E+04  0.00000000000E+00 0.  1.
         22    1    1    2    0    0  0.61175125498E+02  0.58553291552E+03 -0.68125976849E+03  0.90039217194E+03  0.00000000000E+00 0.  1.
<mgrwt>
<rscale>  0 0.31719940E+04</rscale>
<asrwt>0</asrwt>
<pdfrwt beam="1">  1        1 0.47141663E+00 0.31719940E+04</pdfrwt>
<pdfrwt beam="2">  1       -1 0.12629121E+00 0.31719940E+04</pdfrwt>
<totfact> 0.24511831E-01</totfact>
</mgrwt>
</event>
<event>
 6    1  0.8968082E-007  0.4507791E+04  0.7818608E-02  0.7909274E-01
          2   -1    0    0  501    0  0.00000000000E+00  0.00000000000E+00  0.47595684548E+04  0.47595684548E+04  0.00000000000E+00 0. -1.
         -2   -1    0    0    0  501 -0.00000000000E+00 -0.00000000000E+00 -0.10673330742E+04  0.10673330742E+04  0.00000000000E+00 0.  1.
         23    2    1    2    0    0  0.22468959723E+04  0.35809766953E+02  0.16406121275E+04  0.27840440195E+04  0.97309300707E+02 0.  0.
         11    1    3    3    0    0  0.19632202857E+04  0.63070653961E+02  0.14253166171E+04  0.24268785005E+04  0.00000000000E+00 0. -1.
        -11    1    3    3    0    0  0.28367568666E+03 -0.27260887007E+02  0.21529551039E+03  0.35716551899E+03  0.00000000000E+00 0.  1.
         22    1    1    2    0    0 -0.22468959723E+04 -0.35809766953E+02  0.20516232531E+04  0.30428575094E+04  0.00000000000E+00 0. -1.
<mgrwt>
<rscale>  0 0.45077910E+04</rscale>
<asrwt>0</asrwt>
<pdfrwt beam="1">  1        2 0.73224129E+00 0.45077910E+04</pdfrwt>
<pdfrwt beam="2">  1       -2 0.16420509E+00 0.45077910E+04</pdfrwt>
<totfact> 0.11601026E-02</totfact>
</mgrwt>
</event>
<event>
 6    1  0.8968082E-007  0.9256917E+03  0.7818608E-02  0.9394023E-01
         -1   -1    0    0    0  501 -0.00000000000E+00  0.00000000000E+00  0.59293039728E+03  0.59293039728E+03  0.00000000000E+00 0.  1.
          1   -1    0    0  501    0  0.00000000000E+00 -0.00000000000E+00 -0.36130088605E+03  0.36130088605E+03  0.00000000000E+00 0. -1.
         23    2    1    2    0    0  0.46972875461E+02 -0.42964266342E+03  0.27393550044E+03  0.51996285714E+03  0.92311673950E+02 0.  0.
         11    1    3    3    0    0  0.13704096753E+01 -0.30526669033E+03  0.15706575165E+03  0.34330639462E+03  0.00000000000E+00 0. -1.
        -11    1    3    3    0    0  0.45602465786E+02 -0.12437597309E+03  0.11686974879E+03  0.17665646252E+03  0.00000000000E+00 0.  1.
         22    1    1    2    0    0 -0.46972875461E+02  0.42964266342E+03 -0.42305989214E+02  0.43426842619E+03  0.00000000000E+00 0. -1.
<mgrwt>
<rscale>  0 0.92569169E+03</rscale>
<asrwt>0</asrwt>
<pdfrwt beam="1">  1        1 0.55584752E-01 0.92569169E+03</pdfrwt>
<pdfrwt beam="2">  1       -1 0.91220061E-01 0.92569169E+03</pdfrwt>
<totfact> 0.81105179E+01</totfact>
</mgrwt>
</event>
<event>
 6    1  0.8968082E-007  0.1836417E+04  0.7818608E-02  0.8687169E-01
          2   -1    0    0  501    0  0.00000000000E+00  0.00000000000E+00  0.34274668244E+03  0.34274668244E+03  0.00000000000E+00 0. -1.
         -2   -1    0    0    0  501 -0.00000000000E+00 -0.00000000000E+00 -0.24598549246E+04  0.24598549246E+04  0.00000000000E+00 0.  1.
         23    2    1    2    0    0  0.54602274431E+03 -0.31179927165E+03 -0.43561291923E+02  0.63581675893E+03  0.83700308733E+02 0.  0.
         11    1    3    3    0    0  0.28590676779E+03 -0.15677772212E+03  0.18966043573E+02  0.32662156211E+03  0.00000000000E+00 0. -1.
        -11    1    3    3    0    0  0.26011597652E+03 -0.15502154953E+03 -0.62527335496E+02  0.30919519683E+03  0.00000000000E+00 0.  1.
         22    1    1    2    0    0 -0.54602274431E+03  0.31179927165E+03 -0.20735469502E+04  0.21667848481E+04  0.00000000000E+00 0.  1.
<mgrwt>
<rscale>  0 0.18364173E+04</rscale>
<asrwt>0</asrwt>
<pdfrwt beam="1">  1        2 0.52730260E-01 0.18364173E+04</pdfrwt>
<pdfrwt beam="2">  1       -2 0.37843921E+00 0.18364173E+04</pdfrwt>
<totfact> 0.91630890E-01</totfact>
</mgrwt>
</event>
<event>
 6    1  0.8968082E-007  0.1572313E+04  0.7818608E-02  0.8837740E-01
         -1   -1    0    0    0  501 -0.00000000000E+00  0.00000000000E+00  0.84404765038E+03  0.84404765038E+03  0.00000000000E+00 0.  1.
          1   -1    0    0  501    0  0.00000000000E+00 -0.00000000000E+00 -0.73223623261E+03  0.73223623261E+03  0.00000000000E+00 0. -1.
         23    2    1    2    0    0  0.70057751285E+03  0.28464675003E+03 -0.14605996342E+03  0.77732814389E+03  0.10522787916E+03 0.  0.
         11    1    3    3    0    0  0.54652191388E+03  0.17342159271E+03 -0.11498367479E+03  0.58479269544E+03  0.00000000000E+00 0. -1.
        -11    1    3    3    0    0  0.15405559897E+03  0.11122515732E+03 -0.31076288627E+02  0.19253544845E+03  0.00000000000E+00 0.  1.
         22    1    1    2    0    0 -0.70057751285E+03 -0.28464675003E+03  0.25787138118E+03  0.79895573911E+03  0.00000000000E+00 0.  1.
<mgrwt>
<rscale>  0 0.15723133E+04</rscale>
<asrwt>0</asrwt>
<pdfrwt beam="1">  1        1 0.11265173E+00 0.15723133E+04</pdfrwt>
<pdfrwt beam="2">  1       -1 0.12985348E+00 0.15723133E+04</pdfrwt>
<totfact> 0.12437905E+01</totfact>
</mgrwt>
</event>
<event>
 6    1  0.8968082E-007  0.1986279E+04  0.7818608E-02  0.8613063E-01
         -2   -1    0    0    0  501 -0.00000000000E+00  0.00000000000E+00  0.17193350074E+04  0.17193350074E+04  0.00000000000E+00 0.  1.
          2   -1    0    0  501    0  0.00000000000E+00 -0.00000000000E+00 -0.57366689271E+03  0.57366689271E+03  0.00000000000E+00 0. -1.
         23    2    1    2    0    0 -0.76789558821E+01 -0.79142100071E+03  0.12626309839E+04  0.14929478522E+04  0.90830178419E+02 0.  0.
         13    1    3    3    0    0 -0.32435213371E+02 -0.14792026423E+03  0.27434991102E+03  0.31336930500E+03  0.00000000000E+00 0. -1.
        -13    1    3    3    0    0  0.24756257489E+02 -0.64350073648E+03  0.98828107283E+03  0.11795785472E+04  0.00000000000E+00 0.  1.
         22    1    1    2    0    0  0.76789558821E+01  0.79142100071E+03 -0.11696286921E+03  0.80005404786E+03  0.00000000000E+00 0. -1.
<mgrwt>
<rscale>  0 0.19862785E+04</rscale>
<asrwt>0</asrwt>
<pdfrwt beam="1">  1        2 0.88256446E-01 0.19862785E+04</pdfrwt>
<pdfrwt beam="2">  1       -2 0.26451308E+00 0.19862785E+04</pdfrwt>
<totfact> 0.25497651E+00</totfact>
</mgrwt>
</event>
<event>
 6    1  0.8968082E-007  0.2440527E+04  0.7818608E-02  0.8424485E-01
          1   -1    0    0  501    0  0.00000000000E+00  0.00000000000E+00  0.14771519124E+04  0.14771519124E+04  0.00000000000E+00 0. -1.
         -1   -1    0    0    0  501 -0.00000000000E+00 -0.00000000000E+00 -0.10080498838E+04  0.10080498838E+04  0.00000000000E+00 0.  1.
         23    2    1    2    0    0 -0.62665784846E+03 -0.39195078056E+01  0.12991054950E+04  0.14451916155E+04  0.90489208096E+02 0.  0.
         11    1    3    3    0    0 -0.78595936158E+02 -0.30676228886E+02  0.16522752138E+03  0.18552219819E+03  0.00000000000E+00 0. -1.
        -11    1    3    3    0    0 -0.54806191230E+03  0.26756721080E+02  0.11338779736E+04  0.12596694173E+04  0.00000000000E+00 0.  1.
         22    1    1    2    0    0  0.62665784846E+03  0.39195078056E+01 -0.83000346646E+03  0.10400101807E+04  0.00000000000E+00 0.  1.
<mgrwt>
<rscale>  0 0.24405268E+04</rscale>
<asrwt>0</asrwt>
<pdfrwt beam="1">  1        1 0.22725414E+00 0.24405268E+04</pdfrwt>
<pdfrwt beam="2">  1       -1 0.15508460E+00 0.24405268E+04</pdfrwt>
<totfact> 0.19308309E+00</totfact>
</mgrwt>
</event>
<event>
 6    1  0.8968082E-007  0.3927534E+04  0.7818608E-02  0.8019327E-01
         -1   -1    0    0    0  501 -0.00000000000E+00  0.00000000000E+00  0.13740262897E+04  0.13740262897E+04  0.00000000000E+00 0.  1.
          1   -1    0    0  501    0  0.00000000000E+00 -0.00000000000E+00 -0.28066277973E+04  0.28066277973E+04  0.00000000000E+00 0. -1.
         23    2    1    2    0    0  0.60655445932E+03 -0.15305998480E+04  0.42063695798E+03  0.17017153994E+04  0.90860571346E+02 0.  0.
         13    1    3    3    0    0  0.47909348065E+03 -0.11454695585E+04  0.28443797866E+03  0.12737880657E+04  0.00000000000E+00 0.  1.
        -13    1    3    3    0    0  0.12746097866E+03 -0.38513028948E+03  0.13619897933E+03  0.42792733370E+03  0.00000000000E+00 0. -1.
         22    1    1    2    0    0 -0.60655445932E+03  0.15305998480E+04 -0.18532384655E+04  0.24789386876E+04  0.00000000000E+00 0. -1.
<mgrwt>
<rscale>  0 0.39275338E+04</rscale>
<asrwt>0</asrwt>
<pdfrwt beam="1">  1        1 0.43178889E+00 0.39275338E+04</pdfrwt>
<pdfrwt beam="2">  1       -1 0.21138866E+00 0.39275338E+04</pdfrwt>
<totfact> 0.81622268E-02</totfact>
</mgrwt>
</event>
<event>
 6    1  0.8968082E-007  0.2648823E+04  0.7818608E-02  0.8351804E-01
          2   -1    0    0  501    0  0.00000000000E+00  0.00000000000E+00  0.18556585535E+04  0.18556585535E+04  0.00000000000E+00 0. -1.
         -2   -1    0    0    0  501 -0.00000000000E+00 -0.00000000000E+00 -0.94525255387E+03  0.94525255387E+03  0.00000000000E+00 0.  1.
         23    2    1    2    0    0  0.75615324941E+03  0.48775386271E+02 -0.69064155353E+03  0.10296121370E+04  0.94702810329E+02 0.  0.
         13    1    3    3    0    0  0.35748244781E+03  0.46944346229E+01 -0.38449555518E+03  0.52502625664E+03  0.00000000000E+00 0.  1.
        -13    1    3    3    0    0  0.39867080160E+03  0.44080951648E+02 -0.30614599835E+03  0.50458588036E+03  0.00000000000E+00 0. -1.
         22    1    1    2    0    0 -0.75615324941E+03 -0.48775386271E+02  0.16010475531E+04  0.17712989703E+04  0.00000000000E+00 0. -1.
<mgrwt>
<rscale>  0 0.26488231E+04</rscale>
<asrwt>0</asrwt>
<pdfrwt beam="1">  1        2 0.28548593E+00 0.26488231E+04</pdfrwt>
<pdfrwt beam="2">  1       -2 0.14542347E+00 0.26488231E+04</pdfrwt>
<totfact> 0.23024962E+00</totfact>
</mgrwt>
</event>
<event>
 6    1  0.8968082E-007  0.2115152E+04  0.7818608E-02  0.8554598E-01
          1   -1    0    0  501    0  0.00000000000E+00  0.00000000000E+00  0.67652276594E+03  0.67652276594E+03  0.00000000000E+00 0. -1.
         -1   -1    0    0    0  501 -0.00000000000E+00 -0.00000000000E+00 -0.16532587266E+04  0.16532587266E+04  0.00000000000E+00 0.  1.
         23    2    1    2    0    0 -0.83121819258E+03 -0.59685580044E+03 -0.20388729425E+03  0.10474182089E+04  0.91402107713E+02 0.  0.
         11    1    3    3    0    0 -0.47276372067E+03 -0.36709576979E+03 -0.15885999005E+03  0.61927484707E+03  0.00000000000E+00 0. -1.
        -11    1    3    3    0    0 -0.35845447192E+03 -0.22976003065E+03 -0.45027304209E+02  0.42814336179E+03  0.00000000000E+00 0.  1.
         22    1    1    2    0    0  0.83121819258E+03  0.59685580044E+03 -0.77284866646E+03  0.12823632837E+04  0.00000000000E+00 0.  1.
<mgrwt>
<rscale>  0 0.21151522E+04</rscale>
<asrwt>0</asrwt>
<pdfrwt beam="1">  1        1 0.10408043E+00 0.21151522E+04</pdfrwt>
<pdfrwt beam="2">  1       -1 0.25434750E+00 0.21151522E+04</pdfrwt>
<totfact> 0.17208323E+00</totfact>
</mgrwt>
</event>
<event>
 6    1  0.8968082E-007  0.5279078E+04  0.7818608E-02  0.7786842E-01
          2   -1    0    0  501    0  0.00000000000E+00  0.00000000000E+00  0.17432990005E+04  0.17432990005E+04  0.00000000000E+00 0. -1.
         -2   -1    0    0    0  501 -0.00000000000E+00 -0.00000000000E+00 -0.39965410825E+04  0.39965410825E+04  0.00000000000E+00 0.  1.
         23    2    1    2    0    0  0.48100536930E+03  0.25030221895E+04 -0.18696392659E+04  0.31623146482E+04  0.90535646491E+02 0.  0.
         13    1    3    3    0    0  0.38877998055E+03  0.20950527841E+04 -0.16002290685E+04  0.26647943848E+04  0.00000000000E+00 0.  1.
        -13    1    3    3    0    0  0.92225388748E+02  0.40796940538E+03 -0.26941019741E+03  0.49752026343E+03  0.00000000000E+00 0. -1.
         22    1    1    2    0    0 -0.48100536930E+03 -0.25030221895E+04 -0.38360281604E+03  0.25775254348E+04  0.00000000000E+00 0. -1.
<mgrwt>
<rscale>  0 0.52790780E+04</rscale>
<asrwt>0</asrwt>
<pdfrwt beam="1">  1        2 0.26819985E+00 0.52790780E+04</pdfrwt>
<pdfrwt beam="2">  1       -2 0.61485247E+00 0.52790780E+04</pdfrwt>
<totfact> 0.29849232E-03</totfact>
</mgrwt>
</event>
<event>
 6    1  0.8968082E-007  0.8450315E+03  0.7818608E-02  0.9497030E-01
          1   -1    0    0  501    0  0.00000000000E+00  0.00000000000E+00  0.11640735623E+04  0.11640735623E+04  0.00000000000E+00 0. -1.
         -1   -1    0    0    0  501 -0.00000000000E+00 -0.00000000000E+00 -0.15335761466E+03  0.15335761466E+03  0.00000000000E+00 0.  1.
         23    2    1    2    0    0  0.28420409183E+03  0.27016759145E+03  0.28653639915E+03  0.49390308896E+03  0.89859111753E+02 0.  0.
         13    1    3    3    0    0  0.24132270400E+03  0.17648684618E+03  0.22117736402E+03  0.37189202827E+03  0.00000000000E+00 0.  1.
        -13    1    3    3    0    0  0.42881387837E+02  0.93680745274E+02  0.65359035127E+02  0.12201106069E+03  0.00000000000E+00 0. -1.
         22    1    1    2    0    0 -0.28420409183E+03 -0.27016759145E+03  0.72417954854E+03  0.82352808805E+03  0.00000000000E+00 0. -1.
<mgrwt>
<rscale>  0 0.84503147E+03</rscale>
<asrwt>0</asrwt>
<pdfrwt beam="1">  1        1 0.17908823E+00 0.84503147E+03</pdfrwt>
<pdfrwt beam="2">  1       -1 0.23593480E-01 0.84503147E+03</pdfrwt>
<totfact> 0.17721497E+02</totfact>
</mgrwt>
</event>
<event>
 6    1  0.8968082E-007  0.2251633E+04  0.7818608E-02  0.8497240E-01
          2   -1    0    0  501    0  0.00000000000E+00  0.00000000000E+00  0.75469017334E+03  0.75469017334E+03  0.00000000000E+00 0. -1.
         -2   -1    0    0    0  501 -0.00000000000E+00 -0.00000000000E+00 -0.16794473091E+04  0.16794473091E+04  0.00000000000E+00 0.  1.
         23    2    1    2    0    0 -0.67989837506E+02 -0.62032381131E+03  0.54745089629E+03  0.83513131031E+03  0.91200727696E+02 0.  0.
         13    1    3    3    0    0 -0.55323313034E+01 -0.18465099465E+03  0.21559038289E+03  0.28391162307E+03  0.00000000000E+00 0.  1.
        -13    1    3    3    0    0 -0.62457506202E+02 -0.43567281666E+03  0.33186051339E+03  0.55121968725E+03  0.00000000000E+00 0. -1.
         22    1    1    2    0    0  0.67989837506E+02  0.62032381131E+03 -0.14722080320E+04  0.15990061721E+04  0.00000000000E+00 0.  1.
<mgrwt>
<rscale>  0 0.22516326E+04</rscale>
<asrwt>0</asrwt>
<pdfrwt beam="1">  1        2 0.11610618E+00 0.22516326E+04</pdfrwt>
<pdfrwt beam="2">  1       -2 0.25837651E+00 0.22516326E+04</pdfrwt>
<totfact> 0.19324669E+00</totfact>
</mgrwt>
</event>
<event>
 6    1  0.8968082E-007  0.7499340E+03  0.7818608E-02  0.9635454E-01
          2   -1    0    0  501    0  0.00000000000E+00  0.00000000000E+00  0.46669345744E+03  0.46669345744E+03  0.00000000000E+00 0. -1.
         -2   -1    0    0    0  501 -0.00000000000E+00 -0.00000000000E+00 -0.30126892892E+03  0.30126892892E+03  0.00000000000E+00 0.  1.
         23    2    1    2    0    0 -0.69643611308E+02 -0.35916417245E+03  0.29562347245E+02  0.37769623658E+03  0.89058292066E+02 0.  0.
         13    1    3    3    0    0 -0.56821235487E+02 -0.23106573047E+03 -0.22110207812E+02  0.23897465532E+03  0.00000000000E+00 0.  1.
        -13    1    3    3    0    0 -0.12822375821E+02 -0.12809844198E+03  0.51672555057E+02  0.13872158125E+03  0.00000000000E+00 0. -1.
         22    1    1    2    0    0  0.69643611308E+02  0.35916417245E+03  0.13586218127E+03  0.39026614978E+03  0.00000000000E+00 0. -1.
<mgrwt>
<rscale>  0 0.74993397E+03</rscale>
<asrwt>0</asrwt>
<pdfrwt beam="1">  1        2 0.71798994E-01 0.74993397E+03</pdfrwt>
<pdfrwt beam="2">  1       -2 0.46349066E-01 0.74993397E+03</pdfrwt>
<totfact> 0.29673354E+02</totfact>
</mgrwt>
</event>
<event>
 6    1  0.8968082E-007  0.2115871E+04  0.7818608E-02  0.8554284E-01
         -2   -1    0    0    0  501 -0.00000000000E+00  0.00000000000E+00  0.91354117514E+03  0.91354117514E+03  0.00000000000E+00 0.  1.
          2   -1    0    0  501    0  0.00000000000E+00 -0.00000000000E+00 -0.12251527482E+04  0.12251527482E+04  0.00000000000E+00 0. -1.
         23    2    1    2    0    0 -0.69510181372E+03 -0.74048698378E+03  0.13653358453E+03  0.10285941140E+04  0.88752053304E+02 0.  0.
         13    1    3    3    0    0 -0.35221613017E+03 -0.40719716690E+03  0.33431515678E+02  0.53942877317E+03  0.00000000000E+00 0.  1.
        -13    1    3    3    0    0 -0.34288568355E+03 -0.33328981688E+03  0.10310206885E+03  0.48916534078E+03  0.00000000000E+00 0. -1.
         22    1    1    2    0    0  0.69510181372E+03  0.74048698378E+03 -0.44814515764E+03  0.11100998094E+04  0.00000000000E+00 0. -1.
<mgrwt>
<rscale>  0 0.21158710E+04</rscale>
<asrwt>0</asrwt>
<pdfrwt beam="1">  1        2 0.18848504E+00 0.21158710E+04</pdfrwt>
<pdfrwt beam="2">  1       -2 0.14054480E+00 0.21158710E+04</pdfrwt>
<totfact> 0.59883050E+00</totfact>
</mgrwt>
</event>
<event>
 6    1  0.8968082E-007  0.5537888E+04  0.7818608E-02  0.7750497E-01
         -1   -1    0    0    0  501 -0.00000000000E+00  0.00000000000E+00  0.23224688252E+04  0.23224688252E+04  0.00000000000E+00 0.  1.
          1   -1    0    0  501    0  0.00000000000E+00 -0.00000000000E+00 -0.33012500861E+04  0.33012500861E+04  0.00000000000E+00 0. -1.
         23    2    1    2    0    0  0.73740502981E+03 -0.12172509663E+04  0.19217523363E+04  0.23928426771E+04  0.84249287251E+02 0.  0.
         11    1    3    3    0    0  0.36624994283E+03 -0.53025379260E+03  0.84112547197E+03  0.10596226521E+04  0.00000000000E+00 0. -1.
        -11    1    3    3    0    0  0.37115508698E+03 -0.68699717367E+03  0.10806268643E+04  0.13332200250E+04  0.00000000000E+00 0.  1.
         22    1    1    2    0    0 -0.73740502981E+03  0.12172509663E+04 -0.29005335971E+04  0.32308762342E+04  0.00000000000E+00 0. -1.
<mgrwt>
<rscale>  0 0.55378878E+04</rscale>
<asrwt>0</asrwt>
<pdfrwt beam="1">  1        1 0.50788463E+00 0.55378878E+04</pdfrwt>
<pdfrwt beam="2">  1       -1 0.35730289E+00 0.55378878E+04</pdfrwt>
<totfact> 0.34253970E-03</totfact>
</mgrwt>
</event>
<event>
 6    1  0.8968082E-007  0.3271540E+04  0.7818608E-02  0.8170175E-01
         -1   -1    0    0    0  501 -0.00000000000E+00  0.00000000000E+00  0.18276480853E+04  0.18276480853E+04  0.00000000000E+00 0.  1.
          1   -1    0    0  501    0  0.00000000000E+00 -0.00000000000E+00 -0.14640361354E+04  0.14640361354E+04  0.00000000000E+00 0. -1.
         23    2    1    2    0    0 -0.11349867328E+03 -0.10162414181E+04  0.14649933109E+04  0.17887971752E+04  0.89226477691E+02 0.  0.
         11    1    3    3    0    0 -0.77010629586E+02 -0.56096354708E+03  0.73717010651E+03  0.92953241157E+03  0.00000000000E+00 0.  1.
        -11    1    3    3    0    0 -0.36488043693E+02 -0.45527787106E+03  0.72782320441E+03  0.85926476367E+03  0.00000000000E+00 0. -1.
         22    1    1    2    0    0  0.11349867328E+03  0.10162414181E+04 -0.11013813610E+04  0.15028870454E+04  0.00000000000E+00 0. -1.
<mgrwt>
<rscale>  0 0.32715396E+04</rscale>
<asrwt>0</asrwt>
<pdfrwt beam="1">  1        1 0.22523633E+00 0.32715396E+04</pdfrwt>
<pdfrwt beam="2">  1       -1 0.28117663E+00 0.32715396E+04</pdfrwt>
<totfact> 0.25199425E-01</totfact>
</mgrwt>
</event>
<event>
 6    1  0.8968082E-007  0.1440443E+04  0.7818608E-02  0.8925053E-01
          2   -1    0    0  501    0  0.00000000000E+00  0.00000000000E+00  0.34916606801E+04  0.34916606801E+04  0.00000000000E+00 0. -1.
         -2   -1    0    0    0  501 -0.00000000000E+00 -0.00000000000E+00 -0.14855948212E+03  0.14855948212E+03  0.00000000000E+00 0.  1.
         23    2    1    2    0    0 -0.42220691631E+03 -0.57737373716E+03  0.15340061811E+04  0.16948554426E+04  0.87982355490E+02 0.  0.
         13    1    3    3    0    0 -0.35002781703E+03 -0.41926961091E+03  0.11947059728E+04  0.13136319274E+04  0.00000000000E+00 0. -1.
        -13    1    3    3    0    0 -0.72179099278E+02 -0.15810412625E+03  0.33930020832E+03  0.38122351511E+03  0.00000000000E+00 0.  1.
         22    1    1    2    0    0  0.42220691631E+03  0.57737373716E+03  0.18090950168E+04  0.19453647196E+04  0.00000000000E+00 0. -1.
<mgrwt>
<rscale>  0 0.14404434E+04</rscale>
<asrwt>0</asrwt>
<pdfrwt beam="1">  1        2 0.53717851E+00 0.14404434E+04</pdfrwt>
<pdfrwt beam="2">  1       -2 0.22855308E-01 0.14404434E+04</pdfrwt>
<totfact> 0.13701023E+01</totfact>
</mgrwt>
</event>
<event>
 6    1  0.8968082E-007  0.8306371E+03  0.7818608E-02  0.9516700E-01
         -1   -1    0    0    0  501 -0.00000000000E+00  0.00000000000E+00  0.11745172753E+03  0.11745172753E+03  0.00000000000E+00 0.  1.
          1   -1    0    0  501    0  0.00000000000E+00 -0.00000000000E+00 -0.14685989367E+04  0.14685989367E+04  0.00000000000E+00 0. -1.
         23    2    1    2    0    0 -0.34586178103E+03  0.19619968672E+03 -0.87844062735E+03  0.96834021333E+03  0.88938992198E+02 0.  0.
         13    1    3    3    0    0 -0.18328814726E+03  0.88236771685E+02 -0.54846258100E+03  0.58497134593E+03  0.00000000000E+00 0.  1.
        -13    1    3    3    0    0 -0.16257363377E+03  0.10796291504E+03 -0.32997804635E+03  0.38336886741E+03  0.00000000000E+00 0. -1.
         22    1    1    2    0    0  0.34586178103E+03 -0.19619968672E+03 -0.47270658183E+03  0.61771045090E+03  0.00000000000E+00 0.  1.
<mgrwt>
<rscale>  0 0.83063706E+03</rscale>
<asrwt>0</asrwt>
<pdfrwt beam="1">  1        1 0.22593830E+00 0.83063706E+03</pdfrwt>
<pdfrwt beam="2">  1       -1 0.18069496E-01 0.83063706E+03</pdfrwt>
<totfact> 0.16875800E+02</totfact>
</mgrwt>
</event>
<event>
 6    1  0.8968082E-007  0.1592584E+04  0.7818608E-02  0.8825117E-01
          2   -1    0    0  501    0  0.00000000000E+00  0.00000000000E+00  0.15777813461E+04  0.15777813461E+04  0.00000000000E+00 0. -1.
         -2   -1    0    0    0  501 -0.00000000000E+00 -0.00000000000E+00 -0.40188126705E+03  0.40188126705E+03  0.00000000000E+00 0.  1.
         23    2    1    2    0    0 -0.79370430449E+03  0.15015511969E+02  0.57572140036E+03  0.98447095576E+03  0.86809811270E+02 0.  0.
         11    1    3    3    0    0 -0.58377520579E+03  0.45895411100E+02  0.44195894689E+03  0.73363995965E+03  0.00000000000E+00 0.  1.
        -11    1    3    3    0    0 -0.20992909870E+03 -0.30879899131E+02  0.13376245346E+03  0.25083099611E+03  0.00000000000E+00 0. -1.
         22    1    1    2    0    0  0.79370430449E+03 -0.15015511969E+02  0.60017867866E+03  0.99519165737E+03  0.00000000000E+00 0.  1.
<mgrwt>
<rscale>  0 0.15925838E+04</rscale>
<asrwt>0</asrwt>
<pdfrwt beam="1">  1        2 0.24273559E+00 0.15925838E+04</pdfrwt>
<pdfrwt beam="2">  1       -2 0.61827888E-01 0.15925838E+04</pdfrwt>
<totfact> 0.26754272E+01</totfact>
</mgrwt>
</event>
<event>
 6    1  0.8968082E-007  0.1946732E+04  0.7818608E-02  0.8631938E-01
         -2   -1    0    0    0  501 -0.00000000000E+00  0.00000000000E+00  0.35660728619E+03  0.35660728619E+03  0.00000000000E+00 0.  1.
          2   -1    0    0  501    0  0.00000000000E+00 -0.00000000000E+00 -0.26568209192E+04  0.26568209192E+04  0.00000000000E+00 0. -1.
         23    2    1    2    0    0 -0.91644646061E+03 -0.30805830869E+03 -0.10096076457E+04  0.14008408896E+04  0.90959127678E+02 0.  0.
         13    1    3    3    0    0 -0.61613792831E+03 -0.23592763757E+03 -0.63997827339E+03  0.91916265551E+03  0.00000000000E+00 0. -1.
        -13    1    3    3    0    0 -0.30030853230E+03 -0.72130671122E+02 -0.36962937235E+03  0.48167823408E+03  0.00000000000E+00 0.  1.
         22    1    1    2    0    0  0.91644646061E+03  0.30805830869E+03 -0.12906059873E+04  0.16125873158E+04  0.00000000000E+00 0. -1.
<mgrwt>
<rscale>  0 0.19467323E+04</rscale>
<asrwt>0</asrwt>
<pdfrwt beam="1">  1        2 0.40874167E+00 0.19467323E+04</pdfrwt>
<pdfrwt beam="2">  1       -2 0.54862661E-01 0.19467323E+04</pdfrwt>
<totfact> 0.82246009E+00</totfact>
</mgrwt>
</event>
<event>
 6    1  0.9702497E-007  0.3194450E+04  0.7818608E-02  0.8190284E-01
          1   -1    0    0  501    0  0.00000000000E+00  0.00000000000E+00  0.20802511958E+04  0.20802511958E+04  0.00000000000E+00 0. -1.
         -1   -1    0    0    0  501 -0.00000000000E+00 -0.00000000000E+00 -0.12263559636E+04  0.12263559636E+04  0.00000000000E+00 0.  1.
         23    2    1    2    0    0  0.49227300338E+03 -0.92589051165E+03  0.16727512143E+04  0.19761444321E+04  0.86280023041E+02 0.  0.
         11    1    3    3    0    0  0.15890473969E+03 -0.38578626430E+03  0.68380780421E+03  0.80104611048E+03  0.00000000000E+00 0. -1.
        -11    1    3    3    0    0  0.33336826369E+03 -0.54010424735E+03  0.98894341006E+03  0.11750983216E+04  0.00000000000E+00 0.  1.
         22    1    1    2    0    0 -0.49227300338E+03  0.92589051165E+03 -0.81885598208E+03  0.13304627273E+04  0.00000000000E+00 0.  1.
<mgrwt>
<rscale>  0 0.31944505E+04</rscale>
<asrwt>0</asrwt>
<pdfrwt beam="1">  1        1 0.32003864E+00 0.31944505E+04</pdfrwt>
<pdfrwt beam="2">  1       -1 0.18867015E+00 0.31944505E+04</pdfrwt>
<totfact> 0.39723477E-01</totfact>
</mgrwt>
</event>
<event>
 6    1  0.8968082E-007  0.1558093E+04  0.7818608E-02  0.8846715E-01
         -1   -1    0    0    0  501 -0.00000000000E+00  0.00000000000E+00  0.35677557827E+03  0.35677557827E+03  0.00000000000E+00 0.  1.
          1   -1    0    0  501    0  0.00000000000E+00 -0.00000000000E+00 -0.17011064125E+04  0.17011064125E+04  0.00000000000E+00 0. -1.
         23    2    1    2    0    0 -0.33489430238E+03  0.34439674682E+03  0.13116718862E+03  0.50615465376E+03  0.90688418036E+02 0.  0.
         13    1    3    3    0    0 -0.96826080550E+02  0.15317307072E+03  0.72702687148E+02  0.19525101840E+03  0.00000000000E+00 0.  1.
        -13    1    3    3    0    0 -0.23806822183E+03  0.19122367610E+03  0.58464501470E+02  0.31090363535E+03  0.00000000000E+00 0. -1.
         22    1    1    2    0    0  0.33489430238E+03 -0.34439674682E+03 -0.14754980229E+04  0.15517273370E+04  0.00000000000E+00 0. -1.
<mgrwt>
<rscale>  0 0.15580927E+04</rscale>
<asrwt>0</asrwt>
<pdfrwt beam="1">  1        1 0.26170868E+00 0.15580927E+04</pdfrwt>
<pdfrwt beam="2">  1       -1 0.54888551E-01 0.15580927E+04</pdfrwt>
<totfact> 0.15365813E+01</totfact>
</mgrwt>
</event>
<event>
 6    1  0.8968082E-007  0.1822957E+04  0.7818608E-02  0.8694186E-01
         -2   -1    0    0    0  501 -0.00000000000E+00  0.00000000000E+00  0.11325476150E+04  0.11325476150E+04  0.00000000000E+00 0.  1.
          2   -1    0    0  501    0  0.00000000000E+00 -0.00000000000E+00 -0.73356086358E+03  0.73356086358E+03  0.00000000000E+00 0. -1.
         23    2    1    2    0    0  0.43590749233E+01 -0.38398339689E+03 -0.64367200768E+03  0.75498313076E+03  0.90684197341E+02 0.  0.
         13    1    3    3    0    0 -0.41445362911E+02 -0.23717274718E+03 -0.39583171879E+03  0.46330484534E+03  0.00000000000E+00 0.  1.
        -13    1    3    3    0    0  0.45804437834E+02 -0.14681064971E+03 -0.24784028888E+03  0.29167828542E+03  0.00000000000E+00 0. -1.
         22    1    1    2    0    0 -0.43590749233E+01  0.38398339689E+03  0.10426587591E+04  0.11111253478E+04  0.00000000000E+00 0.  1.
<mgrwt>
<rscale>  0 0.18229565E+04</rscale>
<asrwt>0</asrwt>
<pdfrwt beam="1">  1        2 0.11285552E+00 0.18229565E+04</pdfrwt>
<pdfrwt beam="2">  1       -2 0.17423809E+00 0.18229565E+04</pdfrwt>
<totfact> 0.72292716E+00</totfact>
</mgrwt>
</event>
<event>
 6    1  0.8968082E-007  0.2706033E+04  0.7818608E-02  0.8333050E-01
          2   -1    0    0  501    0  0.00000000000E+00  0.00000000000E+00  0.95734576657E+03  0.95734576657E+03  0.00000000000E+00 0. -1.
         -2   -1    0    0    0  501 -0.00000000000E+00 -0.00000000000E+00 -0.19122182042E+04  0.19122182042E+04  0.00000000000E+00 0.  1.
         23    2    1    2    0    0 -0.77551426492E+03 -0.15171595001E+03 -0.16405597033E+04  0.18233292309E+04  0.93022791587E+02 0.  0.
         13    1    3    3    0    0 -0.16614057442E+03  0.49087338746E+01 -0.36277591389E+03  0.39904028599E+03  0.00000000000E+00 0. -1.
        -13    1    3    3    0    0 -0.60937369049E+03 -0.15662468389E+03 -0.12777837894E+04  0.14242889449E+04  0.00000000000E+00 0.  1.
         22    1    1    2    0    0  0.77551426492E+03  0.15171595001E+03  0.68568726564E+03  0.10462347398E+04  0.00000000000E+00 0. -1.
<mgrwt>
<rscale>  0 0.27060333E+04</rscale>
<asrwt>0</asrwt>
<pdfrwt beam="1">  1        2 0.14728397E+00 0.27060333E+04</pdfrwt>
<pdfrwt beam="2">  1       -2 0.29418741E+00 0.27060333E+04</pdfrwt>
<totfact> 0.81215094E-01</totfact>
</mgrwt>
</event>
<event>
 6    1  0.8968082E-007  0.2989854E+04  0.7818608E-02  0.8246634E-01
         -1   -1    0    0    0  501 -0.00000000000E+00  0.00000000000E+00  0.10735020784E+04  0.10735020784E+04  0.00000000000E+00 0.  1.
          1   -1    0    0  501    0  0.00000000000E+00 -0.00000000000E+00 -0.20817913646E+04  0.20817913646E+04  0.00000000000E+00 0. -1.
         23    2    1    2    0    0 -0.13983951208E+04  0.52012361215E+03 -0.43382162383E+03  0.15565281128E+04  0.92417957283E+02 0.  0.
         13    1    3    3    0    0 -0.12844109016E+04  0.47740601926E+03 -0.37127695430E+03  0.14196740640E+04  0.00000000000E+00 0.  1.
        -13    1    3    3    0    0 -0.11398421924E+03  0.42717592893E+02 -0.62544669533E+02  0.13685404877E+03  0.00000000000E+00 0. -1.
         22    1    1    2    0    0  0.13983951208E+04 -0.52012361215E+03 -0.57446766238E+03  0.15987653302E+04  0.00000000000E+00 0.  1.
<mgrwt>
<rscale>  0 0.29898544E+04</rscale>
<asrwt>0</asrwt>
<pdfrwt beam="1">  1        1 0.32027559E+00 0.29898544E+04</pdfrwt>
<pdfrwt beam="2">  1       -1 0.16515417E+00 0.29898544E+04</pdfrwt>
<totfact> 0.59692867E-01</totfact>
</mgrwt>
</event>
<event>
 6    1  0.8968082E-007  0.7774638E+03  0.7818608E-02  0.9593223E-01
          1   -1    0    0  501    0  0.00000000000E+00  0.00000000000E+00  0.24077646144E+03  0.24077646144E+03  0.00000000000E+00 0. -1.
         -1   -1    0    0    0  501 -0.00000000000E+00 -0.00000000000E+00 -0.62760485909E+03  0.62760485909E+03  0.00000000000E+00 0.  1.
         23    2    1    2    0    0  0.26979971843E+03 -0.17019229716E+03 -0.43365536505E+03  0.54596843160E+03  0.90924400381E+02 0.  0.
         13    1    3    3    0    0  0.82784707372E+02 -0.10524226528E+02 -0.83134379880E+02  0.11779385483E+03  0.00000000000E+00 0. -1.
        -13    1    3    3    0    0  0.18701501106E+03 -0.15966807063E+03 -0.35052098517E+03  0.42817457676E+03  0.00000000000E+00 0.  1.
         22    1    1    2    0    0 -0.26979971843E+03  0.17019229716E+03  0.46826967400E+02  0.32241288894E+03  0.00000000000E+00 0. -1.
<mgrwt>
<rscale>  0 0.77746377E+03</rscale>
<asrwt>0</asrwt>
<pdfrwt beam="1">  1        1 0.37042533E-01 0.77746377E+03</pdfrwt>
<pdfrwt beam="2">  1       -1 0.96554591E-01 0.77746377E+03</pdfrwt>
<totfact> 0.12218126E+02</totfact>
</mgrwt>
</event>
<event>
 6    1  0.8968082E-007  0.1874550E+04  0.7818608E-02  0.8667629E-01
          1   -1    0    0  501    0  0.00000000000E+00  0.00000000000E+00  0.15674204666E+04  0.15674204666E+04  0.00000000000E+00 0. -1.
         -1   -1    0    0    0  501 -0.00000000000E+00 -0.00000000000E+00 -0.56046491744E+03  0.56046491744E+03  0.00000000000E+00 0.  1.
         23    2    1    2    0    0 -0.27249024171E+03 -0.89273982492E+03  0.56797926250E+03  0.10964128894E+04  0.91024473018E+02 0.  0.
         11    1    3    3    0    0 -0.73373584032E+02 -0.36904358728E+03  0.25651244848E+03  0.45538498918E+03  0.00000000000E+00 0. -1.
        -11    1    3    3    0    0 -0.19911665768E+03 -0.52369623764E+03  0.31146681402E+03  0.64102790027E+03  0.00000000000E+00 0.  1.
         22    1    1    2    0    0  0.27249024171E+03  0.89273982492E+03  0.43897628663E+03  0.10314724946E+04  0.00000000000E+00 0.  1.
<mgrwt>
<rscale>  0 0.18745497E+04</rscale>
<asrwt>0</asrwt>
<pdfrwt beam="1">  1        1 0.24114161E+00 0.18745497E+04</pdfrwt>
<pdfrwt beam="2">  1       -1 0.86225372E-01 0.18745497E+04</pdfrwt>
<totfact> 0.73110050E+00</totfact>
</mgrwt>
</event>
<event>
 6    1  0.8968082E-007  0.2399638E+04  0.7818608E-02  0.8439639E-01
         -2   -1    0    0    0  501 -0.00000000000E+00  0.00000000000E+00  0.19085833145E+04  0.19085833145E+04  0.00000000000E+00 0.  1.
          2   -1    0    0  501    0  0.00000000000E+00 -0.00000000000E+00 -0.75425902947E+03  0.75425902947E+03  0.00000000000E+00 0. -1.
         23    2    1    2    0    0 -0.60671799658E+03 -0.50375585493E+03  0.15788695709E+04  0.17672333955E+04  0.91695493284E+02 0.  0.
         11    1    3    3    0    0 -0.38770687477E+03 -0.35283381262E+03  0.96437634762E+03  0.10976475117E+04  0.00000000000E+00 0. -1.
        -11    1    3    3    0    0 -0.21901112181E+03 -0.15092204231E+03  0.61449322331E+03  0.66958588383E+03  0.00000000000E+00 0.  1.
         22    1    1    2    0    0  0.60671799658E+03  0.50375585493E+03 -0.42454528590E+03  0.89560894844E+03  0.00000000000E+00 0. -1.
<mgrwt>
<rscale>  0 0.23996385E+04</rscale>
<asrwt>0</asrwt>
<pdfrwt beam="1">  1        2 0.11603985E+00 0.23996385E+04</pdfrwt>
<pdfrwt beam="2">  1       -2 0.29362820E+00 0.23996385E+04</pdfrwt>
<totfact> 0.11641030E+00</totfact>
</mgrwt>
</event>
<event>
 6    1  0.8968082E-007  0.2090684E+04  0.7818608E-02  0.8565358E-01
          2   -1    0    0  501    0  0.00000000000E+00  0.00000000000E+00  0.27101723680E+04  0.27101723680E+04  0.00000000000E+00 0. -1.
         -2   -1    0    0    0  501 -0.00000000000E+00 -0.00000000000E+00 -0.40319945861E+03  0.40319945861E+03  0.00000000000E+00 0.  1.
         23    2    1    2    0    0  0.10955912627E+03  0.95233393353E+03  0.17684999242E+04  0.20138736325E+04  0.95665576708E+02 0.  0.
         11    1    3    3    0    0  0.11993806410E+03  0.78611869055E+03  0.14160571302E+04  0.16240645094E+04  0.00000000000E+00 0. -1.
        -11    1    3    3    0    0 -0.10378937832E+02  0.16621524298E+03  0.35244279408E+03  0.38980912310E+03  0.00000000000E+00 0.  1.
         22    1    1    2    0    0 -0.10955912627E+03 -0.95233393353E+03  0.53847298516E+03  0.10994981941E+04  0.00000000000E+00 0.  1.
<mgrwt>
<rscale>  0 0.20906841E+04</rscale>
<asrwt>0</asrwt>
<pdfrwt beam="1">  1        2 0.41694958E+00 0.20906841E+04</pdfrwt>
<pdfrwt beam="2">  1       -2 0.62030687E-01 0.20906841E+04</pdfrwt>
<totfact> 0.58326446E+00</totfact>
</mgrwt>
</event>
<event>
 6    1  0.8968082E-007  0.6634649E+03  0.7818608E-02  0.9781836E-01
          3   -1    0    0  501    0  0.00000000000E+00  0.00000000000E+00  0.59375768289E+03  0.59375768289E+03  0.00000000000E+00 0. -1.
         -3   -1    0    0    0  501 -0.00000000000E+00 -0.00000000000E+00 -0.18533891500E+03  0.18533891500E+03  0.00000000000E+00 0.  1.
         23    2    1    2    0    0  0.16146391821E+03 -0.14395405918E+03 -0.80329328156E+02  0.24461734719E+03  0.81187915029E+02 0.  0.
         13    1    3    3    0    0  0.12303260179E+03 -0.62295008138E+02 -0.29454293992E+02  0.14101505088E+03  0.00000000000E+00 0. -1.
        -13    1    3    3    0    0  0.38431316427E+02 -0.81659051041E+02 -0.50875034165E+02  0.10360229631E+03  0.00000000000E+00 0.  1.
         22    1    1    2    0    0 -0.16146391821E+03  0.14395405918E+03  0.48874809605E+03  0.53447925070E+03  0.00000000000E+00 0. -1.
<mgrwt>
<rscale>  0 0.66346486E+03</rscale>
<asrwt>0</asrwt>
<pdfrwt beam="1">  1        3 0.91347335E-01 0.66346486E+03</pdfrwt>
<pdfrwt beam="2">  1       -3 0.28513679E-01 0.66346486E+03</pdfrwt>
<totfact> 0.33930387E+01</totfact>
</mgrwt>
</event>
<event>
 6    1  0.8968082E-007  0.1086594E+04  0.7818608E-02  0.9218358E-01
         -2   -1    0    0    0  501 -0.00000000000E+00  0.00000000000E+00  0.51203787970E+03  0.51203787970E+03  0.00000000000E+00 0.  1.
          2   -1    0    0  501    0  0.00000000000E+00 -0.00000000000E+00 -0.57646405552E+03  0.57646405552E+03  0.00000000000E+00 0. -1.
         23    2    1    2    0    0 -0.42490334484E+03 -0.11734325807E+03 -0.34398960973E+03  0.56651725513E+03  0.91107936466E+02 0.  0.
         13    1    3    3    0    0 -0.20591054638E+03 -0.19718985829E+02 -0.19470457390E+03  0.28407369222E+03  0.00000000000E+00 0. -1.
        -13    1    3    3    0    0 -0.21899279846E+03 -0.97624272243E+02 -0.14928503583E+03  0.28244356291E+03  0.00000000000E+00 0.  1.
         22    1    1    2    0    0  0.42490334484E+03  0.11734325807E+03  0.27956343391E+03  0.52198468009E+03  0.00000000000E+00 0.  1.
<mgrwt>
<rscale>  0 0.10865936E+04</rscale>
<asrwt>0</asrwt>
<pdfrwt beam="1">  1        2 0.88686777E-01 0.10865936E+04</pdfrwt>
<pdfrwt beam="2">  1       -2 0.78775059E-01 0.10865936E+04</pdfrwt>
<totfact> 0.74060292E+01</totfact>
</mgrwt>
</event>
<event>
 6    1  0.8968082E-007  0.5216733E+04  0.7818608E-02  0.7795917E-01
          2   -1    0    0  501    0  0.00000000000E+00  0.00000000000E+00  0.31136362170E+04  0.31136362170E+04  0.00000000000E+00 0. -1.
         -2   -1    0    0    0  501 -0.00000000000E+00 -0.00000000000E+00 -0.21850899426E+04  0.21850899426E+04  0.00000000000E+00 0.  1.
         23    2    1    2    0    0  0.12712979383E+04  0.45066040851E+03  0.27311269004E+04  0.30473731963E+04  0.90199776956E+02 0.  0.
         11    1    3    3    0    0  0.89823265920E+03  0.32858410729E+03  0.20238441145E+04  0.22384669811E+04  0.00000000000E+00 0.  1.
        -11    1    3    3    0    0  0.37306527913E+03  0.12207630122E+03  0.70728278584E+03  0.80890621518E+03  0.00000000000E+00 0. -1.
         22    1    1    2    0    0 -0.12712979383E+04 -0.45066040851E+03 -0.18025806260E+04  0.22513529632E+04  0.00000000000E+00 0.  1.
<mgrwt>
<rscale>  0 0.52167328E+04</rscale>
<asrwt>0</asrwt>
<pdfrwt beam="1">  1        2 0.47902095E+00 0.52167328E+04</pdfrwt>
<pdfrwt beam="2">  1       -2 0.33616769E+00 0.52167328E+04</pdfrwt>
<totfact> 0.20041331E-02</totfact>
</mgrwt>
</event>
<event>
 6    1  0.8968082E-007  0.1868120E+04  0.7818608E-02  0.8670890E-01
          1   -1    0    0  501    0  0.00000000000E+00  0.00000000000E+00  0.27689563696E+04  0.27689563696E+04  0.00000000000E+00 0. -1.
         -1   -1    0    0    0  501 -0.00000000000E+00 -0.00000000000E+00 -0.31508925742E+03  0.31508925742E+03  0.00000000000E+00 0.  1.
         23    2    1    2    0    0  0.40581036357E+03 -0.96647481199E+02  0.26057218939E+04  0.26401056969E+04  0.79678829922E+02 0.  0.
         13    1    3    3    0    0  0.27690241618E+03 -0.80057886171E+02  0.19942639388E+04  0.20149870646E+04  0.00000000000E+00 0. -1.
        -13    1    3    3    0    0  0.12890794739E+03 -0.16589595029E+02  0.61145795513E+03  0.62511863230E+03  0.00000000000E+00 0.  1.
         22    1    1    2    0    0 -0.40581036357E+03  0.96647481199E+02 -0.15185478169E+03  0.44393993009E+03  0.00000000000E+00 0.  1.
<mgrwt>
<rscale>  0 0.18681203E+04</rscale>
<asrwt>0</asrwt>
<pdfrwt beam="1">  1        1 0.42599327E+00 0.18681203E+04</pdfrwt>
<pdfrwt beam="2">  1       -1 0.48475272E-01 0.18681203E+04</pdfrwt>
<totfact> 0.35083727E+00</totfact>
</mgrwt>
</event>
<event>
 6    1  0.8968082E-007  0.4999118E+04  0.7818608E-02  0.7828643E-01
         -2   -1    0    0    0  501 -0.00000000000E+00  0.00000000000E+00  0.11804299773E+04  0.11804299773E+04  0.00000000000E+00 0.  1.
          2   -1    0    0  501    0  0.00000000000E+00 -0.00000000000E+00 -0.52928126914E+04  0.52928126914E+04  0.00000000000E+00 0. -1.
         23    2    1    2    0    0 -0.22582190739E+04 -0.28980282710E+03 -0.33902195770E+04  0.40847162065E+04  0.88196616292E+02 0.  0.
         11    1    3    3    0    0 -0.58572138293E+03 -0.36494137058E+02 -0.86618601233E+03  0.10462693575E+04  0.00000000000E+00 0. -1.
        -11    1    3    3    0    0 -0.16724976910E+04 -0.25330869004E+03 -0.25240335647E+04  0.30384468490E+04  0.00000000000E+00 0.  1.
         22    1    1    2    0    0  0.22582190739E+04  0.28980282710E+03 -0.72216313710E+03  0.23885264623E+04  0.00000000000E+00 0.  1.
<mgrwt>
<rscale>  0 0.49991178E+04</rscale>
<asrwt>0</asrwt>
<pdfrwt beam="1">  1        2 0.81427886E+00 0.49991178E+04</pdfrwt>
<pdfrwt beam="2">  1       -2 0.18160461E+00 0.49991178E+04</pdfrwt>
<totfact> 0.16825460E-03</totfact>
</mgrwt>
</event>
<event>
 6    1  0.8968082E-007  0.1891601E+04  0.7818608E-02  0.8659049E-01
          2   -1    0    0  501    0  0.00000000000E+00  0.00000000000E+00  0.15153122338E+04  0.15153122338E+04  0.00000000000E+00 0. -1.
         -2   -1    0    0    0  501 -0.00000000000E+00 -0.00000000000E+00 -0.59033269476E+03  0.59033269476E+03  0.00000000000E+00 0.  1.
         23    2    1    2    0    0  0.74149864073E+03  0.58131583493E+03  0.52402555053E+03  0.10816759666E+04  0.87588726511E+02 0.  0.
         13    1    3    3    0    0  0.48172514159E+03  0.41608260544E+03  0.38458353422E+03  0.74369909330E+03  0.00000000000E+00 0.  1.
        -13    1    3    3    0    0  0.25977349914E+03  0.16523322949E+03  0.13944201631E+03  0.33797687332E+03  0.00000000000E+00 0. -1.
         22    1    1    2    0    0 -0.74149864073E+03 -0.58131583493E+03  0.40095398854E+03  0.10239689620E+04  0.00000000000E+00 0. -1.
<mgrwt>
<rscale>  0 0.18916008E+04</rscale>
<asrwt>0</asrwt>
<pdfrwt beam="1">  1        2 0.23312496E+00 0.18916008E+04</pdfrwt>
<pdfrwt beam="2">  1       -2 0.90820415E-01 0.18916008E+04</pdfrwt>
<totfact> 0.12069266E+01</totfact>
</mgrwt>
</event>
<event>
 6    1  0.8968082E-007  0.2960959E+04  0.7818608E-02  0.8254968E-01
          1   -1    0    0  501    0  0.00000000000E+00  0.00000000000E+00  0.37186051495E+04  0.37186051495E+04  0.00000000000E+00 0. -1.
         -1   -1    0    0    0  501 -0.00000000000E+00 -0.00000000000E+00 -0.58941999127E+03  0.58941999127E+03  0.00000000000E+00 0.  1.
         23    2    1    2    0    0  0.14138952220E+04  0.18633106705E+03  0.21366063668E+04  0.25704890627E+04  0.92240389505E+02 0.  0.
         13    1    3    3    0    0  0.12424002292E+04  0.14360886267E+03  0.19114003667E+04  0.22842139122E+04  0.00000000000E+00 0. -1.
        -13    1    3    3    0    0  0.17149499280E+03  0.42722204379E+02  0.22520600017E+03  0.28627515054E+03  0.00000000000E+00 0.  1.
         22    1    1    2    0    0 -0.14138952220E+04 -0.18633106705E+03  0.99257879138E+03  0.17375360780E+04  0.00000000000E+00 0.  1.
<mgrwt>
<rscale>  0 0.29609594E+04</rscale>
<asrwt>0</asrwt>
<pdfrwt beam="1">  1        1 0.57209309E+00 0.29609594E+04</pdfrwt>
<pdfrwt beam="2">  1       -1 0.90680001E-01 0.29609594E+04</pdfrwt>
<totfact> 0.16884254E-01</totfact>
</mgrwt>
</event>
<event>
 6    1  0.8968082E-007  0.1756852E+04  0.7818608E-02  0.8729588E-01
         -2   -1    0    0    0  501 -0.00000000000E+00  0.00000000000E+00  0.27267351064E+03  0.27267351064E+03  0.00000000000E+00 0.  1.
          2   -1    0    0  501    0  0.00000000000E+00 -0.00000000000E+00 -0.28298760988E+04  0.28298760988E+04  0.00000000000E+00 0. -1.
         23    2    1    2    0    0  0.79869366429E+03  0.16869382283E+03 -0.18470771670E+04  0.20205850587E+04  0.68561967686E+02 0.  0.
         13    1    3    3    0    0  0.41172254136E+03  0.12118442653E+03 -0.98550271438E+03  0.10749031195E+04  0.00000000000E+00 0. -1.
        -13    1    3    3    0    0  0.38697112293E+03  0.47509396300E+02 -0.86157445264E+03  0.94568193922E+03  0.00000000000E+00 0.  1.
         22    1    1    2    0    0 -0.79869366429E+03 -0.16869382283E+03 -0.71012542117E+03  0.10819645507E+04  0.00000000000E+00 0.  1.
<mgrwt>
<rscale>  0 0.17568520E+04</rscale>
<asrwt>0</asrwt>
<pdfrwt beam="1">  1        2 0.43536554E+00 0.17568520E+04</pdfrwt>
<pdfrwt beam="2">  1       -2 0.41949772E-01 0.17568520E+04</pdfrwt>
<totfact> 0.11349263E+01</totfact>
</mgrwt>
</event>
<event>
 6    1  0.8968082E-007  0.1545051E+04  0.7818608E-02  0.8855035E-01
          1   -1    0    0  501    0  0.00000000000E+00  0.00000000000E+00  0.11607460246E+04  0.11607460246E+04  0.00000000000E+00 0. -1.
         -1   -1    0    0    0  501 -0.00000000000E+00 -0.00000000000E+00 -0.51414817089E+03  0.51414817089E+03  0.00000000000E+00 0.  1.
         23    2    1    2    0    0 -0.68994686896E+02 -0.48088673570E+03  0.97178586744E+03  0.10902921397E+04  0.91415853954E+02 0.  0.
         13    1    3    3    0    0 -0.71717654564E+02 -0.24948724173E+03  0.57647566454E+03  0.63222740969E+03  0.00000000000E+00 0. -1.
        -13    1    3    3    0    0  0.27229676678E+01 -0.23139949398E+03  0.39531020290E+03  0.45806473002E+03  0.00000000000E+00 0.  1.
         22    1    1    2    0    0  0.68994686896E+02  0.48088673570E+03 -0.32518801371E+03  0.58460205581E+03  0.00000000000E+00 0.  1.
<mgrwt>
<rscale>  0 0.15450507E+04</rscale>
<asrwt>0</asrwt>
<pdfrwt beam="1">  1        1 0.17857631E+00 0.15450507E+04</pdfrwt>
<pdfrwt beam="2">  1       -1 0.79099719E-01 0.15450507E+04</pdfrwt>
<totfact> 0.17591937E+01</totfact>
</mgrwt>
</event>
<event>
 6    1  0.8968082E-007  0.4413974E+04  0.7818608E-02  0.7925873E-01
         -1   -1    0    0    0  501 -0.00000000000E+00  0.00000000000E+00  0.22149165811E+04  0.22149165811E+04  0.00000000000E+00 0.  1.
          1   -1    0    0  501    0  0.00000000000E+00 -0.00000000000E+00 -0.21990861299E+04  0.21990861299E+04  0.00000000000E+00 0. -1.
         23    2    1    2    0    0 -0.11463126665E+04  0.51878575292E+03  0.18197816756E+04  0.22145911063E+04  0.98168398639E+02 0.  0.
         13    1    3    3    0    0 -0.23274718958E+03  0.12361815339E+03  0.31982234694E+03  0.41441408725E+03  0.00000000000E+00 0.  1.
        -13    1    3    3    0    0 -0.91356547691E+03  0.39516759953E+03  0.14999593287E+04  0.18001770191E+04  0.00000000000E+00 0. -1.
         22    1    1    2    0    0  0.11463126665E+04 -0.51878575292E+03 -0.18039512244E+04  0.21994116047E+04  0.00000000000E+00 0. -1.
<mgrwt>
<rscale>  0 0.44139743E+04</rscale>
<asrwt>0</asrwt>
<pdfrwt beam="1">  1        1 0.33832094E+00 0.44139743E+04</pdfrwt>
<pdfrwt beam="2">  1       -1 0.34075640E+00 0.44139743E+04</pdfrwt>
<totfact> 0.29527201E-02</totfact>
</mgrwt>
</event>
<event>
 6    1  0.8968082E-007  0.3982715E+04  0.7818608E-02  0.8008043E-01
         -2   -1    0    0    0  501 -0.00000000000E+00  0.00000000000E+00  0.11575043918E+04  0.11575043918E+04  0.00000000000E+00 0.  1.
          2   -1    0    0  501    0  0.00000000000E+00 -0.00000000000E+00 -0.34259091603E+04  0.34259091603E+04  0.00000000000E+00 0. -1.
         23    2    1    2    0    0 -0.41337554364E+03 -0.18479441948E+04 -0.42943542001E+03  0.19437951418E+04  0.90264535527E+02 0.  0.
         13    1    3    3    0    0 -0.15271036558E+03 -0.57158485314E+03 -0.16919357398E+03  0.61535044127E+03  0.00000000000E+00 0.  1.
        -13    1    3    3    0    0 -0.26066517806E+03 -0.12763593416E+04 -0.26024184603E+03  0.13284447006E+04  0.00000000000E+00 0. -1.
         22    1    1    2    0    0  0.41337554364E+03  0.18479441948E+04 -0.18389693485E+04  0.26396184102E+04  0.00000000000E+00 0. -1.
<mgrwt>
<rscale>  0 0.39827151E+04</rscale>
<asrwt>0</asrwt>
<pdfrwt beam="1">  1        2 0.52706294E+00 0.39827151E+04</pdfrwt>
<pdfrwt beam="2">  1       -2 0.17807760E+00 0.39827151E+04</pdfrwt>
<totfact> 0.13496789E-01</totfact>
</mgrwt>
</event>
<event>
 6    1  0.8968082E-007  0.1803584E+04  0.7818608E-02  0.8704396E-01
          1   -1    0    0  501    0  0.00000000000E+00  0.00000000000E+00  0.25171180355E+04  0.25171180355E+04  0.00000000000E+00 0. -1.
         -1   -1    0    0    0  501 -0.00000000000E+00 -0.00000000000E+00 -0.32307946467E+03  0.32307946467E+03  0.00000000000E+00 0.  1.
         23    2    1    2    0    0  0.18696404492E+03 -0.87482441670E+03  0.12468247037E+04  0.15373209042E+04  0.92251865734E+02 0.  0.
         13    1    3    3    0    0  0.39029691942E+02 -0.34590273383E+03  0.43429047832E+03  0.55657904891E+03  0.00000000000E+00 0.  1.
        -13    1    3    3    0    0  0.14793435297E+03 -0.52892168287E+03  0.81253422537E+03  0.98074185533E+03  0.00000000000E+00 0. -1.
         22    1    1    2    0    0 -0.18696404492E+03  0.87482441670E+03  0.94721386714E+03  0.13028765959E+04  0.00000000000E+00 0.  1.
<mgrwt>
<rscale>  0 0.18035844E+04</rscale>
<asrwt>0</asrwt>
<pdfrwt beam="1">  1        1 0.38724892E+00 0.18035844E+04</pdfrwt>
<pdfrwt beam="2">  1       -1 0.49704535E-01 0.18035844E+04</pdfrwt>
<totfact> 0.50534071E+00</totfact>
</mgrwt>
</event>
<event>
 6    1  0.8968082E-007  0.4222304E+04  0.7818608E-02  0.7961143E-01
         -1   -1    0    0    0  501 -0.00000000000E+00  0.00000000000E+00  0.13770249402E+04  0.13770249402E+04  0.00000000000E+00 0.  1.
          1   -1    0    0  501    0  0.00000000000E+00 -0.00000000000E+00 -0.32366605931E+04  0.32366605931E+04  0.00000000000E+00 0. -1.
         23    2    1    2    0    0 -0.18123024914E+04  0.10336078489E+04 -0.12757937500E+04  0.24472006215E+04  0.91409428476E+02 0.  0.
         13    1    3    3    0    0 -0.41829997817E+03  0.19603959181E+03 -0.29232226246E+03  0.54667970369E+03  0.00000000000E+00 0.  1.
        -13    1    3    3    0    0 -0.13940025132E+04  0.83756825714E+03 -0.98347148756E+03  0.19005209178E+04  0.00000000000E+00 0. -1.
         22    1    1    2    0    0  0.18123024914E+04 -0.10336078489E+04 -0.58384190289E+03  0.21664849118E+04  0.00000000000E+00 0. -1.
<mgrwt>
<rscale>  0 0.42223038E+04</rscale>
<asrwt>0</asrwt>
<pdfrwt beam="1">  1        1 0.49794778E+00 0.42223038E+04</pdfrwt>
<pdfrwt beam="2">  1       -1 0.21184999E+00 0.42223038E+04</pdfrwt>
<totfact> 0.38260485E-02</totfact>
</mgrwt>
</event>
<event>
 6    1  0.8968082E-007  0.2115821E+04  0.7818608E-02  0.8554306E-01
         -2   -1    0    0    0  501 -0.00000000000E+00  0.00000000000E+00  0.42688430516E+03  0.42688430516E+03  0.00000000000E+00 0.  1.
          2   -1    0    0  501    0  0.00000000000E+00 -0.00000000000E+00 -0.26217285342E+04  0.26217285342E+04  0.00000000000E+00 0. -1.
         23    2    1    2    0    0  0.27537838053E+03  0.47198125443E+03 -0.24013898671E+04  0.24644376451E+04  0.90443659974E+02 0.  0.
         11    1    3    3    0    0  0.60122100208E+02  0.14567065351E+03 -0.85508183483E+03  0.86948234628E+03  0.00000000000E+00 0. -1.
        -11    1    3    3    0    0  0.21525628032E+03  0.32631060092E+03 -0.15463080323E+04  0.15949552988E+04  0.00000000000E+00 0.  1.
         22    1    1    2    0    0 -0.27537838053E+03 -0.47198125443E+03  0.20654563809E+03  0.58417519428E+03  0.00000000000E+00 0.  1.
<mgrwt>
<rscale>  0 0.21158211E+04</rscale>
<asrwt>0</asrwt>
<pdfrwt beam="1">  1        2 0.40334285E+00 0.21158211E+04</pdfrwt>
<pdfrwt beam="2">  1       -2 0.65674508E-01 0.21158211E+04</pdfrwt>
<totfact> 0.58096543E+00</totfact>
</mgrwt>
</event>
<event>
 6    1  0.8968082E-007  0.2786559E+04  0.7818608E-02  0.8307453E-01
         -2   -1    0    0    0  501 -0.00000000000E+00  0.00000000000E+00  0.99126656352E+03  0.99126656352E+03  0.00000000000E+00 0.  1.
          2   -1    0    0  501    0  0.00000000000E+00 -0.00000000000E+00 -0.19583305980E+04  0.19583305980E+04  0.00000000000E+00 0. -1.
         23    2    1    2    0    0 -0.15806687371E+03  0.92794071070E+03 -0.15691494369E+04  0.18322046921E+04  0.93193235970E+02 0.  0.
         11    1    3    3    0    0 -0.10156133578E+03  0.75288379089E+03 -0.13111533882E+04  0.15153454770E+04  0.00000000000E+00 0. -1.
        -11    1    3    3    0    0 -0.56505537926E+02  0.17505691981E+03 -0.25799604871E+03  0.31685921502E+03  0.00000000000E+00 0.  1.
         22    1    1    2    0    0  0.15806687371E+03 -0.92794071070E+03  0.60208540236E+03  0.11173924695E+04  0.00000000000E+00 0.  1.
<mgrwt>
<rscale>  0 0.27865589E+04</rscale>
<asrwt>0</asrwt>
<pdfrwt beam="1">  1        2 0.30128163E+00 0.27865589E+04</pdfrwt>
<pdfrwt beam="2">  1       -2 0.15250255E+00 0.27865589E+04</pdfrwt>
<totfact> 0.17603409E+00</totfact>
</mgrwt>
</event>
<event>
 6    1  0.8968082E-007  0.2042098E+04  0.7818608E-02  0.8587188E-01
          2   -1    0    0  501    0  0.00000000000E+00  0.00000000000E+00  0.68236259189E+03  0.68236259189E+03  0.00000000000E+00 0. -1.
         -2   -1    0    0    0  501 -0.00000000000E+00 -0.00000000000E+00 -0.15278399784E+04  0.15278399784E+04  0.00000000000E+00 0.  1.
         23    2    1    2    0    0  0.84898395605E+03  0.13031112304E+03  0.16999404791E+03  0.88018866792E+03  0.89885306872E+02 0.  0.
         13    1    3    3    0    0  0.52167342391E+03  0.40876325701E+02  0.82033543808E+02  0.52966360789E+03  0.00000000000E+00 0.  1.
        -13    1    3    3    0    0  0.32731053214E+03  0.89434797338E+02  0.87960504104E+02  0.35052506003E+03  0.00000000000E+00 0. -1.
         22    1    1    2    0    0 -0.84898395605E+03 -0.13031112304E+03 -0.10154714345E+04  0.13300139024E+04  0.00000000000E+00 0.  1.
<mgrwt>
<rscale>  0 0.20420978E+04</rscale>
<asrwt>0</asrwt>
<pdfrwt beam="1">  1        2 0.10497886E+00 0.20420978E+04</pdfrwt>
<pdfrwt beam="2">  1       -2 0.23505231E+00 0.20420978E+04</pdfrwt>
<totfact> 0.31138679E+00</totfact>
</mgrwt>
</event>
<event>
 6    1  0.8968082E-007  0.4349075E+04  0.7818608E-02  0.7937606E-01
         -1   -1    0    0    0  501 -0.00000000000E+00  0.00000000000E+00  0.28018914530E+04  0.28018914530E+04  0.00000000000E+00 0.  1.
          1   -1    0    0  501    0  0.00000000000E+00 -0.00000000000E+00 -0.16876501497E+04  0.16876501497E+04  0.00000000000E+00 0. -1.
         23    2    1    2    0    0 -0.11518253980E+03  0.32650095669E+03  0.27725172811E+04  0.27955082174E+04  0.90245370754E+02 0.  0.
         13    1    3    3    0    0 -0.45127038719E+01  0.11344815409E+03  0.70263254963E+03  0.71174668806E+03  0.00000000000E+00 0.  1.
        -13    1    3    3    0    0 -0.11066983593E+03  0.21305280259E+03  0.20698847315E+04  0.20837615293E+04  0.00000000000E+00 0. -1.
         22    1    1    2    0    0  0.11518253980E+03 -0.32650095669E+03 -0.16582759778E+04  0.16940333854E+04  0.00000000000E+00 0. -1.
<mgrwt>
<rscale>  0 0.43490746E+04</rscale>
<asrwt>0</asrwt>
<pdfrwt beam="1">  1        1 0.25963848E+00 0.43490746E+04</pdfrwt>
<pdfrwt beam="2">  1       -1 0.43106022E+00 0.43490746E+04</pdfrwt>
<totfact> 0.16167706E-02</totfact>
</mgrwt>
</event>
<event>
 6    1  0.8968082E-007  0.2630454E+04  0.7818608E-02  0.8357930E-01
         -2   -1    0    0    0  501 -0.00000000000E+00  0.00000000000E+00  0.74683191623E+03  0.74683191623E+03  0.00000000000E+00 0.  1.
          2   -1    0    0  501    0  0.00000000000E+00 -0.00000000000E+00 -0.23162130109E+04  0.23162130109E+04  0.00000000000E+00 0. -1.
         23    2    1    2    0    0  0.95272598636E+03  0.46079671983E+03  0.12035169689E+03  0.10692502213E+04  0.93760773909E+02 0.  0.
         11    1    3    3    0    0  0.42842614103E+03  0.20249755297E+03  0.72068273798E+01  0.47392631879E+03  0.00000000000E+00 0. -1.
        -11    1    3    3    0    0  0.52429984532E+03  0.25829916687E+03  0.11314486951E+03  0.59532390252E+03  0.00000000000E+00 0.  1.
         22    1    1    2    0    0 -0.95272598636E+03 -0.46079671983E+03 -0.16897327916E+04  0.19937947058E+04  0.00000000000E+00 0. -1.
<mgrwt>
<rscale>  0 0.26304538E+04</rscale>
<asrwt>0</asrwt>
<pdfrwt beam="1">  1        2 0.35634047E+00 0.26304538E+04</pdfrwt>
<pdfrwt beam="2">  1       -2 0.11489722E+00 0.26304538E+04</pdfrwt>
<totfact> 0.23138877E+00</totfact>
</mgrwt>
</event>
<event>
 6    1  0.8968082E-007  0.2682427E+04  0.7818608E-02  0.8340729E-01
          1   -1    0    0  501    0  0.00000000000E+00  0.00000000000E+00  0.13733725298E+04  0.13733725298E+04  0.00000000000E+00 0. -1.
         -1   -1    0    0    0  501 -0.00000000000E+00 -0.00000000000E+00 -0.13098071891E+04  0.13098071891E+04  0.00000000000E+00 0.  1.
         23    2    1    2    0    0  0.11830979495E+03  0.13046542045E+04 -0.24873469476E+03  0.13364610723E+04  0.90218891618E+02 0.  0.
         13    1    3    3    0    0 -0.10585949474E+01  0.42425532878E+03 -0.95835612443E+02  0.43494616820E+03  0.00000000000E+00 0. -1.
        -13    1    3    3    0    0  0.11936838990E+03  0.88039887575E+03 -0.15289908232E+03  0.90151490409E+03  0.00000000000E+00 0.  1.
         22    1    1    2    0    0 -0.11830979495E+03 -0.13046542045E+04  0.31230003547E+03  0.13467186466E+04  0.00000000000E+00 0. -1.
<mgrwt>
<rscale>  0 0.26824267E+04</rscale>
<asrwt>0</asrwt>
<pdfrwt beam="1">  1        1 0.21128808E+00 0.26824267E+04</pdfrwt>
<pdfrwt beam="2">  1       -1 0.20150880E+00 0.26824267E+04</pdfrwt>
<totfact> 0.10308461E+00</totfact>
</mgrwt>
</event>
<event>
 6    1  0.8968082E-007  0.1517424E+04  0.7818608E-02  0.8872948E-01
          2   -1    0    0  501    0  0.00000000000E+00  0.00000000000E+00  0.14800686240E+04  0.14800686240E+04  0.00000000000E+00 0. -1.
         -2   -1    0    0    0  501 -0.00000000000E+00 -0.00000000000E+00 -0.38893055926E+03  0.38893055926E+03  0.00000000000E+00 0.  1.
         23    2    1    2    0    0  0.71928017747E+03  0.23195199301E+03  0.57174686746E+03  0.95197523779E+03  0.90535474609E+02 0.  0.
         13    1    3    3    0    0  0.26416496666E+03  0.99700878051E+02  0.16238166870E+03  0.32571644267E+03  0.00000000000E+00 0. -1.
        -13    1    3    3    0    0  0.45511521081E+03  0.13225111496E+03  0.40936519876E+03  0.62625879513E+03  0.00000000000E+00 0.  1.
         22    1    1    2    0    0 -0.71928017747E+03 -0.23195199301E+03  0.51939119731E+03  0.91702394549E+03  0.00000000000E+00 0.  1.
<mgrwt>
<rscale>  0 0.15174240E+04</rscale>
<asrwt>0</asrwt>
<pdfrwt beam="1">  1        2 0.22770286E+00 0.15174240E+04</pdfrwt>
<pdfrwt beam="2">  1       -2 0.59835471E-01 0.15174240E+04</pdfrwt>
<totfact> 0.32743586E+01</totfact>
</mgrwt>
</event>
<event>
 6    1  0.8968082E-007  0.9569850E+03  0.7818608E-02  0.9357023E-01
         -2   -1    0    0    0  501 -0.00000000000E+00  0.00000000000E+00  0.15545083315E+03  0.15545083315E+03  0.00000000000E+00 0.  1.
          2   -1    0    0  501    0  0.00000000000E+00 -0.00000000000E+00 -0.14728456311E+04  0.14728456311E+04  0.00000000000E+00 0. -1.
         23    2    1    2    0    0  0.37615248453E+03 -0.25525982141E+03 -0.89401579768E+03  0.10070895375E+04  0.91196611207E+02 0.  0.
         11    1    3    3    0    0  0.19094450854E+03 -0.14948519756E+03 -0.38255343295E+03  0.45293791925E+03  0.00000000000E+00 0.  1.
        -11    1    3    3    0    0  0.18520797599E+03 -0.10577462386E+03 -0.51146236473E+03  0.55415161820E+03  0.00000000000E+00 0. -1.
         22    1    1    2    0    0 -0.37615248453E+03  0.25525982141E+03 -0.42337900032E+03  0.62120692684E+03  0.00000000000E+00 0.  1.
<mgrwt>
<rscale>  0 0.95698502E+03</rscale>
<asrwt>0</asrwt>
<pdfrwt beam="1">  1        2 0.22659163E+00 0.95698502E+03</pdfrwt>
<pdfrwt beam="2">  1       -2 0.23915514E-01 0.95698502E+03</pdfrwt>
<totfact> 0.20435707E+02</totfact>
</mgrwt>
</event>
<event>
 6    1  0.8968082E-007  0.2210630E+04  0.7818608E-02  0.8514017E-01
          2   -1    0    0  501    0  0.00000000000E+00  0.00000000000E+00  0.99822102172E+03  0.99822102172E+03  0.00000000000E+00 0. -1.
         -2   -1    0    0    0  501 -0.00000000000E+00 -0.00000000000E+00 -0.12238986554E+04  0.12238986554E+04  0.00000000000E+00 0.  1.
         23    2    1    2    0    0 -0.95222705200E+03 -0.28949476054E+02  0.44685995938E+03  0.10559802151E+04  0.88520962081E+02 0.  0.
         11    1    3    3    0    0 -0.30597674523E+03 -0.46466802697E+02  0.16497771187E+03  0.35071153073E+03  0.00000000000E+00 0.  1.
        -11    1    3    3    0    0 -0.64625030678E+03  0.17517326643E+02  0.28188224750E+03  0.70526868440E+03  0.00000000000E+00 0. -1.
         22    1    1    2    0    0  0.95222705200E+03  0.28949476054E+02 -0.67253759307E+03  0.11661394620E+04  0.00000000000E+00 0.  1.
<mgrwt>
<rscale>  0 0.22106301E+04</rscale>
<asrwt>0</asrwt>
<pdfrwt beam="1">  1        2 0.15357246E+00 0.22106301E+04</pdfrwt>
<pdfrwt beam="2">  1       -2 0.18829210E+00 0.22106301E+04</pdfrwt>
<totfact> 0.36700201E+00</totfact>
</mgrwt>
</event>
<event>
 6    1  0.8968082E-007  0.3220110E+04  0.7818608E-02  0.8183526E-01
          2   -1    0    0  501    0  0.00000000000E+00  0.00000000000E+00  0.22895746818E+04  0.22895746818E+04  0.00000000000E+00 0. -1.
         -2   -1    0    0    0  501 -0.00000000000E+00 -0.00000000000E+00 -0.11322088187E+04  0.11322088187E+04  0.00000000000E+00 0.  1.
         23    2    1    2    0    0  0.14790816526E+04  0.63229318520E+03  0.60238642017E+03  0.17201726787E+04  0.92991603205E+02 0.  0.
         11    1    3    3    0    0  0.38481622408E+03  0.20531524887E+03  0.14475136948E+03  0.45955504208E+03  0.00000000000E+00 0. -1.
        -11    1    3    3    0    0  0.10942654285E+04  0.42697793633E+03  0.45763505069E+03  0.12606176366E+04  0.00000000000E+00 0.  1.
         22    1    1    2    0    0 -0.14790816526E+04 -0.63229318520E+03  0.55497944292E+03  0.17016108218E+04  0.00000000000E+00 0. -1.
<mgrwt>
<rscale>  0 0.32201097E+04</rscale>
<asrwt>0</asrwt>
<pdfrwt beam="1">  1        2 0.35224226E+00 0.32201097E+04</pdfrwt>
<pdfrwt beam="2">  1       -2 0.17418597E+00 0.32201097E+04</pdfrwt>
<totfact> 0.76914618E-01</totfact>
</mgrwt>
</event>
<event>
 6    1  0.8968082E-007  0.5581100E+04  0.7818608E-02  0.7744627E-01
          2   -1    0    0  501    0  0.00000000000E+00  0.00000000000E+00  0.15526428451E+04  0.15526428451E+04  0.00000000000E+00 0. -1.
         -2   -1    0    0    0  501 -0.00000000000E+00 -0.00000000000E+00 -0.50154290612E+04  0.50154290612E+04  0.00000000000E+00 0.  1.
         23    2    1    2    0    0 -0.61312304089E+03  0.23288584883E+04 -0.33892088813E+04  0.41587327135E+04  0.93910697791E+02 0.  0.
         13    1    3    3    0    0 -0.30941372795E+03  0.12617615437E+04 -0.18991672179E+04  0.23010030791E+04  0.00000000000E+00 0. -1.
        -13    1    3    3    0    0 -0.30370931295E+03  0.10670969447E+04 -0.14900416633E+04  0.18577296344E+04  0.00000000000E+00 0.  1.
         22    1    1    2    0    0  0.61312304089E+03 -0.23288584883E+04 -0.73577334886E+02  0.24093391929E+04  0.00000000000E+00 0. -1.
<mgrwt>
<rscale>  0 0.55811003E+04</rscale>
<asrwt>0</asrwt>
<pdfrwt beam="1">  1        2 0.23886813E+00 0.55811003E+04</pdfrwt>
<pdfrwt beam="2">  1       -2 0.77160446E+00 0.55811003E+04</pdfrwt>
<totfact> 0.93700900E-04</totfact>
</mgrwt>
</event>
<event>
 6    1  0.8968082E-007  0.1513553E+04  0.7818608E-02  0.8875490E-01
         -3   -1    0    0    0  501 -0.00000000000E+00  0.00000000000E+00  0.12377439646E+04  0.12377439646E+04  0.00000000000E+00 0.  1.
          3   -1    0    0  501    0  0.00000000000E+00 -0.00000000000E+00 -0.46270530757E+03  0.46270530757E+03  0.00000000000E+00 0. -1.
         23    2    1    2    0    0  0.65015536976E+02  0.13673488629E+03  0.12188023665E+04  0.12315679662E+04  0.91416615076E+02 0.  0.
         11    1    3    3    0    0  0.64047629267E+02  0.31063061190E+02  0.49439635424E+03  0.49949451216E+03  0.00000000000E+00 0.  1.
        -11    1    3    3    0    0  0.96790770836E+00  0.10567182510E+03  0.72440601230E+03  0.73207345405E+03  0.00000000000E+00 0. -1.
         22    1    1    2    0    0 -0.65015536976E+02 -0.13673488629E+03 -0.44376370953E+03  0.46888130595E+03  0.00000000000E+00 0. -1.
<mgrwt>
<rscale>  0 0.15135530E+04</rscale>
<asrwt>0</asrwt>
<pdfrwt beam="1">  1        3 0.71185432E-01 0.15135530E+04</pdfrwt>
<pdfrwt beam="2">  1       -3 0.19042215E+00 0.15135530E+04</pdfrwt>
<totfact> 0.80266640E-01</totfact>
</mgrwt>
</event>
<event>
 6    1  0.8968082E-007  0.2526027E+04  0.7818608E-02  0.8393772E-01
         -1   -1    0    0    0  501 -0.00000000000E+00  0.00000000000E+00  0.21035391906E+04  0.21035391906E+04  0.00000000000E+00 0.  1.
          1   -1    0    0  501    0  0.00000000000E+00 -0.00000000000E+00 -0.75834244668E+03  0.75834244668E+03  0.00000000000E+00 0. -1.
         23    2    1    2    0    0  0.47910529916E+03 -0.11640127083E+04  0.58094093958E+03  0.13892803989E+04  0.90222938171E+02 0.  0.
         11    1    3    3    0    0  0.40386476282E+03 -0.88466622555E+03  0.45787007339E+03  0.10748888693E+04  0.00000000000E+00 0.  1.
        -11    1    3    3    0    0  0.75240536342E+02 -0.27934648280E+03  0.12307086619E+03  0.31439152957E+03  0.00000000000E+00 0. -1.
         22    1    1    2    0    0 -0.47910529916E+03  0.11640127083E+04  0.76425580437E+03  0.14726012384E+04  0.00000000000E+00 0. -1.
<mgrwt>
<rscale>  0 0.25260270E+04</rscale>
<asrwt>0</asrwt>
<pdfrwt beam="1">  1        1 0.11666807E+00 0.25260270E+04</pdfrwt>
<pdfrwt beam="2">  1       -1 0.32362141E+00 0.25260270E+04</pdfrwt>
<totfact> 0.49462132E-01</totfact>
</mgrwt>
</event>
<event>
 6    1  0.8968082E-007  0.1361362E+04  0.7818608E-02  0.8982271E-01
         -1   -1    0    0    0  501 -0.00000000000E+00  0.00000000000E+00  0.46492273470E+03  0.46492273470E+03  0.00000000000E+00 0.  1.
          1   -1    0    0  501    0  0.00000000000E+00 -0.00000000000E+00 -0.99656715564E+03  0.99656715564E+03  0.00000000000E+00 0. -1.
         23    2    1    2    0    0  0.36812109350E+03 -0.48363842437E+03  0.54749967470E+02  0.61693222874E+03  0.90490612329E+02 0.  0.
         11    1    3    3    0    0  0.20754715501E+03 -0.26059575706E+03 -0.14673569859E+02  0.33346856494E+03  0.00000000000E+00 0. -1.
        -11    1    3    3    0    0  0.16057393849E+03 -0.22304266731E+03  0.69423537328E+02  0.28346366380E+03  0.00000000000E+00 0.  1.
         22    1    1    2    0    0 -0.36812109350E+03  0.48363842437E+03 -0.58639438841E+03  0.84455766160E+03  0.00000000000E+00 0. -1.
<mgrwt>
<rscale>  0 0.13613622E+04</rscale>
<asrwt>0</asrwt>
<pdfrwt beam="1">  1        1 0.15331802E+00 0.13613622E+04</pdfrwt>
<pdfrwt beam="2">  1       -1 0.71526575E-01 0.13613622E+04</pdfrwt>
<totfact> 0.29388979E+01</totfact>
</mgrwt>
</event>
<event>
 6    1  0.8968082E-007  0.2794658E+04  0.7818608E-02  0.8304929E-01
          1   -1    0    0  501    0  0.00000000000E+00  0.00000000000E+00  0.13322134184E+04  0.13322134184E+04  0.00000000000E+00 0. -1.
         -1   -1    0    0    0  501 -0.00000000000E+00 -0.00000000000E+00 -0.14656274081E+04  0.14656274081E+04  0.00000000000E+00 0.  1.
         23    2    1    2    0    0 -0.10019914197E+04  0.93232155661E+01  0.90688377676E+03  0.13534401997E+04  0.72721812699E+02 0.  0.
         11    1    3    3    0    0 -0.43192098870E+03  0.15202861495E+02  0.34522359502E+03  0.55314211378E+03  0.00000000000E+00 0. -1.
        -11    1    3    3    0    0 -0.57007043103E+03 -0.58796459285E+01  0.56166018174E+03  0.80029808592E+03  0.00000000000E+00 0.  1.
         22    1    1    2    0    0  0.10019914197E+04 -0.93232155661E+01 -0.10402977665E+04  0.14444006267E+04  0.00000000000E+00 0.  1.
<mgrwt>
<rscale>  0 0.27946581E+04</rscale>
<asrwt>0</asrwt>
<pdfrwt beam="1">  1        1 0.20495591E+00 0.27946581E+04</pdfrwt>
<pdfrwt beam="2">  1       -1 0.22548114E+00 0.27946581E+04</pdfrwt>
<totfact> 0.75163653E-01</totfact>
</mgrwt>
</event>
<event>
 6    1  0.8968082E-007  0.3791426E+04  0.7818608E-02  0.8047997E-01
         -1   -1    0    0    0  501 -0.00000000000E+00  0.00000000000E+00  0.90626142611E+03  0.90626142611E+03  0.00000000000E+00 0.  1.
          1   -1    0    0  501    0  0.00000000000E+00 -0.00000000000E+00 -0.39654432345E+04  0.39654432345E+04  0.00000000000E+00 0. -1.
         23    2    1    2    0    0 -0.63644769686E+03 -0.11307320710E+04 -0.33043982224E+04  0.35511927232E+04  0.91112334141E+02 0.  0.
         11    1    3    3    0    0 -0.61586251862E+02 -0.16430235107E+03 -0.40505006303E+03  0.44142234033E+03  0.00000000000E+00 0. -1.
        -11    1    3    3    0    0 -0.57486144500E+03 -0.96642971989E+03 -0.28993481594E+04  0.31097703828E+04  0.00000000000E+00 0.  1.
         22    1    1    2    0    0  0.63644769686E+03  0.11307320710E+04  0.24521641406E+03  0.13205119374E+04  0.00000000000E+00 0.  1.
<mgrwt>
<rscale>  0 0.37914262E+04</rscale>
<asrwt>0</asrwt>
<pdfrwt beam="1">  1        1 0.61006819E+00 0.37914262E+04</pdfrwt>
<pdfrwt beam="2">  1       -1 0.13942483E+00 0.37914262E+04</pdfrwt>
<totfact> 0.34608234E-02</totfact>
</mgrwt>
</event>
<event>
 6    1  0.8968082E-007  0.1867754E+04  0.7818608E-02  0.8671076E-01
         -2   -1    0    0    0  501 -0.00000000000E+00  0.00000000000E+00  0.80202437109E+03  0.80202437109E+03  0.00000000000E+00 0.  1.
          2   -1    0    0  501    0  0.00000000000E+00 -0.00000000000E+00 -0.10874060217E+04  0.10874060217E+04  0.00000000000E+00 0. -1.
         23    2    1    2    0    0  0.34150168751E+03  0.37703606904E+03 -0.93261892490E+03  0.10662076470E+04  0.90780436108E+02 0.  0.
         13    1    3    3    0    0  0.16086685037E+03  0.15472140861E+03 -0.49739083220E+03  0.54517382346E+03  0.00000000000E+00 0.  1.
        -13    1    3    3    0    0  0.18063483714E+03  0.22231466043E+03 -0.43522809270E+03  0.52103382357E+03  0.00000000000E+00 0. -1.
         22    1    1    2    0    0 -0.34150168751E+03 -0.37703606904E+03  0.64723727428E+03  0.82322274577E+03  0.00000000000E+00 0.  1.
<mgrwt>
<rscale>  0 0.18677539E+04</rscale>
<asrwt>0</asrwt>
<pdfrwt beam="1">  1        2 0.16729323E+00 0.18677539E+04</pdfrwt>
<pdfrwt beam="2">  1       -2 0.12338836E+00 0.18677539E+04</pdfrwt>
<totfact> 0.10317870E+01</totfact>
</mgrwt>
</event>
<event>
 6    1  0.8968082E-007  0.2294843E+04  0.7818608E-02  0.8479957E-01
          2   -1    0    0  501    0  0.00000000000E+00  0.00000000000E+00  0.98639227582E+03  0.98639227582E+03  0.00000000000E+00 0. -1.
         -2   -1    0    0    0  501 -0.00000000000E+00 -0.00000000000E+00 -0.13347390158E+04  0.13347390158E+04  0.00000000000E+00 0.  1.
         23    2    1    2    0    0  0.43655399280E+03 -0.59449218269E+03  0.71255700712E+03  0.10290333447E+04  0.84686434310E+02 0.  0.
         11    1    3    3    0    0  0.21215344680E+03 -0.30475859364E+03  0.30136573797E+03  0.47823445444E+03  0.00000000000E+00 0. -1.
        -11    1    3    3    0    0  0.22440054600E+03 -0.28973358905E+03  0.41119126914E+03  0.55079889024E+03  0.00000000000E+00 0.  1.
         22    1    1    2    0    0 -0.43655399280E+03  0.59449218269E+03 -0.10609037471E+04  0.12920979470E+04  0.00000000000E+00 0.  1.
<mgrwt>
<rscale>  0 0.22948431E+04</rscale>
<asrwt>0</asrwt>
<pdfrwt beam="1">  1        2 0.15175266E+00 0.22948431E+04</pdfrwt>
<pdfrwt beam="2">  1       -2 0.20534446E+00 0.22948431E+04</pdfrwt>
<totfact> 0.28603802E+00</totfact>
</mgrwt>
</event>
<event>
 6    1  0.8968082E-007  0.8528753E+03  0.7818608E-02  0.9486486E-01
         -2   -1    0    0    0  501 -0.00000000000E+00  0.00000000000E+00  0.14137447097E+03  0.14137447097E+03  0.00000000000E+00 0.  1.
          2   -1    0    0  501    0  0.00000000000E+00 -0.00000000000E+00 -0.12862936297E+04  0.12862936297E+04  0.00000000000E+00 0. -1.
         23    2    1    2    0    0  0.36211053759E+03  0.21516208513E+03 -0.61402882075E+03  0.74997841116E+03  0.89540271245E+02 0.  0.
         13    1    3    3    0    0  0.14382554170E+02 -0.54758587898E+01 -0.82170811795E+01  0.17446011494E+02  0.00000000000E+00 0.  1.
        -13    1    3    3    0    0  0.34772798342E+03  0.22063794392E+03 -0.60581173957E+03  0.73253239966E+03  0.00000000000E+00 0. -1.
         22    1    1    2    0    0 -0.36211053759E+03 -0.21516208513E+03 -0.53089033796E+03  0.67768968949E+03  0.00000000000E+00 0. -1.
<mgrwt>
<rscale>  0 0.85287533E+03</rscale>
<asrwt>0</asrwt>
<pdfrwt beam="1">  1        2 0.19789133E+00 0.85287533E+03</pdfrwt>
<pdfrwt beam="2">  1       -2 0.21749918E-01 0.85287533E+03</pdfrwt>
<totfact> 0.31126993E+02</totfact>
</mgrwt>
</event>
<event>
 6    1  0.8968082E-007  0.3313890E+04  0.7818608E-02  0.8159370E-01
         -2   -1    0    0    0  501 -0.00000000000E+00  0.00000000000E+00  0.95420805933E+03  0.95420805933E+03  0.00000000000E+00 0.  1.
          2   -1    0    0  501    0  0.00000000000E+00 -0.00000000000E+00 -0.28772207036E+04  0.28772207036E+04  0.00000000000E+00 0. -1.
         23    2    1    2    0    0  0.11091062338E+04 -0.74333641409E+03 -0.20942142561E+04  0.24853323124E+04  0.92074373268E+02 0.  0.
         13    1    3    3    0    0  0.19599040934E+03 -0.98874089828E+02 -0.38373583831E+03  0.44208768338E+03  0.00000000000E+00 0. -1.
        -13    1    3    3    0    0  0.91311582446E+03 -0.64446232426E+03 -0.17104784178E+04  0.20432446290E+04  0.00000000000E+00 0.  1.
         22    1    1    2    0    0 -0.11091062338E+04  0.74333641409E+03  0.17120161179E+03  0.13460964506E+04  0.00000000000E+00 0.  1.
<mgrwt>
<rscale>  0 0.33138903E+04</rscale>
<asrwt>0</asrwt>
<pdfrwt beam="1">  1        2 0.44264934E+00 0.33138903E+04</pdfrwt>
<pdfrwt beam="2">  1       -2 0.14680124E+00 0.33138903E+04</pdfrwt>
<totfact> 0.54876585E-01</totfact>
</mgrwt>
</event>
<event>
 6    1  0.8968082E-007  0.5897505E+04  0.7818608E-02  0.7703241E-01
         -2   -1    0    0    0  501 -0.00000000000E+00  0.00000000000E+00  0.23630867340E+04  0.23630867340E+04  0.00000000000E+00 0.  1.
          2   -1    0    0  501    0  0.00000000000E+00 -0.00000000000E+00 -0.36795697505E+04  0.36795697505E+04  0.00000000000E+00 0. -1.
         23    2    1    2    0    0 -0.60530391724E+03 -0.15018355647E+04  0.18657779664E+04  0.24721260114E+04  0.91524316311E+02 0.  0.
         11    1    3    3    0    0 -0.13152640122E+03 -0.43339357485E+03  0.53505262906E+03  0.70100677657E+03  0.00000000000E+00 0. -1.
        -11    1    3    3    0    0 -0.47377751602E+03 -0.10684419899E+04  0.13307253373E+04  0.17711192348E+04  0.00000000000E+00 0.  1.
         22    1    1    2    0    0  0.60530391724E+03  0.15018355647E+04 -0.31822609829E+04  0.35705304730E+04  0.00000000000E+00 0. -1.
<mgrwt>
<rscale>  0 0.58975054E+04</rscale>
<asrwt>0</asrwt>
<pdfrwt beam="1">  1        2 0.56608765E+00 0.58975054E+04</pdfrwt>
<pdfrwt beam="2">  1       -2 0.36355181E+00 0.58975054E+04</pdfrwt>
<totfact> 0.52190149E-03</totfact>
</mgrwt>
</event>
<event>
 6    1  0.8968082E-007  0.1289414E+04  0.7818608E-02  0.9038002E-01
          1   -1    0    0  501    0  0.00000000000E+00  0.00000000000E+00  0.50964062447E+03  0.50964062447E+03  0.00000000000E+00 0. -1.
         -1   -1    0    0    0  501 -0.00000000000E+00 -0.00000000000E+00 -0.81556879489E+03  0.81556879489E+03  0.00000000000E+00 0.  1.
         23    2    1    2    0    0 -0.12434254554E+02  0.88108131715E+02 -0.80795370708E+03  0.81535915408E+03  0.64060157609E+02 0.  0.
         13    1    3    3    0    0  0.21490083637E+02  0.58832283047E+02 -0.38820042257E+03  0.39322084037E+03  0.00000000000E+00 0. -1.
        -13    1    3    3    0    0 -0.33924338191E+02  0.29275848668E+02 -0.41975328451E+03  0.42213831370E+03  0.00000000000E+00 0.  1.
         22    1    1    2    0    0  0.12434254554E+02 -0.88108131715E+02  0.50202553665E+03  0.50985026528E+03  0.00000000000E+00 0. -1.
<mgrwt>
<rscale>  0 0.12894138E+04</rscale>
<asrwt>0</asrwt>
<pdfrwt beam="1">  1        1 0.78406251E-01 0.12894138E+04</pdfrwt>
<pdfrwt beam="2">  1       -1 0.12547212E+00 0.12894138E+04</pdfrwt>
<totfact> 0.23538093E+01</totfact>
</mgrwt>
</event>
<event>
 6    1  0.8968082E-007  0.1121995E+04  0.7818608E-02  0.9184015E-01
          1   -1    0    0  501    0  0.00000000000E+00  0.00000000000E+00  0.16499903659E+04  0.16499903659E+04  0.00000000000E+00 0. -1.
         -1   -1    0    0    0  501 -0.00000000000E+00 -0.00000000000E+00 -0.19073950592E+03  0.19073950592E+03  0.00000000000E+00 0.  1.
         23    2    1    2    0    0 -0.18269066034E+02  0.47190659418E+03  0.24953791233E+03  0.54210174642E+03  0.92604218987E+02 0.  0.
         11    1    3    3    0    0  0.34839163398E+01  0.21376117615E+03  0.16344625555E+03  0.26911086294E+03  0.00000000000E+00 0. -1.
        -11    1    3    3    0    0 -0.21752982374E+02  0.25814541803E+03  0.86091656785E+02  0.27299088347E+03  0.00000000000E+00 0.  1.
         22    1    1    2    0    0  0.18269066034E+02 -0.47190659418E+03  0.12097129477E+04  0.12986281254E+04  0.00000000000E+00 0. -1.
<mgrwt>
<rscale>  0 0.11219953E+04</rscale>
<asrwt>0</asrwt>
<pdfrwt beam="1">  1        1 0.25384466E+00 0.11219953E+04</pdfrwt>
<pdfrwt beam="2">  1       -1 0.29344540E-01 0.11219953E+04</pdfrwt>
<totfact> 0.54442387E+01</totfact>
</mgrwt>
</event>
<event>
 6    1  0.8968082E-007  0.1675770E+04  0.7818608E-02  0.8775306E-01
         -2   -1    0    0    0  501 -0.00000000000E+00  0.00000000000E+00  0.29363215872E+03  0.29363215872E+03  0.00000000000E+00 0.  1.
          2   -1    0    0  501    0  0.00000000000E+00 -0.00000000000E+00 -0.23909197683E+04  0.23909197683E+04  0.00000000000E+00 0. -1.
         23    2    1    2    0    0 -0.82903884205E+03  0.13351034443E+02 -0.12150397386E+04  0.14738310849E+04  0.91503271159E+02 0.  0.
         11    1    3    3    0    0 -0.44779460325E+03 -0.40828388965E+01 -0.73350785041E+03  0.85940121183E+03  0.00000000000E+00 0. -1.
        -11    1    3    3    0    0 -0.38124423880E+03  0.17433873340E+02 -0.48153188818E+03  0.61442987304E+03  0.00000000000E+00 0.  1.
         22    1    1    2    0    0  0.82903884205E+03 -0.13351034443E+02 -0.88224787103E+03  0.12107208422E+04  0.00000000000E+00 0.  1.
<mgrwt>
<rscale>  0 0.16757696E+04</rscale>
<asrwt>0</asrwt>
<pdfrwt beam="1">  1        2 0.36783383E+00 0.16757696E+04</pdfrwt>
<pdfrwt beam="2">  1       -2 0.45174176E-01 0.16757696E+04</pdfrwt>
<totfact> 0.17847254E+01</totfact>
</mgrwt>
</event>
<event>
 6    1  0.8968082E-007  0.3223589E+04  0.7818608E-02  0.8182615E-01
         -2   -1    0    0    0  501 -0.00000000000E+00  0.00000000000E+00  0.76467086719E+03  0.76467086719E+03  0.00000000000E+00 0.  1.
          2   -1    0    0  501    0  0.00000000000E+00 -0.00000000000E+00 -0.33973852540E+04  0.33973852540E+04  0.00000000000E+00 0. -1.
         23    2    1    2    0    0  0.15512216990E+04  0.69159254935E+02 -0.18692797545E+04  0.24317659144E+04  0.90591939940E+02 0.  0.
         11    1    3    3    0    0  0.81988583577E+03  0.80456211984E+02 -0.10073444602E+04  0.13013181192E+04  0.00000000000E+00 0.  1.
        -11    1    3    3    0    0  0.73133586326E+03 -0.11296957049E+02 -0.86193529429E+03  0.11304477952E+04  0.00000000000E+00 0. -1.
         22    1    1    2    0    0 -0.15512216990E+04 -0.69159254935E+02 -0.76343463232E+03  0.17302902069E+04  0.00000000000E+00 0.  1.
<mgrwt>
<rscale>  0 0.32235890E+04</rscale>
<asrwt>0</asrwt>
<pdfrwt beam="1">  1        2 0.52267466E+00 0.32235890E+04</pdfrwt>
<pdfrwt beam="2">  1       -2 0.11764167E+00 0.32235890E+04</pdfrwt>
<totfact> 0.44820493E-01</totfact>
</mgrwt>
</event>
<event>
 6    1  0.8968082E-007  0.2299656E+04  0.7818608E-02  0.8478057E-01
         -1   -1    0    0    0  501 -0.00000000000E+00  0.00000000000E+00  0.62794725709E+03  0.62794725709E+03  0.00000000000E+00 0.  1.
          1   -1    0    0  501    0  0.00000000000E+00 -0.00000000000E+00 -0.21054393801E+04  0.21054393801E+04  0.00000000000E+00 0. -1.
         23    2    1    2    0    0 -0.24298943265E+03 -0.90010840474E+03  0.56092552918E+02  0.93863847578E+03  0.93041974684E+02 0.  0.
         13    1    3    3    0    0 -0.18576326017E+03 -0.73009988707E+03  0.99926021848E+01  0.75342795676E+03  0.00000000000E+00 0. -1.
        -13    1    3    3    0    0 -0.57226172483E+02 -0.17000851767E+03  0.46099950733E+02  0.18521051902E+03  0.00000000000E+00 0.  1.
         22    1    1    2    0    0  0.24298943265E+03  0.90010840474E+03 -0.15335846760E+04  0.17947481615E+04  0.00000000000E+00 0. -1.
<mgrwt>
<rscale>  0 0.22996564E+04</rscale>
<asrwt>0</asrwt>
<pdfrwt beam="1">  1        1 0.32391375E+00 0.22996564E+04</pdfrwt>
<pdfrwt beam="2">  1       -1 0.96607269E-01 0.22996564E+04</pdfrwt>
<totfact> 0.23543559E+00</totfact>
</mgrwt>
</event>
<event>
 6    1  0.8968082E-007  0.2467303E+04  0.7818608E-02  0.8414727E-01
          1   -1    0    0  501    0  0.00000000000E+00  0.00000000000E+00  0.24406234493E+04  0.24406234493E+04  0.00000000000E+00 0. -1.
         -1   -1    0    0    0  501 -0.00000000000E+00 -0.00000000000E+00 -0.62356878145E+03  0.62356878145E+03  0.00000000000E+00 0.  1.
         23    2    1    2    0    0  0.10759419738E+04 -0.26881715674E+03  0.24322381543E+03  0.11388721673E+04  0.89208712231E+02 0.  0.
         11    1    3    3    0    0  0.43159759358E+03 -0.11150154450E+03  0.53285709647E+02  0.44894147064E+03  0.00000000000E+00 0.  1.
        -11    1    3    3    0    0  0.64434438021E+03 -0.15731561224E+03  0.18993810578E+03  0.68993069665E+03  0.00000000000E+00 0. -1.
         22    1    1    2    0    0 -0.10759419738E+04  0.26881715674E+03  0.15738308525E+04  0.19253200635E+04  0.00000000000E+00 0. -1.
<mgrwt>
<rscale>  0 0.24673035E+04</rscale>
<asrwt>0</asrwt>
<pdfrwt beam="1">  1        1 0.37548052E+00 0.24673035E+04</pdfrwt>
<pdfrwt beam="2">  1       -1 0.95933660E-01 0.24673035E+04</pdfrwt>
<totfact> 0.13894032E+00</totfact>
</mgrwt>
</event>
<event>
 6    1  0.8968082E-007  0.8723123E+03  0.7818608E-02  0.9460870E-01
          1   -1    0    0  501    0  0.00000000000E+00  0.00000000000E+00  0.12376885630E+04  0.12376885630E+04  0.00000000000E+00 0. -1.
         -1   -1    0    0    0  501 -0.00000000000E+00 -0.00000000000E+00 -0.15369957377E+03  0.15369957377E+03  0.00000000000E+00 0.  1.
         23    2    1    2    0    0  0.89736190952E+02  0.30517950101E+03  0.84480094768E+02  0.34248149558E+03  0.94707848661E+02 0.  0.
         13    1    3    3    0    0  0.21504346907E+02  0.16950353971E+03  0.84498769787E+02  0.19061460858E+03  0.00000000000E+00 0. -1.
        -13    1    3    3    0    0  0.68231844045E+02  0.13567596130E+03 -0.18675018950E-01  0.15186688700E+03  0.00000000000E+00 0.  1.
         22    1    1    2    0    0 -0.89736190952E+02 -0.30517950101E+03  0.99950889446E+03  0.10489066412E+04  0.00000000000E+00 0. -1.
<mgrwt>
<rscale>  0 0.87231234E+03</rscale>
<asrwt>0</asrwt>
<pdfrwt beam="1">  1        1 0.19041362E+00 0.87231234E+03</pdfrwt>
<pdfrwt beam="2">  1       -1 0.23646089E-01 0.87231234E+03</pdfrwt>
<totfact> 0.15581082E+02</totfact>
</mgrwt>
</event>
<event>
 6    1  0.8968082E-007  0.2541332E+04  0.7818608E-02  0.8388407E-01
         -2   -1    0    0    0  501 -0.00000000000E+00  0.00000000000E+00  0.10387606287E+04  0.10387606287E+04  0.00000000000E+00 0.  1.
          2   -1    0    0  501    0  0.00000000000E+00 -0.00000000000E+00 -0.15543441228E+04  0.15543441228E+04  0.00000000000E+00 0. -1.
         23    2    1    2    0    0 -0.11730919167E+04 -0.47594229500E+03 -0.16855656875E+03  0.12804382288E+04  0.91896831955E+02 0.  0.
         13    1    3    3    0    0 -0.66716025427E+03 -0.23757530415E+03 -0.60073694940E+02  0.71074164001E+03  0.00000000000E+00 0.  1.
        -13    1    3    3    0    0 -0.50593166240E+03 -0.23836699084E+03 -0.10848287381E+03  0.56969658877E+03  0.00000000000E+00 0. -1.
         22    1    1    2    0    0  0.11730919167E+04  0.47594229500E+03 -0.34702692532E+03  0.13126665228E+04  0.00000000000E+00 0. -1.
<mgrwt>
<rscale>  0 0.25413315E+04</rscale>
<asrwt>0</asrwt>
<pdfrwt beam="1">  1        2 0.23912986E+00 0.25413315E+04</pdfrwt>
<pdfrwt beam="2">  1       -2 0.15980933E+00 0.25413315E+04</pdfrwt>
<totfact> 0.26575932E+00</totfact>
</mgrwt>
</event>
<event>
 6    1  0.8968082E-007  0.2409335E+04  0.7818608E-02  0.8436017E-01
         -2   -1    0    0    0  501 -0.00000000000E+00  0.00000000000E+00  0.60586676004E+03  0.60586676004E+03  0.00000000000E+00 0.  1.
          2   -1    0    0  501    0  0.00000000000E+00 -0.00000000000E+00 -0.23952850197E+04  0.23952850197E+04  0.00000000000E+00 0. -1.
         23    2    1    2    0    0 -0.76700720599E+03 -0.55244110671E+03  0.30305873623E+02  0.95056963027E+03  0.95775495790E+02 0.  0.
         13    1    3    3    0    0 -0.27970261140E+03 -0.14621363041E+03  0.52733793532E+01  0.31565770238E+03  0.00000000000E+00 0. -1.
        -13    1    3    3    0    0 -0.48730459459E+03 -0.40622747630E+03  0.25032494270E+02  0.63491192789E+03  0.00000000000E+00 0.  1.
         22    1    1    2    0    0  0.76700720599E+03  0.55244110671E+03 -0.18197241332E+04  0.20505821494E+04  0.00000000000E+00 0. -1.
<mgrwt>
<rscale>  0 0.24093348E+04</rscale>
<asrwt>0</asrwt>
<pdfrwt beam="1">  1        2 0.36850538E+00 0.24093348E+04</pdfrwt>
<pdfrwt beam="2">  1       -2 0.93210272E-01 0.24093348E+04</pdfrwt>
<totfact> 0.35016092E+00</totfact>
</mgrwt>
</event>
<event>
 6    1  0.8968082E-007  0.4763737E+04  0.7818608E-02  0.7866024E-01
         -2   -1    0    0    0  501 -0.00000000000E+00  0.00000000000E+00  0.28001199819E+04  0.28001199819E+04  0.00000000000E+00 0.  1.
          2   -1    0    0  501    0  0.00000000000E+00 -0.00000000000E+00 -0.20260907478E+04  0.20260907478E+04  0.00000000000E+00 0. -1.
         23    2    1    2    0    0  0.13492417766E+04  0.17489424400E+04  0.12874915313E+04  0.25584152007E+04  0.92740852098E+02 0.  0.
         13    1    3    3    0    0  0.56918251644E+03  0.69581710137E+03  0.56754818268E+03  0.10631279863E+04  0.00000000000E+00 0. -1.
        -13    1    3    3    0    0  0.78005926021E+03  0.10531253386E+04  0.71994334865E+03  0.14952872144E+04  0.00000000000E+00 0.  1.
         22    1    1    2    0    0 -0.13492417766E+04 -0.17489424400E+04 -0.51346229725E+03  0.22677955289E+04  0.00000000000E+00 0. -1.
<mgrwt>
<rscale>  0 0.47637368E+04</rscale>
<asrwt>0</asrwt>
<pdfrwt beam="1">  1        2 0.31170627E+00 0.47637368E+04</pdfrwt>
<pdfrwt beam="2">  1       -2 0.43078769E+00 0.47637368E+04</pdfrwt>
<totfact> 0.22326520E-02</totfact>
</mgrwt>
</event>
<event>
 6    1  0.8968082E-007  0.8187148E+03  0.7818608E-02  0.9533316E-01
         -1   -1    0    0    0  501 -0.00000000000E+00  0.00000000000E+00  0.79383751580E+02  0.79383751580E+02  0.00000000000E+00 0.  1.
          1   -1    0    0  501    0  0.00000000000E+00 -0.00000000000E+00 -0.21109294461E+04  0.21109294461E+04  0.00000000000E+00 0. -1.
         23    2    1    2    0    0  0.21685640003E+03  0.30743204697E+03 -0.14235014370E+04  0.14752894352E+04  0.92635926483E+02 0.  0.
         13    1    3    3    0    0  0.13327827017E+03  0.23573294444E+03 -0.11247213668E+04  0.11568626847E+04  0.00000000000E+00 0. -1.
        -13    1    3    3    0    0  0.83578129859E+02  0.71699102536E+02 -0.29878007021E+03  0.31842675052E+03  0.00000000000E+00 0.  1.
         22    1    1    2    0    0 -0.21685640003E+03 -0.30743204697E+03 -0.60804425754E+03  0.71502376245E+03  0.00000000000E+00 0.  1.
<mgrwt>
<rscale>  0 0.81871484E+03</rscale>
<asrwt>0</asrwt>
<pdfrwt beam="1">  1        1 0.32475843E+00 0.81871484E+03</pdfrwt>
<pdfrwt beam="2">  1       -1 0.12212883E-01 0.81871484E+03</pdfrwt>
<totfact> 0.11788682E+02</totfact>
</mgrwt>
</event>
<event>
 6    1  0.8968082E-007  0.2070721E+04  0.7818608E-02  0.8574252E-01
         -1   -1    0    0    0  501 -0.00000000000E+00  0.00000000000E+00  0.46738576642E+03  0.46738576642E+03  0.00000000000E+00 0.  1.
          1   -1    0    0  501    0  0.00000000000E+00 -0.00000000000E+00 -0.22935472524E+04  0.22935472524E+04  0.00000000000E+00 0. -1.
         23    2    1    2    0    0  0.54836792982E+03 -0.87205091460E+03 -0.80724532209E+03  0.13120126162E+04  0.92476542626E+02 0.  0.
         11    1    3    3    0    0  0.14014543862E+03 -0.28892261007E+03 -0.22041306218E+03  0.38948547669E+03  0.00000000000E+00 0.  1.
        -11    1    3    3    0    0  0.40822249120E+03 -0.58312830453E+03 -0.58683225991E+03  0.92252713951E+03  0.00000000000E+00 0. -1.
         22    1    1    2    0    0 -0.54836792982E+03  0.87205091460E+03 -0.10189161639E+04  0.14489204027E+04  0.00000000000E+00 0.  1.
<mgrwt>
<rscale>  0 0.20707210E+04</rscale>
<asrwt>0</asrwt>
<pdfrwt beam="1">  1        1 0.35285343E+00 0.20707210E+04</pdfrwt>
<pdfrwt beam="2">  1       -1 0.71905502E-01 0.20707210E+04</pdfrwt>
<totfact> 0.33840143E+00</totfact>
</mgrwt>
</event>
<event>
 6    1  0.8968082E-007  0.2025714E+04  0.7818608E-02  0.8594692E-01
          2   -1    0    0  501    0  0.00000000000E+00  0.00000000000E+00  0.36012143004E+04  0.36012143004E+04  0.00000000000E+00 0. -1.
         -2   -1    0    0    0  501 -0.00000000000E+00 -0.00000000000E+00 -0.28487024881E+03  0.28487024881E+03  0.00000000000E+00 0.  1.
         23    2    1    2    0    0  0.49928146323E+03 -0.77787042054E+03  0.24463341836E+04  0.26167218977E+04  0.91204064024E+02 0.  0.
         11    1    3    3    0    0  0.37621910556E+03 -0.56277080560E+03  0.16776006056E+04  0.18090316710E+04  0.00000000000E+00 0. -1.
        -11    1    3    3    0    0  0.12306235767E+03 -0.21509961494E+03  0.76873357803E+03  0.80769022664E+03  0.00000000000E+00 0.  1.
         22    1    1    2    0    0 -0.49928146323E+03  0.77787042054E+03  0.87000986794E+03  0.12693626515E+04  0.00000000000E+00 0.  1.
<mgrwt>
<rscale>  0 0.20257135E+04</rscale>
<asrwt>0</asrwt>
<pdfrwt beam="1">  1        2 0.55403294E+00 0.20257135E+04</pdfrwt>
<pdfrwt beam="2">  1       -2 0.43826194E-01 0.20257135E+04</pdfrwt>
<totfact> 0.31733771E+00</totfact>
</mgrwt>
</event>
<event>
 6    1  0.8968082E-007  0.2449891E+04  0.7818608E-02  0.8421058E-01
         -1   -1    0    0    0  501 -0.00000000000E+00  0.00000000000E+00  0.84538700566E+03  0.84538700566E+03  0.00000000000E+00 0.  1.
          1   -1    0    0  501    0  0.00000000000E+00 -0.00000000000E+00 -0.17749160472E+04  0.17749160472E+04  0.00000000000E+00 0. -1.
         23    2    1    2    0    0 -0.11197599732E+04 -0.44753470173E+03 -0.24607339750E+03  0.12342073404E+04  0.92552337990E+02 0.  0.
         11    1    3    3    0    0 -0.28003668369E+03 -0.11880840581E+03 -0.10295240967E+03  0.32114666456E+03  0.00000000000E+00 0.  1.
        -11    1    3    3    0    0 -0.83972328949E+03 -0.32872629592E+03 -0.14312098783E+03  0.91306067580E+03  0.00000000000E+00 0. -1.
         22    1    1    2    0    0  0.11197599732E+04  0.44753470173E+03 -0.68345564401E+03  0.13860957125E+04  0.00000000000E+00 0. -1.
<mgrwt>
<rscale>  0 0.24498906E+04</rscale>
<asrwt>0</asrwt>
<pdfrwt beam="1">  1        1 0.27306400E+00 0.24498906E+04</pdfrwt>
<pdfrwt beam="2">  1       -1 0.13005954E+00 0.24498906E+04</pdfrwt>
<totfact> 0.19150438E+00</totfact>
</mgrwt>
</event>
<event>
 6    1  0.1451145E-006  0.4381744E+04  0.7818608E-02  0.7931673E-01
          2   -1    0    0  501    0  0.00000000000E+00  0.00000000000E+00  0.21457455968E+04  0.21457455968E+04  0.00000000000E+00 0. -1.
         -2   -1    0    0    0  501 -0.00000000000E+00 -0.00000000000E+00 -0.22369469442E+04  0.22369469442E+04  0.00000000000E+00 0.  1.
         23    2    1    2    0    0  0.10977156238E+04 -0.18094624976E+04 -0.60907505674E+03  0.22038563150E+04  0.82922324072E+02 0.  0.
         11    1    3    3    0    0  0.41216676867E+03 -0.60448261761E+03 -0.21731656682E+03  0.76322157360E+03  0.00000000000E+00 0. -1.
        -11    1    3    3    0    0  0.68554885509E+03 -0.12049798800E+04 -0.39175848992E+03  0.14406347414E+04  0.00000000000E+00 0.  1.
         22    1    1    2    0    0 -0.10977156238E+04  0.18094624976E+04  0.51787370930E+03  0.21788362260E+04  0.00000000000E+00 0.  1.
<mgrwt>
<rscale>  0 0.43817435E+04</rscale>
<asrwt>0</asrwt>
<pdfrwt beam="1">  1        2 0.33011471E+00 0.43817435E+04</pdfrwt>
<pdfrwt beam="2">  1       -2 0.34414568E+00 0.43817435E+04</pdfrwt>
<totfact> 0.71760481E-02</totfact>
</mgrwt>
</event>
<event>
 6    1  0.8968082E-007  0.1591940E+04  0.7818608E-02  0.8825515E-01
          2   -1    0    0  501    0  0.00000000000E+00  0.00000000000E+00  0.29352600162E+04  0.29352600162E+04  0.00000000000E+00 0. -1.
         -2   -1    0    0    0  501 -0.00000000000E+00 -0.00000000000E+00 -0.21584746635E+03  0.21584746635E+03  0.00000000000E+00 0.  1.
         23    2    1    2    0    0 -0.38584772118E+03  0.58787160583E+03  0.63714592206E+03  0.95331181460E+03  0.91525957978E+02 0.  0.
         11    1    3    3    0    0 -0.30648874229E+03  0.39066823144E+03  0.44555983573E+03  0.66714360031E+03  0.00000000000E+00 0. -1.
        -11    1    3    3    0    0 -0.79358978882E+02  0.19720337438E+03  0.19158608633E+03  0.28616821430E+03  0.00000000000E+00 0.  1.
         22    1    1    2    0    0  0.38584772118E+03 -0.58787160583E+03  0.20822666277E+04  0.21977956679E+04  0.00000000000E+00 0. -1.
<mgrwt>
<rscale>  0 0.15919402E+04</rscale>
<asrwt>0</asrwt>
<pdfrwt beam="1">  1        2 0.45157844E+00 0.15919402E+04</pdfrwt>
<pdfrwt beam="2">  1       -2 0.33207305E-01 0.15919402E+04</pdfrwt>
<totfact> 0.15612011E+01</totfact>
</mgrwt>
</event>
<event>
 6    1  0.8968082E-007  0.8470505E+03  0.7818608E-02  0.9494304E-01
         -1   -1    0    0    0  501 -0.00000000000E+00  0.00000000000E+00  0.15014207712E+03  0.15014207712E+03  0.00000000000E+00 0.  1.
          1   -1    0    0  501    0  0.00000000000E+00 -0.00000000000E+00 -0.11946927499E+04  0.11946927499E+04  0.00000000000E+00 0. -1.
         23    2    1    2    0    0  0.59669100482E+02 -0.31003918173E+03 -0.92593507210E+02  0.34188560555E+03  0.92884411740E+02 0.  0.
         11    1    3    3    0    0  0.68431473289E+02 -0.15418629687E+03 -0.20460828162E+02  0.16992623743E+03  0.00000000000E+00 0.  1.
        -11    1    3    3    0    0 -0.87623728074E+01 -0.15585288486E+03 -0.72132679048E+02  0.17195936811E+03  0.00000000000E+00 0. -1.
         22    1    1    2    0    0 -0.59669100482E+02  0.31003918173E+03 -0.95195716555E+03  0.10029492214E+04  0.00000000000E+00 0. -1.
<mgrwt>
<rscale>  0 0.84705053E+03</rscale>
<asrwt>0</asrwt>
<pdfrwt beam="1">  1        1 0.18379889E+00 0.84705053E+03</pdfrwt>
<pdfrwt beam="2">  1       -1 0.23098781E-01 0.84705053E+03</pdfrwt>
<totfact> 0.17445475E+02</totfact>
</mgrwt>
</event>
<event>
 6    1  0.8968082E-007  0.2723705E+04  0.7818608E-02  0.8327354E-01
          2   -1    0    0  501    0  0.00000000000E+00  0.00000000000E+00  0.73410781961E+03  0.73410781961E+03  0.00000000000E+00 0. -1.
         -2   -1    0    0    0  501 -0.00000000000E+00 -0.00000000000E+00 -0.25263901748E+04  0.25263901748E+04  0.00000000000E+00 0.  1.
         23    2    1    2    0    0  0.10265784224E+04  0.64467893981E+03 -0.15771568745E+03  0.12254838952E+04  0.86384874330E+02 0.  0.
         13    1    3    3    0    0  0.34314789640E+03  0.21434125301E+03 -0.11693517656E+02  0.40475843401E+03  0.00000000000E+00 0.  1.
        -13    1    3    3    0    0  0.68343052600E+03  0.43033768680E+03 -0.14602216979E+03  0.82072546117E+03  0.00000000000E+00 0. -1.
         22    1    1    2    0    0 -0.10265784224E+04 -0.64467893981E+03 -0.16345666677E+04  0.20350140992E+04  0.00000000000E+00 0.  1.
<mgrwt>
<rscale>  0 0.27237054E+04</rscale>
<asrwt>0</asrwt>
<pdfrwt beam="1">  1        2 0.11293966E+00 0.27237054E+04</pdfrwt>
<pdfrwt beam="2">  1       -2 0.38867542E+00 0.27237054E+04</pdfrwt>
<totfact> 0.29693911E-01</totfact>
</mgrwt>
</event>
<event>
 6    1  0.8968082E-007  0.9203548E+03  0.7818608E-02  0.9400489E-01
         -2   -1    0    0    0  501 -0.00000000000E+00  0.00000000000E+00  0.17394319342E+03  0.17394319342E+03  0.00000000000E+00 0.  1.
          2   -1    0    0  501    0  0.00000000000E+00 -0.00000000000E+00 -0.12174275740E+04  0.12174275740E+04  0.00000000000E+00 0. -1.
         23    2    1    2    0    0  0.16744277824E+02 -0.26532784522E+03  0.32901837291E+02  0.28263882221E+03  0.90127335650E+02 0.  0.
         11    1    3    3    0    0 -0.31152504421E+02 -0.18163876432E+03  0.21838078704E+02  0.18558022771E+03  0.00000000000E+00 0. -1.
        -11    1    3    3    0    0  0.47896782245E+02 -0.83689080903E+02  0.11063758587E+02  0.97058594498E+02  0.00000000000E+00 0.  1.
         22    1    1    2    0    0 -0.16744277824E+02  0.26532784522E+03 -0.10763862179E+04  0.11087319452E+04  0.00000000000E+00 0. -1.
<mgrwt>
<rscale>  0 0.92035480E+03</rscale>
<asrwt>0</asrwt>
<pdfrwt beam="1">  1        2 0.18729654E+00 0.92035480E+03</pdfrwt>
<pdfrwt beam="2">  1       -2 0.26760492E-01 0.92035480E+03</pdfrwt>
<totfact> 0.23438840E+02</totfact>
</mgrwt>
</event>
<event>
 6    1  0.8968082E-007  0.2215260E+04  0.7818608E-02  0.8512103E-01
         -2   -1    0    0    0  501 -0.00000000000E+00  0.00000000000E+00  0.46153838392E+03  0.46153838392E+03  0.00000000000E+00 0.  1.
          2   -1    0    0  501    0  0.00000000000E+00 -0.00000000000E+00 -0.26581634382E+04  0.26581634382E+04  0.00000000000E+00 0. -1.
         23    2    1    2    0    0  0.64478946734E+03 -0.38122285986E+03  0.45203708932E+02  0.75604352836E+03  0.92054958586E+02 0.  0.
         11    1    3    3    0    0  0.49347491675E+03 -0.31496897386E+03  0.25067597238E+01  0.58543080872E+03  0.00000000000E+00 0. -1.
        -11    1    3    3    0    0  0.15131455059E+03 -0.66253885996E+02  0.42696949208E+02  0.17061271964E+03  0.00000000000E+00 0.  1.
         22    1    1    2    0    0 -0.64478946734E+03  0.38122285986E+03 -0.22418287632E+04  0.23636582937E+04  0.00000000000E+00 0. -1.
<mgrwt>
<rscale>  0 0.22152602E+04</rscale>
<asrwt>0</asrwt>
<pdfrwt beam="1">  1        2 0.40894822E+00 0.22152602E+04</pdfrwt>
<pdfrwt beam="2">  1       -2 0.71005906E-01 0.22152602E+04</pdfrwt>
<totfact> 0.46265609E+00</totfact>
</mgrwt>
</event>
<event>
 6    1  0.8968082E-007  0.7280649E+03  0.7818608E-02  0.9670406E-01
         -1   -1    0    0    0  501 -0.00000000000E+00  0.00000000000E+00  0.14625745703E+03  0.14625745703E+03  0.00000000000E+00 0.  1.
          1   -1    0    0  501    0  0.00000000000E+00 -0.00000000000E+00 -0.90607080414E+03  0.90607080414E+03  0.00000000000E+00 0. -1.
         23    2    1    2    0    0 -0.15067343409E+03 -0.75561891070E+02 -0.84307278141E+03  0.86432768532E+03  0.88761194899E+02 0.  0.
         11    1    3    3    0    0 -0.11283794667E+02 -0.46821345169E+02 -0.20812513957E+03  0.21362498943E+03  0.00000000000E+00 0. -1.
        -11    1    3    3    0    0 -0.13938963943E+03 -0.28740545901E+02 -0.63494764184E+03  0.65070269589E+03  0.00000000000E+00 0.  1.
         22    1    1    2    0    0  0.15067343409E+03  0.75561891070E+02  0.83259434300E+02  0.18800057586E+03  0.00000000000E+00 0.  1.
<mgrwt>
<rscale>  0 0.72806486E+03</rscale>
<asrwt>0</asrwt>
<pdfrwt beam="1">  1        1 0.13939550E+00 0.72806486E+03</pdfrwt>
<pdfrwt beam="2">  1       -1 0.22501148E-01 0.72806486E+03</pdfrwt>
<totfact> 0.30499065E+02</totfact>
</mgrwt>
</event>
<event>
 6    1  0.8968082E-007  0.1997830E+04  0.7818608E-02  0.8607636E-01
          2   -1    0    0  501    0  0.00000000000E+00  0.00000000000E+00  0.27113358898E+04  0.27113358898E+04  0.00000000000E+00 0. -1.
         -2   -1    0    0    0  501 -0.00000000000E+00 -0.00000000000E+00 -0.36802195737E+03  0.36802195737E+03  0.00000000000E+00 0.  1.
         23    2    1    2    0    0 -0.68887451075E+03 -0.53500043564E+03  0.19180081591E+04  0.21089669164E+04  0.90623387028E+02 0.  0.
         11    1    3    3    0    0 -0.37122584967E+03 -0.23544912357E+03  0.10046390029E+04  0.10966058761E+04  0.00000000000E+00 0. -1.
        -11    1    3    3    0    0 -0.31764866108E+03 -0.29955131207E+03  0.91336915618E+03  0.10123610403E+04  0.00000000000E+00 0.  1.
         22    1    1    2    0    0  0.68887451075E+03  0.53500043564E+03  0.42530577328E+03  0.97039093075E+03  0.00000000000E+00 0.  1.
<mgrwt>
<rscale>  0 0.19978300E+04</rscale>
<asrwt>0</asrwt>
<pdfrwt beam="1">  1        2 0.41712859E+00 0.19978300E+04</pdfrwt>
<pdfrwt beam="2">  1       -2 0.56618764E-01 0.19978300E+04</pdfrwt>
<totfact> 0.71176539E+00</totfact>
</mgrwt>
</event>
<event>
 6    1  0.8968082E-007  0.3048737E+04  0.7818608E-02  0.8229949E-01
         -2   -1    0    0    0  501 -0.00000000000E+00  0.00000000000E+00  0.16689585107E+04  0.16689585107E+04  0.00000000000E+00 0.  1.
          2   -1    0    0  501    0  0.00000000000E+00 -0.00000000000E+00 -0.13923050341E+04  0.13923050341E+04  0.00000000000E+00 0. -1.
         23    2    1    2    0    0  0.13294156487E+04  0.63269527835E+03 -0.25259779318E+03  0.14967328840E+04  0.93564943150E+02 0.  0.
         13    1    3    3    0    0  0.11732198962E+04  0.52898427030E+03 -0.20382965425E+03  0.13030026136E+04  0.00000000000E+00 0. -1.
        -13    1    3    3    0    0  0.15619575255E+03  0.10371100805E+03 -0.48768138929E+02  0.19373027043E+03  0.00000000000E+00 0.  1.
         22    1    1    2    0    0 -0.13294156487E+04 -0.63269527835E+03  0.52925126978E+03  0.15645306609E+04  0.00000000000E+00 0. -1.
<mgrwt>
<rscale>  0 0.30487370E+04</rscale>
<asrwt>0</asrwt>
<pdfrwt beam="1">  1        2 0.21420077E+00 0.30487370E+04</pdfrwt>
<pdfrwt beam="2">  1       -2 0.25676285E+00 0.30487370E+04</pdfrwt>
<totfact> 0.72787448E-01</totfact>
</mgrwt>
</event>
<event>
 6    1  0.8968082E-007  0.2630260E+04  0.7818608E-02  0.8357995E-01
          2   -1    0    0  501    0  0.00000000000E+00  0.00000000000E+00  0.10213802287E+04  0.10213802287E+04  0.00000000000E+00 0. -1.
         -2   -1    0    0    0  501 -0.00000000000E+00 -0.00000000000E+00 -0.16933623957E+04  0.16933623957E+04  0.00000000000E+00 0.  1.
         23    2    1    2    0    0 -0.88547085530E+03  0.50827188622E+03  0.51660876737E+03  0.11478516406E+04  0.90993540773E+02 0.  0.
         13    1    3    3    0    0 -0.59309311901E+03  0.35165132583E+03  0.30165254574E+03  0.75260372117E+03  0.00000000000E+00 0. -1.
        -13    1    3    3    0    0 -0.29237773630E+03  0.15662056039E+03  0.21495622163E+03  0.39524791946E+03  0.00000000000E+00 0.  1.
         22    1    1    2    0    0  0.88547085530E+03 -0.50827188622E+03 -0.11885909343E+04  0.15668909838E+04  0.00000000000E+00 0.  1.
<mgrwt>
<rscale>  0 0.26302600E+04</rscale>
<asrwt>0</asrwt>
<pdfrwt beam="1">  1        2 0.15713542E+00 0.26302600E+04</pdfrwt>
<pdfrwt beam="2">  1       -2 0.26051729E+00 0.26302600E+04</pdfrwt>
<totfact> 0.11927079E+00</totfact>
</mgrwt>
</event>
<event>
 6    1  0.8968082E-007  0.2134370E+04  0.7818608E-02  0.8546253E-01
         -2   -1    0    0    0  501 -0.00000000000E+00  0.00000000000E+00  0.13965059956E+04  0.13965059956E+04  0.00000000000E+00 0.  1.
          2   -1    0    0  501    0  0.00000000000E+00 -0.00000000000E+00 -0.81552361648E+03  0.81552361648E+03  0.00000000000E+00 0. -1.
         23    2    1    2    0    0  0.40396588162E+03 -0.32569078509E+03 -0.67278296258E+03  0.85512487959E+03  0.96637073375E+02 0.  0.
         13    1    3    3    0    0  0.17652179694E+03 -0.20380449461E+03 -0.35429877150E+03  0.44522335553E+03  0.00000000000E+00 0.  1.
        -13    1    3    3    0    0  0.22744408468E+03 -0.12188629047E+03 -0.31848419108E+03  0.40990152406E+03  0.00000000000E+00 0. -1.
         22    1    1    2    0    0 -0.40396588162E+03  0.32569078509E+03  0.12537653417E+04  0.13569047325E+04  0.00000000000E+00 0.  1.
<mgrwt>
<rscale>  0 0.21343698E+04</rscale>
<asrwt>0</asrwt>
<pdfrwt beam="1">  1        2 0.12546517E+00 0.21343698E+04</pdfrwt>
<pdfrwt beam="2">  1       -2 0.21484708E+00 0.21343698E+04</pdfrwt>
<totfact> 0.32870312E+00</totfact>
</mgrwt>
</event>
<event>
 6    1  0.8968082E-007  0.1052324E+04  0.7818608E-02  0.9252948E-01
         -1   -1    0    0    0  501 -0.00000000000E+00  0.00000000000E+00  0.30486602561E+03  0.30486602561E+03  0.00000000000E+00 0.  1.
          1   -1    0    0  501    0  0.00000000000E+00 -0.00000000000E+00 -0.90809270130E+03  0.90809270130E+03  0.00000000000E+00 0. -1.
         23    2    1    2    0    0  0.15055273872E+03  0.23728677310E+03 -0.81121172219E+03  0.86334619940E+03  0.91274651337E+02 0.  0.
         13    1    3    3    0    0  0.10496052411E+03  0.17261028803E+03 -0.44538639174E+03  0.48906038595E+03  0.00000000000E+00 0. -1.
        -13    1    3    3    0    0  0.45592214616E+02  0.64676485067E+02 -0.36582533045E+03  0.37428581345E+03  0.00000000000E+00 0.  1.
         22    1    1    2    0    0 -0.15055273872E+03 -0.23728677310E+03  0.20798504650E+03  0.34961252751E+03  0.00000000000E+00 0.  1.
<mgrwt>
<rscale>  0 0.10523243E+04</rscale>
<asrwt>0</asrwt>
<pdfrwt beam="1">  1        1 0.13970657E+00 0.10523243E+04</pdfrwt>
<pdfrwt beam="2">  1       -1 0.46902465E-01 0.10523243E+04</pdfrwt>
<totfact> 0.81118587E+01</totfact>
</mgrwt>
</event>
<event>
 6    1  0.8968082E-007  0.1902822E+04  0.7818608E-02  0.8653453E-01
         -2   -1    0    0    0  501 -0.00000000000E+00  0.00000000000E+00  0.19175783983E+04  0.19175783983E+04  0.00000000000E+00 0.  1.
          2   -1    0    0  501    0  0.00000000000E+00 -0.00000000000E+00 -0.47204498130E+03  0.47204498130E+03  0.00000000000E+00 0. -1.
         23    2    1    2    0    0 -0.34311075983E+03 -0.74392149191E+03  0.13271460819E+04  0.15618796145E+04  0.83707990488E+02 0.  0.
         13    1    3    3    0    0 -0.72888651202E+02 -0.24033310463E+03  0.43834160025E+03  0.50518918750E+03  0.00000000000E+00 0.  1.
        -13    1    3    3    0    0 -0.27022210863E+03 -0.50358838729E+03  0.88880448166E+03  0.10566904270E+04  0.00000000000E+00 0. -1.
         22    1    1    2    0    0  0.34311075983E+03  0.74392149191E+03  0.11838733510E+03  0.82774376516E+03  0.00000000000E+00 0. -1.
<mgrwt>
<rscale>  0 0.19028224E+04</rscale>
<asrwt>0</asrwt>
<pdfrwt beam="1">  1        2 0.72622306E-01 0.19028224E+04</pdfrwt>
<pdfrwt beam="2">  1       -2 0.29501206E+00 0.19028224E+04</pdfrwt>
<totfact> 0.21041113E+00</totfact>
</mgrwt>
</event>
<event>
 6    1  0.8968082E-007  0.3009427E+04  0.7818608E-02  0.8241044E-01
         -2   -1    0    0    0  501 -0.00000000000E+00  0.00000000000E+00  0.12959818639E+04  0.12959818639E+04  0.00000000000E+00 0.  1.
          2   -1    0    0  501    0  0.00000000000E+00 -0.00000000000E+00 -0.17470639728E+04  0.17470639728E+04  0.00000000000E+00 0. -1.
         23    2    1    2    0    0 -0.47934496701E+03  0.85124256648E+03  0.93002071080E+03  0.13513512711E+04  0.82621008767E+02 0.  0.
         11    1    3    3    0    0 -0.20903959232E+03  0.33513393658E+03  0.32600067270E+03  0.51214133323E+03  0.00000000000E+00 0. -1.
        -11    1    3    3    0    0 -0.27030537469E+03  0.51610862990E+03  0.60402003810E+03  0.83920993790E+03  0.00000000000E+00 0.  1.
         22    1    1    2    0    0  0.47934496701E+03 -0.85124256648E+03 -0.13811028198E+04  0.16916945656E+04  0.00000000000E+00 0. -1.
<mgrwt>
<rscale>  0 0.30094273E+04</rscale>
<asrwt>0</asrwt>
<pdfrwt beam="1">  1        2 0.26877907E+00 0.30094273E+04</pdfrwt>
<pdfrwt beam="2">  1       -2 0.19938183E+00 0.30094273E+04</pdfrwt>
<totfact> 0.10603939E+00</totfact>
</mgrwt>
</event>
<event>
 6    1  0.8968082E-007  0.2433020E+04  0.7818608E-02  0.8427244E-01
         -1   -1    0    0    0  501 -0.00000000000E+00  0.00000000000E+00  0.82039058736E+03  0.82039058736E+03  0.00000000000E+00 0.  1.
          1   -1    0    0  501    0  0.00000000000E+00 -0.00000000000E+00 -0.18038929586E+04  0.18038929586E+04  0.00000000000E+00 0. -1.
         23    2    1    2    0    0 -0.35409738474E+03 -0.11607267857E+04 -0.43203213720E+03  0.12913202877E+04  0.90469270710E+02 0.  0.
         11    1    3    3    0    0 -0.23867205500E+03 -0.71615246636E+03 -0.31017081945E+03  0.81611558137E+03  0.00000000000E+00 0. -1.
        -11    1    3    3    0    0 -0.11542532974E+03 -0.44457431932E+03 -0.12186131775E+03  0.47520470632E+03  0.00000000000E+00 0.  1.
         22    1    1    2    0    0  0.35409738474E+03  0.11607267857E+04 -0.55147023405E+03  0.13329632583E+04  0.00000000000E+00 0. -1.
<mgrwt>
<rscale>  0 0.24330202E+04</rscale>
<asrwt>0</asrwt>
<pdfrwt beam="1">  1        1 0.27752199E+00 0.24330202E+04</pdfrwt>
<pdfrwt beam="2">  1       -1 0.12621394E+00 0.24330202E+04</pdfrwt>
<totfact> 0.19764392E+00</totfact>
</mgrwt>
</event>
<event>
 6    1  0.8968082E-007  0.1812021E+04  0.7818608E-02  0.8699933E-01
          2   -1    0    0  501    0  0.00000000000E+00  0.00000000000E+00  0.12766678393E+04  0.12766678393E+04  0.00000000000E+00 0. -1.
         -2   -1    0    0    0  501 -0.00000000000E+00 -0.00000000000E+00 -0.64296696916E+03  0.64296696916E+03  0.00000000000E+00 0.  1.
         23    2    1    2    0    0 -0.38224826090E+02 -0.79035489429E+03  0.78020841921E+03  0.11149072408E+04  0.90393484149E+02 0.  0.
         11    1    3    3    0    0 -0.28252568700E+02 -0.10631321174E+03  0.13909808876E+03  0.17733861657E+03  0.00000000000E+00 0. -1.
        -11    1    3    3    0    0 -0.99722573902E+01 -0.68404168254E+03  0.64111033045E+03  0.93756862425E+03  0.00000000000E+00 0.  1.
         22    1    1    2    0    0  0.38224826090E+02  0.79035489429E+03 -0.14650754904E+03  0.80472756768E+03  0.00000000000E+00 0.  1.
<mgrwt>
<rscale>  0 0.18120212E+04</rscale>
<asrwt>0</asrwt>
<pdfrwt beam="1">  1        2 0.19641044E+00 0.18120212E+04</pdfrwt>
<pdfrwt beam="2">  1       -2 0.98917996E-01 0.18120212E+04</pdfrwt>
<totfact> 0.13639236E+01</totfact>
</mgrwt>
</event>
<event>
 6    1  0.8968082E-007  0.1237238E+04  0.7818608E-02  0.9080873E-01
         -1   -1    0    0    0  501 -0.00000000000E+00  0.00000000000E+00  0.23289012304E+03  0.23289012304E+03  0.00000000000E+00 0.  1.
          1   -1    0    0  501    0  0.00000000000E+00 -0.00000000000E+00 -0.16432178328E+04  0.16432178328E+04  0.00000000000E+00 0. -1.
         23    2    1    2    0    0  0.19821574676E+03 -0.19703057717E+03 -0.15402021131E+04  0.15679231229E+04  0.89720898164E+02 0.  0.
         11    1    3    3    0    0  0.62171332743E+02 -0.66795583781E+02 -0.75284068287E+03  0.75835085443E+03  0.00000000000E+00 0. -1.
        -11    1    3    3    0    0  0.13604441401E+03 -0.13023499339E+03 -0.78736143026E+03  0.80957226852E+03  0.00000000000E+00 0.  1.
         22    1    1    2    0    0 -0.19821574676E+03  0.19703057717E+03  0.12987440334E+03  0.30818483293E+03  0.00000000000E+00 0.  1.
<mgrwt>
<rscale>  0 0.12372376E+04</rscale>
<asrwt>0</asrwt>
<pdfrwt beam="1">  1        1 0.25280275E+00 0.12372376E+04</pdfrwt>
<pdfrwt beam="2">  1       -1 0.35829249E-01 0.12372376E+04</pdfrwt>
<totfact> 0.38277514E+01</totfact>
</mgrwt>
</event>
<event>
 6    1  0.8968082E-007  0.1346934E+04  0.7818608E-02  0.8993152E-01
         -2   -1    0    0    0  501 -0.00000000000E+00  0.00000000000E+00  0.12796105264E+03  0.12796105264E+03  0.00000000000E+00 0.  1.
          2   -1    0    0  501    0  0.00000000000E+00 -0.00000000000E+00 -0.35444984923E+04  0.35444984923E+04  0.00000000000E+00 0. -1.
         23    2    1    2    0    0 -0.56758768991E+03  0.63358551228E+02 -0.26733075971E+04  0.27351438614E+04  0.90930424358E+02 0.  0.
         11    1    3    3    0    0 -0.43437182182E+03  0.97053502820E+01 -0.19767083577E+04  0.20238945143E+04  0.00000000000E+00 0.  1.
        -11    1    3    3    0    0 -0.13321586809E+03  0.53653200946E+02 -0.69659923931E+03  0.71124934706E+03  0.00000000000E+00 0. -1.
         22    1    1    2    0    0  0.56758768991E+03 -0.63358551228E+02 -0.74322984257E+03  0.93731568356E+03  0.00000000000E+00 0.  1.
<mgrwt>
<rscale>  0 0.13469339E+04</rscale>
<asrwt>0</asrwt>
<pdfrwt beam="1">  1        2 0.54530740E+00 0.13469339E+04</pdfrwt>
<pdfrwt beam="2">  1       -2 0.19686318E-01 0.13469339E+04</pdfrwt>
<totfact> 0.16568074E+01</totfact>
</mgrwt>
</event>
<event>
 6    1  0.8968082E-007  0.8762375E+03  0.7818608E-02  0.9455783E-01
         -1   -1    0    0    0  501 -0.00000000000E+00  0.00000000000E+00  0.90758578900E+02  0.90758578900E+02  0.00000000000E+00 0.  1.
          1   -1    0    0  501    0  0.00000000000E+00 -0.00000000000E+00 -0.21149300206E+04  0.21149300206E+04  0.00000000000E+00 0. -1.
         23    2    1    2    0    0  0.19058762519E+03 -0.32640396705E+03 -0.48906604164E+03  0.62473579126E+03  0.90807616499E+02 0.  0.
         13    1    3    3    0    0  0.16557802531E+03 -0.26516403424E+03 -0.44993870123E+03  0.54788035408E+03  0.00000000000E+00 0. -1.
        -13    1    3    3    0    0  0.25009599880E+02 -0.61239932805E+02 -0.39127340401E+02  0.76855437172E+02  0.00000000000E+00 0.  1.
         22    1    1    2    0    0 -0.19058762519E+03  0.32640396705E+03 -0.15351054000E+04  0.15809528082E+04  0.00000000000E+00 0. -1.
<mgrwt>
<rscale>  0 0.87623751E+03</rscale>
<asrwt>0</asrwt>
<pdfrwt beam="1">  1        1 0.32537380E+00 0.87623751E+03</pdfrwt>
<pdfrwt beam="2">  1       -1 0.13962860E-01 0.87623751E+03</pdfrwt>
<totfact> 0.93900189E+01</totfact>
</mgrwt>
</event>
<event>
 6    1  0.8968082E-007  0.3558457E+04  0.7818608E-02  0.8100074E-01
          2   -1    0    0  501    0  0.00000000000E+00  0.00000000000E+00  0.23825425330E+04  0.23825425330E+04  0.00000000000E+00 0. -1.
         -2   -1    0    0    0  501 -0.00000000000E+00 -0.00000000000E+00 -0.13286874898E+04  0.13286874898E+04  0.00000000000E+00 0.  1.
         23    2    1    2    0    0 -0.33437601323E+03  0.11181628750E+04  0.19263316341E+04  0.22540715088E+04  0.89382711439E+02 0.  0.
         13    1    3    3    0    0 -0.14904654834E+03  0.64054148869E+03  0.10488908460E+04  0.12380146522E+04  0.00000000000E+00 0. -1.
        -13    1    3    3    0    0 -0.18532946489E+03  0.47762138635E+03  0.87744078813E+03  0.10160568566E+04  0.00000000000E+00 0.  1.
         22    1    1    2    0    0  0.33437601323E+03 -0.11181628750E+04 -0.87247659083E+03  0.14571585140E+04  0.00000000000E+00 0.  1.
<mgrwt>
<rscale>  0 0.35584572E+04</rscale>
<asrwt>0</asrwt>
<pdfrwt beam="1">  1        2 0.36654501E+00 0.35584572E+04</pdfrwt>
<pdfrwt beam="2">  1       -2 0.20441346E+00 0.35584572E+04</pdfrwt>
<totfact> 0.41401641E-01</totfact>
</mgrwt>
</event>
<event>
 6    1  0.8968082E-007  0.1525963E+04  0.7818608E-02  0.8867369E-01
          2   -1    0    0  501    0  0.00000000000E+00  0.00000000000E+00  0.54310269747E+03  0.54310269747E+03  0.00000000000E+00 0. -1.
         -2   -1    0    0    0  501 -0.00000000000E+00 -0.00000000000E+00 -0.10718798236E+04  0.10718798236E+04  0.00000000000E+00 0.  1.
         23    2    1    2    0    0 -0.36558638950E+03 -0.37232473060E+02 -0.96973745505E+03  0.10409740917E+04  0.90535422222E+02 0.  0.
         11    1    3    3    0    0 -0.23218701616E+03  0.12502276645E+02 -0.66857949660E+03  0.70785991599E+03  0.00000000000E+00 0. -1.
        -11    1    3    3    0    0 -0.13339937335E+03 -0.49734749705E+02 -0.30115795845E+03  0.33311417573E+03  0.00000000000E+00 0.  1.
         22    1    1    2    0    0  0.36558638950E+03  0.37232473060E+02  0.44096032894E+03  0.57400842933E+03  0.00000000000E+00 0. -1.
<mgrwt>
<rscale>  0 0.15259631E+04</rscale>
<asrwt>0</asrwt>
<pdfrwt beam="1">  1        2 0.83554261E-01 0.15259631E+04</pdfrwt>
<pdfrwt beam="2">  1       -2 0.16490459E+00 0.15259631E+04</pdfrwt>
<totfact> 0.12483712E+01</totfact>
</mgrwt>
</event>
<event>
 6    1  0.8968082E-007  0.1016242E+04  0.7818608E-02  0.9290908E-01
          2   -1    0    0  501    0  0.00000000000E+00  0.00000000000E+00  0.85991061460E+03  0.85991061460E+03  0.00000000000E+00 0. -1.
         -2   -1    0    0    0  501 -0.00000000000E+00 -0.00000000000E+00 -0.30024853601E+03  0.30024853601E+03  0.00000000000E+00 0.  1.
         23    2    1    2    0    0  0.49023856723E+03 -0.16601506504E+02  0.41265000870E+03  0.64808297316E+03  0.95509411064E+02 0.  0.
         11    1    3    3    0    0  0.16536938106E+03  0.18073420251E+02  0.19094876239E+03  0.25324910774E+03  0.00000000000E+00 0.  1.
        -11    1    3    3    0    0  0.32486918617E+03 -0.34674926755E+02  0.22170124631E+03  0.39483386542E+03  0.00000000000E+00 0. -1.
         22    1    1    2    0    0 -0.49023856723E+03  0.16601506504E+02  0.14701206988E+03  0.51207617745E+03  0.00000000000E+00 0.  1.
<mgrwt>
<rscale>  0 0.10162419E+04</rscale>
<asrwt>0</asrwt>
<pdfrwt beam="1">  1        2 0.13229394E+00 0.10162419E+04</pdfrwt>
<pdfrwt beam="2">  1       -2 0.46192083E-01 0.10162419E+04</pdfrwt>
<totfact> 0.13842794E+02</totfact>
</mgrwt>
</event>
<event>
 6    1  0.8968082E-007  0.2875659E+04  0.7818608E-02  0.8280157E-01
          1   -1    0    0  501    0  0.00000000000E+00  0.00000000000E+00  0.26201004588E+04  0.26201004588E+04  0.00000000000E+00 0. -1.
         -1   -1    0    0    0  501 -0.00000000000E+00 -0.00000000000E+00 -0.78903619534E+03  0.78903619534E+03  0.00000000000E+00 0.  1.
         23    2    1    2    0    0  0.64988883517E+03 -0.10164652826E+04 -0.78319829446E+01  0.12097966227E+04  0.89383217370E+02 0.  0.
         11    1    3    3    0    0  0.40932281353E+03 -0.69577336935E+03  0.24358081261E+02  0.80761318916E+03  0.00000000000E+00 0.  1.
        -11    1    3    3    0    0  0.24056602163E+03 -0.32069191325E+03 -0.32190064206E+02  0.40218343355E+03  0.00000000000E+00 0. -1.
         22    1    1    2    0    0 -0.64988883517E+03  0.10164652826E+04  0.18388962464E+04  0.21993400315E+04  0.00000000000E+00 0. -1.
<mgrwt>
<rscale>  0 0.28756593E+04</rscale>
<asrwt>0</asrwt>
<pdfrwt beam="1">  1        1 0.40309237E+00 0.28756593E+04</pdfrwt>
<pdfrwt beam="2">  1       -1 0.12139019E+00 0.28756593E+04</pdfrwt>
<totfact> 0.57791683E-01</totfact>
</mgrwt>
</event>
<event>
 6    1  0.8968082E-007  0.2158733E+04  0.7818608E-02  0.8535803E-01
          1   -1    0    0  501    0  0.00000000000E+00  0.00000000000E+00  0.15793668137E+04  0.15793668137E+04  0.00000000000E+00 0. -1.
         -1   -1    0    0    0  501 -0.00000000000E+00 -0.00000000000E+00 -0.73765752361E+03  0.73765752361E+03  0.00000000000E+00 0.  1.
         23    2    1    2    0    0  0.36832067953E+03 -0.68146740635E+03  0.12253865679E+04  0.14525787333E+04  0.91404521897E+02 0.  0.
         13    1    3    3    0    0  0.17514270640E+03 -0.41014258904E+03  0.66550942465E+03  0.80112090551E+03  0.00000000000E+00 0. -1.
        -13    1    3    3    0    0  0.19317797313E+03 -0.27132481731E+03  0.55987714329E+03  0.65145782777E+03  0.00000000000E+00 0.  1.
         22    1    1    2    0    0 -0.36832067953E+03  0.68146740635E+03 -0.38367727781E+03  0.86444560407E+03  0.00000000000E+00 0.  1.
<mgrwt>
<rscale>  0 0.21587328E+04</rscale>
<asrwt>0</asrwt>
<pdfrwt beam="1">  1        1 0.24297951E+00 0.21587328E+04</pdfrwt>
<pdfrwt beam="2">  1       -1 0.11348577E+00 0.21587328E+04</pdfrwt>
<totfact> 0.37378389E+00</totfact>
</mgrwt>
</event>
<event>
 6    1  0.8968082E-007  0.3187189E+04  0.7818608E-02  0.8192209E-01
         -2   -1    0    0    0  501 -0.00000000000E+00  0.00000000000E+00  0.22334237922E+04  0.22334237922E+04  0.00000000000E+00 0.  1.
          2   -1    0    0  501    0  0.00000000000E+00 -0.00000000000E+00 -0.11370626449E+04  0.11370626449E+04  0.00000000000E+00 0. -1.
         23    2    1    2    0    0 -0.42090673783E+03  0.11465929256E+04  0.16290197275E+04  0.20379839111E+04  0.88517401564E+02 0.  0.
         11    1    3    3    0    0 -0.18035100759E+03  0.59116633497E+03  0.77670081823E+03  0.99260681167E+03  0.00000000000E+00 0. -1.
        -11    1    3    3    0    0 -0.24055573024E+03  0.55542659059E+03  0.85231890926E+03  0.10453770994E+04  0.00000000000E+00 0.  1.
         22    1    1    2    0    0  0.42090673783E+03 -0.11465929256E+04 -0.53265858022E+03  0.13325025261E+04  0.00000000000E+00 0. -1.
<mgrwt>
<rscale>  0 0.31871886E+04</rscale>
<asrwt>0</asrwt>
<pdfrwt beam="1">  1        2 0.17493272E+00 0.31871886E+04</pdfrwt>
<pdfrwt beam="2">  1       -2 0.34360366E+00 0.31871886E+04</pdfrwt>
<totfact> 0.29736435E-01</totfact>
</mgrwt>
</event>
<event>
 6    1  0.8968082E-007  0.3624605E+04  0.7818608E-02  0.8084879E-01
         -2   -1    0    0    0  501 -0.00000000000E+00  0.00000000000E+00  0.23448503263E+04  0.23448503263E+04  0.00000000000E+00 0.  1.
          2   -1    0    0  501    0  0.00000000000E+00 -0.00000000000E+00 -0.14007035038E+04  0.14007035038E+04  0.00000000000E+00 0. -1.
         23    2    1    2    0    0 -0.35371159313E+03 -0.77612392083E+03  0.21233761508E+04  0.22901975025E+04  0.93798139142E+02 0.  0.
         13    1    3    3    0    0 -0.12130113559E+03 -0.24763060825E+03  0.57531647354E+03  0.63798426968E+03  0.00000000000E+00 0. -1.
        -13    1    3    3    0    0 -0.23241045754E+03 -0.52849331259E+03  0.15480596773E+04  0.16522132328E+04  0.00000000000E+00 0.  1.
         22    1    1    2    0    0  0.35371159313E+03  0.77612392083E+03 -0.11792293283E+04  0.14553563276E+04  0.00000000000E+00 0. -1.
<mgrwt>
<rscale>  0 0.36246048E+04</rscale>
<asrwt>0</asrwt>
<pdfrwt beam="1">  1        2 0.21549285E+00 0.36246048E+04</pdfrwt>
<pdfrwt beam="2">  1       -2 0.36074620E+00 0.36246048E+04</pdfrwt>
<totfact> 0.15633961E-01</totfact>
</mgrwt>
</event>
<event>
 6    1  0.8968082E-007  0.3051732E+04  0.7818608E-02  0.8229111E-01
         -1   -1    0    0    0  501 -0.00000000000E+00  0.00000000000E+00  0.13597242287E+04  0.13597242287E+04  0.00000000000E+00 0.  1.
          1   -1    0    0  501    0  0.00000000000E+00 -0.00000000000E+00 -0.17123082863E+04  0.17123082863E+04  0.00000000000E+00 0. -1.
         23    2    1    2    0    0  0.41689947645E+03 -0.14054968567E+04  0.24572809201E+03  0.14886172138E+04  0.79826851923E+02 0.  0.
         13    1    3    3    0    0  0.22083408654E+03 -0.72126646035E+03  0.86526507909E+02  0.75926269313E+03  0.00000000000E+00 0.  1.
        -13    1    3    3    0    0  0.19606538991E+03 -0.68423039635E+03  0.15920158410E+03  0.72935452065E+03  0.00000000000E+00 0. -1.
         22    1    1    2    0    0 -0.41689947645E+03  0.14054968567E+04 -0.59831214969E+03  0.15834153012E+04  0.00000000000E+00 0. -1.
<mgrwt>
<rscale>  0 0.30517320E+04</rscale>
<asrwt>0</asrwt>
<pdfrwt beam="1">  1        1 0.26343204E+00 0.30517320E+04</pdfrwt>
<pdfrwt beam="2">  1       -1 0.20918834E+00 0.30517320E+04</pdfrwt>
<totfact> 0.51574792E-01</totfact>
</mgrwt>
</event>
<event>
 6    1  0.8968082E-007  0.1574264E+04  0.7818608E-02  0.8836516E-01
          2   -1    0    0  501    0  0.00000000000E+00  0.00000000000E+00  0.19937089225E+04  0.19937089225E+04  0.00000000000E+00 0. -1.
         -2   -1    0    0    0  501 -0.00000000000E+00 -0.00000000000E+00 -0.31076605740E+03  0.31076605740E+03  0.00000000000E+00 0.  1.
         23    2    1    2    0    0  0.70576642429E+02  0.63179488638E+03  0.17179563282E+03  0.66505075215E+03  0.92913521998E+02 0.  0.
         11    1    3    3    0    0 -0.22888982751E+02  0.14338657012E+03  0.37668867932E+02  0.15000852520E+03  0.00000000000E+00 0. -1.
        -11    1    3    3    0    0  0.93465625180E+02  0.48840831626E+03  0.13412676489E+03  0.51504222695E+03  0.00000000000E+00 0.  1.
         22    1    1    2    0    0 -0.70576642429E+02 -0.63179488638E+03  0.15111472323E+04  0.16394242278E+04  0.00000000000E+00 0. -1.
<mgrwt>
<rscale>  0 0.15742644E+04</rscale>
<asrwt>0</asrwt>
<pdfrwt beam="1">  1        2 0.30672444E+00 0.15742644E+04</pdfrwt>
<pdfrwt beam="2">  1       -2 0.47810164E-01 0.15742644E+04</pdfrwt>
<totfact> 0.26831899E+01</totfact>
</mgrwt>
</event>
<event>
 6    1  0.8968082E-007  0.3148522E+04  0.7818608E-02  0.8202546E-01
         -1   -1    0    0    0  501 -0.00000000000E+00  0.00000000000E+00  0.12463231028E+04  0.12463231028E+04  0.00000000000E+00 0.  1.
          1   -1    0    0  501    0  0.00000000000E+00 -0.00000000000E+00 -0.19884878679E+04  0.19884878679E+04  0.00000000000E+00 0. -1.
         23    2    1    2    0    0 -0.45436209551E+03  0.11863724086E+03  0.11709428239E+04  0.12649124059E+04  0.91523707359E+02 0.  0.
         13    1    3    3    0    0 -0.33542259679E+03  0.12560208429E+03  0.91475450442E+03  0.98237467668E+03  0.00000000000E+00 0. -1.
        -13    1    3    3    0    0 -0.11893949872E+03 -0.69648434236E+01  0.25618831949E+03  0.28253772924E+03  0.00000000000E+00 0.  1.
         22    1    1    2    0    0  0.45436209551E+03 -0.11863724086E+03 -0.19131075890E+04  0.19698985648E+04  0.00000000000E+00 0. -1.
<mgrwt>
<rscale>  0 0.31485224E+04</rscale>
<asrwt>0</asrwt>
<pdfrwt beam="1">  1        1 0.30592121E+00 0.31485224E+04</pdfrwt>
<pdfrwt beam="2">  1       -1 0.19174202E+00 0.31485224E+04</pdfrwt>
<totfact> 0.43803979E-01</totfact>
</mgrwt>
</event>
<event>
 6    1  0.8968082E-007  0.1474873E+04  0.7818608E-02  0.8901336E-01
         -2   -1    0    0    0  501 -0.00000000000E+00  0.00000000000E+00  0.38192310604E+03  0.38192310604E+03  0.00000000000E+00 0.  1.
          2   -1    0    0  501    0  0.00000000000E+00 -0.00000000000E+00 -0.14238797954E+04  0.14238797954E+04  0.00000000000E+00 0. -1.
         23    2    1    2    0    0  0.65613136985E+03  0.26525614505E+03 -0.28120907855E+03  0.76676193769E+03  0.89309161038E+02 0.  0.
         11    1    3    3    0    0  0.30466940493E+03  0.11197980852E+03 -0.17561165059E+03  0.36905606029E+03  0.00000000000E+00 0. -1.
        -11    1    3    3    0    0  0.35146196492E+03  0.15327633653E+03 -0.10559742796E+03  0.39770587739E+03  0.00000000000E+00 0.  1.
         22    1    1    2    0    0 -0.65613136985E+03 -0.26525614505E+03 -0.76074761082E+03  0.10390409637E+04  0.00000000000E+00 0.  1.
<mgrwt>
<rscale>  0 0.14748730E+04</rscale>
<asrwt>0</asrwt>
<pdfrwt beam="1">  1        2 0.21905843E+00 0.14748730E+04</pdfrwt>
<pdfrwt beam="2">  1       -2 0.58757401E-01 0.14748730E+04</pdfrwt>
<totfact> 0.36740185E+01</totfact>
</mgrwt>
</event>
<event>
 6    1  0.8968082E-007  0.1022594E+04  0.7818608E-02  0.9284105E-01
          1   -1    0    0  501    0  0.00000000000E+00  0.00000000000E+00  0.26114370717E+03  0.26114370717E+03  0.00000000000E+00 0. -1.
         -1   -1    0    0    0  501 -0.00000000000E+00 -0.00000000000E+00 -0.10010761124E+04  0.10010761124E+04  0.00000000000E+00 0.  1.
         23    2    1    2    0    0  0.99344365740E+02 -0.49472707398E+03 -0.43696799328E+03  0.67365239300E+03  0.90787326845E+02 0.  0.
         11    1    3    3    0    0  0.94753969491E+02 -0.30326948444E+03 -0.30979649333E+03  0.44376183050E+03  0.00000000000E+00 0.  1.
        -11    1    3    3    0    0  0.45903962487E+01 -0.19145758954E+03 -0.12717149995E+03  0.22989056250E+03  0.00000000000E+00 0. -1.
         22    1    1    2    0    0 -0.99344365740E+02  0.49472707398E+03 -0.30296441198E+03  0.58856742660E+03  0.00000000000E+00 0. -1.
<mgrwt>
<rscale>  0 0.10225942E+04</rscale>
<asrwt>0</asrwt>
<pdfrwt beam="1">  1        1 0.40175954E-01 0.10225942E+04</pdfrwt>
<pdfrwt beam="2">  1       -1 0.15401171E+00 0.10225942E+04</pdfrwt>
<totfact> 0.34175079E+01</totfact>
</mgrwt>
</event>
<event>
 6    1  0.8968082E-007  0.2068003E+04  0.7818608E-02  0.8575471E-01
         -2   -1    0    0    0  501 -0.00000000000E+00  0.00000000000E+00  0.53703627134E+03  0.53703627134E+03  0.00000000000E+00 0.  1.
          2   -1    0    0  501    0  0.00000000000E+00 -0.00000000000E+00 -0.19908499055E+04  0.19908499055E+04  0.00000000000E+00 0. -1.
         23    2    1    2    0    0 -0.56930640227E+03 -0.20254721678E+03  0.29394832611E+03  0.67861415130E+03  0.94743829531E+02 0.  0.
         13    1    3    3    0    0 -0.20433469954E+03 -0.11262350499E+03  0.83388939588E+02  0.24777093969E+03  0.00000000000E+00 0.  1.
        -13    1    3    3    0    0 -0.36497170273E+03 -0.89923711796E+02  0.21055938652E+03  0.43084321161E+03  0.00000000000E+00 0. -1.
         22    1    1    2    0    0  0.56930640227E+03  0.20254721678E+03 -0.17477619602E+04  0.18492720255E+04  0.00000000000E+00 0. -1.
<mgrwt>
<rscale>  0 0.20680025E+04</rscale>
<asrwt>0</asrwt>
<pdfrwt beam="1">  1        2 0.30628460E+00 0.20680025E+04</pdfrwt>
<pdfrwt beam="2">  1       -2 0.82620965E-01 0.20680025E+04</pdfrwt>
<totfact> 0.80266064E+00</totfact>
</mgrwt>
</event>
<event>
 6    1  0.8968082E-007  0.2413597E+04  0.7818608E-02  0.8434431E-01
         -2   -1    0    0    0  501 -0.00000000000E+00  0.00000000000E+00  0.13136859177E+04  0.13136859177E+04  0.00000000000E+00 0.  1.
          2   -1    0    0  501    0  0.00000000000E+00 -0.00000000000E+00 -0.11086074982E+04  0.11086074982E+04  0.00000000000E+00 0. -1.
         23    2    1    2    0    0  0.32664337032E+03 -0.10144705878E+04  0.66714154920E+03  0.12606786774E+04  0.91577378069E+02 0.  0.
         11    1    3    3    0    0  0.92477108665E+02 -0.29935135695E+03  0.24612870597E+03  0.39842513780E+03  0.00000000000E+00 0.  1.
        -11    1    3    3    0    0  0.23416626166E+03 -0.71511923083E+03  0.42101284324E+03  0.86225353961E+03  0.00000000000E+00 0. -1.
         22    1    1    2    0    0 -0.32664337032E+03  0.10144705878E+04 -0.46206312976E+03  0.11616147385E+04  0.00000000000E+00 0. -1.
<mgrwt>
<rscale>  0 0.24135965E+04</rscale>
<asrwt>0</asrwt>
<pdfrwt beam="1">  1        2 0.17055500E+00 0.24135965E+04</pdfrwt>
<pdfrwt beam="2">  1       -2 0.20210553E+00 0.24135965E+04</pdfrwt>
<totfact> 0.24903201E+00</totfact>
</mgrwt>
</event>
<event>
 6    1  0.8968082E-007  0.2052172E+04  0.7818608E-02  0.8582610E-01
          2   -1    0    0  501    0  0.00000000000E+00  0.00000000000E+00  0.11256365616E+04  0.11256365616E+04  0.00000000000E+00 0. -1.
         -2   -1    0    0    0  501 -0.00000000000E+00 -0.00000000000E+00 -0.93533964374E+03  0.93533964374E+03  0.00000000000E+00 0.  1.
         23    2    1    2    0    0  0.62195640900E+02  0.98977671425E+03 -0.15825632902E+03  0.10097789795E+04  0.10527240784E+03 0.  0.
         11    1    3    3    0    0  0.25031120598E+02  0.45580474181E+03 -0.12591578461E+03  0.47353912665E+03  0.00000000000E+00 0.  1.
        -11    1    3    3    0    0  0.37164520303E+02  0.53397197244E+03 -0.32340544406E+02  0.53623985280E+03  0.00000000000E+00 0. -1.
         22    1    1    2    0    0 -0.62195640900E+02 -0.98977671425E+03  0.34855324690E+03  0.10511972259E+04  0.00000000000E+00 0. -1.
<mgrwt>
<rscale>  0 0.20521720E+04</rscale>
<asrwt>0</asrwt>
<pdfrwt beam="1">  1        2 0.17317486E+00 0.20521720E+04</pdfrwt>
<pdfrwt beam="2">  1       -2 0.14389841E+00 0.20521720E+04</pdfrwt>
<totfact> 0.64979535E+00</totfact>
</mgrwt>
</event>
<event>
 6    1  0.8968082E-007  0.1043238E+04  0.7818608E-02  0.9262354E-01
          2   -1    0    0  501    0  0.00000000000E+00  0.00000000000E+00  0.14017854427E+04  0.14017854427E+04  0.00000000000E+00 0. -1.
         -2   -1    0    0    0  501 -0.00000000000E+00 -0.00000000000E+00 -0.19409979082E+03  0.19409979082E+03  0.00000000000E+00 0.  1.
         23    2    1    2    0    0 -0.46019087881E+03 -0.39309294363E+02  0.25063330733E+03  0.53321404459E+03  0.90439466150E+02 0.  0.
         13    1    3    3    0    0 -0.47551027538E+02 -0.32485304332E+02  0.37614401313E+02  0.68783998165E+02  0.00000000000E+00 0.  1.
        -13    1    3    3    0    0 -0.41263985128E+03 -0.68239900312E+01  0.21301890601E+03  0.46443004642E+03  0.00000000000E+00 0. -1.
         22    1    1    2    0    0  0.46019087881E+03  0.39309294363E+02  0.95705234458E+03  0.10626711890E+04  0.00000000000E+00 0. -1.
<mgrwt>
<rscale>  0 0.10432378E+04</rscale>
<asrwt>0</asrwt>
<pdfrwt beam="1">  1        2 0.21565929E+00 0.10432378E+04</pdfrwt>
<pdfrwt beam="2">  1       -2 0.29861507E-01 0.10432378E+04</pdfrwt>
<totfact> 0.14857553E+02</totfact>
</mgrwt>
</event>
<event>
 6    1  0.8968082E-007  0.3841544E+04  0.7818608E-02  0.8037298E-01
          2   -1    0    0  501    0  0.00000000000E+00  0.00000000000E+00  0.19833194828E+04  0.19833194828E+04  0.00000000000E+00 0. -1.
         -2   -1    0    0    0  501 -0.00000000000E+00 -0.00000000000E+00 -0.18601967315E+04  0.18601967315E+04  0.00000000000E+00 0.  1.
         23    2    1    2    0    0  0.68035381729E+03  0.83638351008E+02  0.18556113767E+04  0.19803486085E+04  0.92791913464E+02 0.  0.
         11    1    3    3    0    0  0.12275627803E+03  0.49950616404E+02  0.38881665495E+03  0.41078286118E+03  0.00000000000E+00 0.  1.
        -11    1    3    3    0    0  0.55759753926E+03  0.33687734604E+02  0.14667947218E+04  0.15695657473E+04  0.00000000000E+00 0. -1.
         22    1    1    2    0    0 -0.68035381729E+03 -0.83638351008E+02 -0.17324886254E+04  0.18631676059E+04  0.00000000000E+00 0.  1.
<mgrwt>
<rscale>  0 0.38415437E+04</rscale>
<asrwt>0</asrwt>
<pdfrwt beam="1">  1        2 0.30512607E+00 0.38415437E+04</pdfrwt>
<pdfrwt beam="2">  1       -2 0.28618411E+00 0.38415437E+04</pdfrwt>
<totfact> 0.21058274E-01</totfact>
</mgrwt>
</event>
<event>
 6    1  0.8968082E-007  0.1393729E+04  0.7818608E-02  0.8958370E-01
         -1   -1    0    0    0  501 -0.00000000000E+00  0.00000000000E+00  0.22051736044E+03  0.22051736044E+03  0.00000000000E+00 0.  1.
          1   -1    0    0  501    0  0.00000000000E+00 -0.00000000000E+00 -0.22021861852E+04  0.22021861852E+04  0.00000000000E+00 0. -1.
         23    2    1    2    0    0  0.16320145252E+03  0.58870597223E+02 -0.21629338800E+04  0.21717902508E+04  0.91046487119E+02 0.  0.
         11    1    3    3    0    0  0.57046333755E+02  0.56424061866E+02 -0.12765179555E+04  0.12790371573E+04  0.00000000000E+00 0. -1.
        -11    1    3    3    0    0  0.10615511876E+03  0.24465353573E+01 -0.88641592446E+03  0.89275309348E+03  0.00000000000E+00 0.  1.
         22    1    1    2    0    0 -0.16320145252E+03 -0.58870597223E+02  0.18126505520E+03  0.25091329490E+03  0.00000000000E+00 0.  1.
<mgrwt>
<rscale>  0 0.13937292E+04</rscale>
<asrwt>0</asrwt>
<pdfrwt beam="1">  1        1 0.33879788E+00 0.13937292E+04</pdfrwt>
<pdfrwt beam="2">  1       -1 0.33925748E-01 0.13937292E+04</pdfrwt>
<totfact> 0.17410193E+01</totfact>
</mgrwt>
</event>
<event>
 6    1  0.8968082E-007  0.9374884E+03  0.7818608E-02  0.9379895E-01
         -2   -1    0    0    0  501 -0.00000000000E+00  0.00000000000E+00  0.98110783976E+02  0.98110783976E+02  0.00000000000E+00 0.  1.
          2   -1    0    0  501    0  0.00000000000E+00 -0.00000000000E+00 -0.22395206254E+04  0.22395206254E+04  0.00000000000E+00 0. -1.
         23    2    1    2    0    0 -0.36018142066E+03 -0.10786169637E+03 -0.40094185750E+03  0.55701533498E+03  0.90260229224E+02 0.  0.
         11    1    3    3    0    0 -0.17171963090E+03 -0.84136838656E+02 -0.24790490075E+03  0.31308701517E+03  0.00000000000E+00 0.  1.
        -11    1    3    3    0    0 -0.18846178976E+03 -0.23724857712E+02 -0.15303695675E+03  0.24392831980E+03  0.00000000000E+00 0. -1.
         22    1    1    2    0    0  0.36018142066E+03  0.10786169637E+03 -0.17404679840E+04  0.17806160744E+04  0.00000000000E+00 0. -1.
<mgrwt>
<rscale>  0 0.93748840E+03</rscale>
<asrwt>0</asrwt>
<pdfrwt beam="1">  1        2 0.34454162E+00 0.93748840E+03</pdfrwt>
<pdfrwt beam="2">  1       -2 0.15093967E-01 0.93748840E+03</pdfrwt>
<totfact> 0.17233553E+02</totfact>
</mgrwt>
</event>
<event>
 6    1  0.8968082E-007  0.1581246E+04  0.7818608E-02  0.8832153E-01
         -2   -1    0    0    0  501 -0.00000000000E+00  0.00000000000E+00  0.91524185836E+03  0.91524185836E+03  0.00000000000E+00 0.  1.
          2   -1    0    0  501    0  0.00000000000E+00 -0.00000000000E+00 -0.68297245862E+03  0.68297245862E+03  0.00000000000E+00 0. -1.
         23    2    1    2    0    0  0.19399626826E+03 -0.32732469178E+03  0.81407646286E+03  0.90303414994E+03  0.89298278925E+02 0.  0.
         11    1    3    3    0    0  0.16616820341E+03 -0.31012005610E+03  0.68748944795E+03  0.77228755141E+03  0.00000000000E+00 0.  1.
        -11    1    3    3    0    0  0.27828064854E+02 -0.17204635680E+02  0.12658701491E+03  0.13074659853E+03  0.00000000000E+00 0. -1.
         22    1    1    2    0    0 -0.19399626826E+03  0.32732469178E+03 -0.58180706312E+03  0.69518016704E+03  0.00000000000E+00 0. -1.
<mgrwt>
<rscale>  0 0.15812463E+04</rscale>
<asrwt>0</asrwt>
<pdfrwt beam="1">  1        2 0.10507269E+00 0.15812463E+04</pdfrwt>
<pdfrwt beam="2">  1       -2 0.14080644E+00 0.15812463E+04</pdfrwt>
<totfact> 0.14355123E+01</totfact>
</mgrwt>
</event>
<event>
 6    1  0.8968082E-007  0.1850635E+04  0.7818608E-02  0.8679826E-01
          2   -1    0    0  501    0  0.00000000000E+00  0.00000000000E+00  0.24814711051E+04  0.24814711051E+04  0.00000000000E+00 0. -1.
         -2   -1    0    0    0  501 -0.00000000000E+00 -0.00000000000E+00 -0.34504220735E+03  0.34504220735E+03  0.00000000000E+00 0.  1.
         23    2    1    2    0    0 -0.45182567077E+03  0.35466017044E+03  0.21743556876E+04  0.22508669674E+04  0.93000942160E+02 0.  0.
         13    1    3    3    0    0 -0.90593809233E+02  0.88246890667E+02  0.63189790091E+03  0.64442975502E+03  0.00000000000E+00 0.  1.
        -13    1    3    3    0    0 -0.36123186154E+03  0.26641327977E+03  0.15424577867E+04  0.16064372124E+04  0.00000000000E+00 0. -1.
         22    1    1    2    0    0  0.45182567077E+03 -0.35466017044E+03 -0.37926789829E+02  0.57564634512E+03  0.00000000000E+00 0.  1.
<mgrwt>
<rscale>  0 0.18506348E+04</rscale>
<asrwt>0</asrwt>
<pdfrwt beam="1">  1        2 0.38176477E+00 0.18506348E+04</pdfrwt>
<pdfrwt beam="2">  1       -2 0.53083418E-01 0.18506348E+04</pdfrwt>
<totfact> 0.11237562E+01</totfact>
</mgrwt>
</event>
<event>
 6    1  0.8968082E-007  0.1390750E+04  0.7818608E-02  0.8960541E-01
          2   -1    0    0  501    0  0.00000000000E+00  0.00000000000E+00  0.21005552232E+04  0.21005552232E+04  0.00000000000E+00 0. -1.
         -2   -1    0    0    0  501 -0.00000000000E+00 -0.00000000000E+00 -0.23019939920E+03  0.23019939920E+03  0.00000000000E+00 0.  1.
         23    2    1    2    0    0 -0.24972150471E+03 -0.67531532572E+02  0.20155891908E+04  0.20340829712E+04  0.89288352383E+02 0.  0.
         11    1    3    3    0    0 -0.21759344579E+03 -0.84147867453E+02  0.18456934230E+04  0.18603795266E+04  0.00000000000E+00 0. -1.
        -11    1    3    3    0    0 -0.32128058921E+02  0.16616334881E+02  0.16989576776E+03  0.17370344458E+03  0.00000000000E+00 0.  1.
         22    1    1    2    0    0  0.24972150471E+03  0.67531532572E+02 -0.14523336678E+03  0.29667165121E+03  0.00000000000E+00 0.  1.
<mgrwt>
<rscale>  0 0.13907502E+04</rscale>
<asrwt>0</asrwt>
<pdfrwt beam="1">  1        2 0.32316233E+00 0.13907502E+04</pdfrwt>
<pdfrwt beam="2">  1       -2 0.35415294E-01 0.13907502E+04</pdfrwt>
<totfact> 0.42876002E+01</totfact>
</mgrwt>
</event>
<event>
 6    1  0.8968082E-007  0.1804345E+04  0.7818608E-02  0.8703992E-01
         -1   -1    0    0    0  501 -0.00000000000E+00  0.00000000000E+00  0.56924562259E+03  0.56924562259E+03  0.00000000000E+00 0.  1.
          1   -1    0    0  501    0  0.00000000000E+00 -0.00000000000E+00 -0.14298137556E+04  0.14298137556E+04  0.00000000000E+00 0. -1.
         23    2    1    2    0    0 -0.19911560488E+02  0.36058323495E+03 -0.13445873847E+04  0.13951625528E+04  0.90258373822E+02 0.  0.
         13    1    3    3    0    0  0.95680090542E+01  0.19312193148E+03 -0.56253958350E+03  0.59484318120E+03  0.00000000000E+00 0.  1.
        -13    1    3    3    0    0 -0.29479569542E+02  0.16746130347E+03 -0.78204780123E+03  0.80031937162E+03  0.00000000000E+00 0. -1.
         22    1    1    2    0    0  0.19911560488E+02 -0.36058323495E+03  0.48401925176E+03  0.60389682533E+03  0.00000000000E+00 0.  1.
<mgrwt>
<rscale>  0 0.18043450E+04</rscale>
<asrwt>0</asrwt>
<pdfrwt beam="1">  1        1 0.21997135E+00 0.18043450E+04</pdfrwt>
<pdfrwt beam="2">  1       -1 0.87576250E-01 0.18043450E+04</pdfrwt>
<totfact> 0.88586923E+00</totfact>
</mgrwt>
</event>
<event>
 6    1  0.8968082E-007  0.7154453E+03  0.7818608E-02  0.9691177E-01
         -2   -1    0    0    0  501 -0.00000000000E+00  0.00000000000E+00  0.24504434582E+03  0.24504434582E+03  0.00000000000E+00 0.  1.
          2   -1    0    0  501    0  0.00000000000E+00 -0.00000000000E+00 -0.52221364172E+03  0.52221364172E+03  0.00000000000E+00 0. -1.
         23    2    1    2    0    0 -0.95414873119E+02 -0.33391130784E+03 -0.20273955401E+03  0.41209528399E+03  0.90102368529E+02 0.  0.
         13    1    3    3    0    0 -0.53091271849E+02 -0.22104070944E+03 -0.82499011317E+02  0.24183416889E+03  0.00000000000E+00 0. -1.
        -13    1    3    3    0    0 -0.42323601270E+02 -0.11287059840E+03 -0.12024054270E+03  0.17026111510E+03  0.00000000000E+00 0.  1.
         22    1    1    2    0    0  0.95414873119E+02  0.33391130784E+03 -0.74429741895E+02  0.35516270355E+03  0.00000000000E+00 0.  1.
<mgrwt>
<rscale>  0 0.71544532E+03</rscale>
<asrwt>0</asrwt>
<pdfrwt beam="1">  1        2 0.80340560E-01 0.71544532E+03</pdfrwt>
<pdfrwt beam="2">  1       -2 0.37699130E-01 0.71544532E+03</pdfrwt>
<totfact> 0.39141209E+02</totfact>
</mgrwt>
</event>
<event>
 6    1  0.8968082E-007  0.3142513E+04  0.7818608E-02  0.8204166E-01
         -2   -1    0    0    0  501 -0.00000000000E+00  0.00000000000E+00  0.15722695076E+04  0.15722695076E+04  0.00000000000E+00 0.  1.
          2   -1    0    0  501    0  0.00000000000E+00 -0.00000000000E+00 -0.15702442758E+04  0.15702442758E+04  0.00000000000E+00 0. -1.
         23    2    1    2    0    0  0.12558384359E+03 -0.88857812347E+03 -0.12871439430E+04  0.15717497832E+04  0.91189185983E+02 0.  0.
         11    1    3    3    0    0  0.64886608247E+02 -0.24209406452E+03 -0.31211048381E+03  0.40029084690E+03  0.00000000000E+00 0. -1.
        -11    1    3    3    0    0  0.60697235344E+02 -0.64648405895E+03 -0.97503345918E+03  0.11714589363E+04  0.00000000000E+00 0.  1.
         22    1    1    2    0    0 -0.12558384359E+03  0.88857812347E+03  0.12891691748E+04  0.15707640002E+04  0.00000000000E+00 0.  1.
<mgrwt>
<rscale>  0 0.31425131E+04</rscale>
<asrwt>0</asrwt>
<pdfrwt beam="1">  1        2 0.24157604E+00 0.31425131E+04</pdfrwt>
<pdfrwt beam="2">  1       -2 0.24188762E+00 0.31425131E+04</pdfrwt>
<totfact> 0.70703066E-01</totfact>
</mgrwt>
</event>
<event>
 6    1  0.8968082E-007  0.1200138E+04  0.7818608E-02  0.9112735E-01
          2   -1    0    0  501    0  0.00000000000E+00  0.00000000000E+00  0.16082468079E+04  0.16082468079E+04  0.00000000000E+00 0. -1.
         -2   -1    0    0    0  501 -0.00000000000E+00 -0.00000000000E+00 -0.22389791258E+03  0.22389791258E+03  0.00000000000E+00 0.  1.
         23    2    1    2    0    0  0.21703828194E+03 -0.32385968595E+01  0.15445487298E+04  0.15623668651E+04  0.90792830605E+02 0.  0.
         11    1    3    3    0    0  0.12237317173E+03  0.11464276949E+02  0.56887595324E+03  0.58200212455E+03  0.00000000000E+00 0.  1.
        -11    1    3    3    0    0  0.94665110209E+02 -0.14702873808E+02  0.97567277652E+03  0.98036474051E+03  0.00000000000E+00 0. -1.
         22    1    1    2    0    0 -0.21703828194E+03  0.32385968595E+01 -0.16019983443E+03  0.26977785544E+03  0.00000000000E+00 0.  1.
<mgrwt>
<rscale>  0 0.12001385E+04</rscale>
<asrwt>0</asrwt>
<pdfrwt beam="1">  1        2 0.24742258E+00 0.12001385E+04</pdfrwt>
<pdfrwt beam="2">  1       -2 0.34445834E-01 0.12001385E+04</pdfrwt>
<totfact> 0.85959683E+01</totfact>
</mgrwt>
</event>
<event>
 6    1  0.8968082E-007  0.1987005E+04  0.7818608E-02  0.8612721E-01
         -2   -1    0    0    0  501 -0.00000000000E+00  0.00000000000E+00  0.80986454134E+03  0.80986454134E+03  0.00000000000E+00 0.  1.
          2   -1    0    0  501    0  0.00000000000E+00 -0.00000000000E+00 -0.12187801710E+04  0.12187801710E+04  0.00000000000E+00 0. -1.
         23    2    1    2    0    0 -0.19345159462E+02 -0.80807219428E+03  0.38110571785E+03  0.89838428401E+03  0.92183768711E+02 0.  0.
         13    1    3    3    0    0 -0.41206250061E+02 -0.57783542225E+03  0.30642432881E+03  0.65535303428E+03  0.00000000000E+00 0. -1.
        -13    1    3    3    0    0  0.21861090600E+02 -0.23023677202E+03  0.74681389039E+02  0.24303124972E+03  0.00000000000E+00 0.  1.
         22    1    1    2    0    0  0.19345159462E+02  0.80807219428E+03 -0.79002134755E+03  0.11302604284E+04  0.00000000000E+00 0. -1.
<mgrwt>
<rscale>  0 0.19870046E+04</rscale>
<asrwt>0</asrwt>
<pdfrwt beam="1">  1        2 0.18750464E+00 0.19870046E+04</pdfrwt>
<pdfrwt beam="2">  1       -2 0.12459454E+00 0.19870046E+04</pdfrwt>
<totfact> 0.82998496E+00</totfact>
</mgrwt>
</event>
<event>
 6    1  0.8968082E-007  0.3134668E+04  0.7818608E-02  0.8206288E-01
         -2   -1    0    0    0  501 -0.00000000000E+00  0.00000000000E+00  0.94710964125E+03  0.94710964125E+03  0.00000000000E+00 0.  1.
          2   -1    0    0  501    0  0.00000000000E+00 -0.00000000000E+00 -0.25937181107E+04  0.25937181107E+04  0.00000000000E+00 0. -1.
         23    2    1    2    0    0  0.48205588245E+03  0.12413202237E+04  0.10672818769E+03  0.13391367643E+04  0.92965563051E+02 0.  0.
         13    1    3    3    0    0  0.94414791779E+02  0.25021771685E+03  0.58912697112E+02  0.27384989431E+03  0.00000000000E+00 0.  1.
        -13    1    3    3    0    0  0.38764109067E+03  0.99110250687E+03  0.47815490582E+02  0.10652868700E+04  0.00000000000E+00 0. -1.
         22    1    1    2    0    0 -0.48205588245E+03 -0.12413202237E+04 -0.17533366571E+04  0.22016909876E+04  0.00000000000E+00 0. -1.
<mgrwt>
<rscale>  0 0.31346677E+04</rscale>
<asrwt>0</asrwt>
<pdfrwt beam="1">  1        2 0.39903356E+00 0.31346677E+04</pdfrwt>
<pdfrwt beam="2">  1       -2 0.14570918E+00 0.31346677E+04</pdfrwt>
<totfact> 0.84034310E-01</totfact>
</mgrwt>
</event>
<event>
 6    1  0.8968082E-007  0.1468579E+04  0.7818608E-02  0.8905621E-01
          2   -1    0    0  501    0  0.00000000000E+00  0.00000000000E+00  0.17574586427E+04  0.17574586427E+04  0.00000000000E+00 0. -1.
         -2   -1    0    0    0  501 -0.00000000000E+00 -0.00000000000E+00 -0.30679585448E+03  0.30679585448E+03  0.00000000000E+00 0.  1.
         23    2    1    2    0    0  0.27216972653E+03  0.36711228804E+03  0.15313361724E+04  0.16001898606E+04  0.82275907618E+02 0.  0.
         13    1    3    3    0    0  0.13179584444E+03  0.14982491141E+03  0.79780623760E+03  0.82238217481E+03  0.00000000000E+00 0. -1.
        -13    1    3    3    0    0  0.14037388209E+03  0.21728737663E+03  0.73352993478E+03  0.77780768576E+03  0.00000000000E+00 0.  1.
         22    1    1    2    0    0 -0.27216972653E+03 -0.36711228804E+03 -0.80673384131E+02  0.46406463664E+03  0.00000000000E+00 0.  1.
<mgrwt>
<rscale>  0 0.14685789E+04</rscale>
<asrwt>0</asrwt>
<pdfrwt beam="1">  1        2 0.27037825E+00 0.14685789E+04</pdfrwt>
<pdfrwt beam="2">  1       -2 0.47199363E-01 0.14685789E+04</pdfrwt>
<totfact> 0.37538427E+01</totfact>
</mgrwt>
</event>
<event>
 6    1  0.8968082E-007  0.4497847E+04  0.7818608E-02  0.7911014E-01
         -2   -1    0    0    0  501 -0.00000000000E+00  0.00000000000E+00  0.18348829390E+04  0.18348829390E+04  0.00000000000E+00 0.  1.
          2   -1    0    0  501    0  0.00000000000E+00 -0.00000000000E+00 -0.27563926732E+04  0.27563926732E+04  0.00000000000E+00 0. -1.
         23    2    1    2    0    0  0.15584008822E+04  0.15559941941E+04  0.12366678508E+00  0.22039885813E+04  0.88512198995E+02 0.  0.
         13    1    3    3    0    0  0.13456983920E+04  0.13217089035E+04 -0.26804951071E+02  0.18864085171E+04  0.00000000000E+00 0. -1.
        -13    1    3    3    0    0  0.21270249025E+03  0.23428529061E+03  0.26928617856E+02  0.31758006426E+03  0.00000000000E+00 0.  1.
         22    1    1    2    0    0 -0.15584008822E+04 -0.15559941941E+04 -0.92163340105E+03  0.23872870309E+04  0.00000000000E+00 0. -1.
<mgrwt>
<rscale>  0 0.44978474E+04</rscale>
<asrwt>0</asrwt>
<pdfrwt beam="1">  1        2 0.42406041E+00 0.44978474E+04</pdfrwt>
<pdfrwt beam="2">  1       -2 0.28228969E+00 0.44978474E+04</pdfrwt>
<totfact> 0.75915490E-02</totfact>
</mgrwt>
</event>
<event>
 6    1  0.8968082E-007  0.3823120E+04  0.7818608E-02  0.8041212E-01
          2   -1    0    0  501    0  0.00000000000E+00  0.00000000000E+00  0.22935408039E+04  0.22935408039E+04  0.00000000000E+00 0. -1.
         -2   -1    0    0    0  501 -0.00000000000E+00 -0.00000000000E+00 -0.15931967314E+04  0.15931967314E+04  0.00000000000E+00 0.  1.
         23    2    1    2    0    0  0.73751723676E+03  0.15028761259E+04 -0.58541934194E+03  0.17758713903E+04  0.91842608563E+02 0.  0.
         13    1    3    3    0    0  0.40192129944E+03  0.85377039878E+03 -0.28439343753E+03  0.98556798451E+03  0.00000000000E+00 0. -1.
        -13    1    3    3    0    0  0.33559593732E+03  0.64910572713E+03 -0.30102590441E+03  0.79030340583E+03  0.00000000000E+00 0.  1.
         22    1    1    2    0    0 -0.73751723676E+03 -0.15028761259E+04  0.12857634144E+04  0.21108661450E+04  0.00000000000E+00 0.  1.
<mgrwt>
<rscale>  0 0.38231200E+04</rscale>
<asrwt>0</asrwt>
<pdfrwt beam="1">  1        2 0.35285243E+00 0.38231200E+04</pdfrwt>
<pdfrwt beam="2">  1       -2 0.24510719E+00 0.38231200E+04</pdfrwt>
<totfact> 0.25205224E-01</totfact>
</mgrwt>
</event>
<event>
 6    1  0.8968082E-007  0.1194387E+04  0.7818608E-02  0.9117783E-01
         -2   -1    0    0    0  501 -0.00000000000E+00  0.00000000000E+00  0.28567688978E+03  0.28567688978E+03  0.00000000000E+00 0.  1.
          2   -1    0    0  501    0  0.00000000000E+00 -0.00000000000E+00 -0.12484047061E+04  0.12484047061E+04  0.00000000000E+00 0. -1.
         23    2    1    2    0    0  0.41888174456E+03  0.24981514294E+03 -0.49263023088E+02  0.49856846219E+03  0.90962324517E+02 0.  0.
         11    1    3    3    0    0  0.22917622071E+03  0.16382844766E+03  0.10415314995E+02  0.28190420215E+03  0.00000000000E+00 0. -1.
        -11    1    3    3    0    0  0.18970552385E+03  0.85986695273E+02 -0.59678338083E+02  0.21666426004E+03  0.00000000000E+00 0.  1.
         22    1    1    2    0    0 -0.41888174456E+03 -0.24981514294E+03 -0.91346479321E+03  0.10355131337E+04  0.00000000000E+00 0. -1.
<mgrwt>
<rscale>  0 0.11943875E+04</rscale>
<asrwt>0</asrwt>
<pdfrwt beam="1">  1        2 0.19206226E+00 0.11943875E+04</pdfrwt>
<pdfrwt beam="2">  1       -2 0.43950291E-01 0.11943875E+04</pdfrwt>
<totfact> 0.85857651E+01</totfact>
</mgrwt>
</event>
<event>
 6    1  0.8968082E-007  0.5082037E+03  0.7818608E-02  0.1011660E+00
          2   -1    0    0  501    0  0.00000000000E+00  0.00000000000E+00  0.28143184859E+04  0.28143184859E+04  0.00000000000E+00 0. -1.
         -2   -1    0    0    0  501 -0.00000000000E+00 -0.00000000000E+00 -0.22942584787E+02  0.22942584787E+02  0.00000000000E+00 0.  1.
         23    2    1    2    0    0 -0.15518554957E+02  0.24381750674E+03  0.15467508656E+04  0.15688844385E+04  0.96292984622E+02 0.  0.
         11    1    3    3    0    0  0.15586128754E+02  0.16502587287E+03  0.12252283918E+04  0.12363903422E+04  0.00000000000E+00 0. -1.
        -11    1    3    3    0    0 -0.31104683711E+02  0.78791633875E+02  0.32152247380E+03  0.33249409630E+03  0.00000000000E+00 0.  1.
         22    1    1    2    0    0  0.15518554957E+02 -0.24381750674E+03  0.12446250355E+04  0.12683766323E+04  0.00000000000E+00 0.  1.
<mgrwt>
<rscale>  0 0.50820366E+03</rscale>
<asrwt>0</asrwt>
<pdfrwt beam="1">  1        2 0.43297180E+00 0.50820366E+03</pdfrwt>
<pdfrwt beam="2">  1       -2 0.35296307E-02 0.50820366E+03</pdfrwt>
<totfact> 0.85881716E+02</totfact>
</mgrwt>
</event>
<event>
 6    1  0.8968082E-007  0.1702513E+04  0.7818608E-02  0.8759932E-01
         -2   -1    0    0    0  501 -0.00000000000E+00  0.00000000000E+00  0.58703679744E+03  0.58703679744E+03  0.00000000000E+00 0.  1.
          2   -1    0    0  501    0  0.00000000000E+00 -0.00000000000E+00 -0.12343988647E+04  0.12343988647E+04  0.00000000000E+00 0. -1.
         23    2    1    2    0    0  0.74216741163E+03 -0.84999103256E+02  0.10676769120E+03  0.75995132074E+03  0.89940844862E+02 0.  0.
         13    1    3    3    0    0  0.63313716104E+03 -0.72531978280E+02  0.58157542531E+02  0.63992644289E+03  0.00000000000E+00 0. -1.
        -13    1    3    3    0    0  0.10903025059E+03 -0.12467124976E+02  0.48610148668E+02  0.12002487785E+03  0.00000000000E+00 0.  1.
         22    1    1    2    0    0 -0.74216741163E+03  0.84999103256E+02 -0.75412975848E+03  0.10614843414E+04  0.00000000000E+00 0. -1.
<mgrwt>
<rscale>  0 0.17025129E+04</rscale>
<asrwt>0</asrwt>
<pdfrwt beam="1">  1        2 0.18990752E+00 0.17025129E+04</pdfrwt>
<pdfrwt beam="2">  1       -2 0.90313354E-01 0.17025129E+04</pdfrwt>
<totfact> 0.18022915E+01</totfact>
</mgrwt>
</event>
<event>
 6    1  0.8968082E-007  0.1139228E+04  0.7818608E-02  0.9167779E-01
         -1   -1    0    0    0  501 -0.00000000000E+00  0.00000000000E+00  0.46346772280E+03  0.46346772280E+03  0.00000000000E+00 0.  1.
          1   -1    0    0  501    0  0.00000000000E+00 -0.00000000000E+00 -0.70007091370E+03  0.70007091370E+03  0.00000000000E+00 0. -1.
         23    2    1    2    0    0 -0.30948757195E+03 -0.38188382513E+03  0.16638898443E+03  0.52791256210E+03  0.96894612790E+02 0.  0.
         11    1    3    3    0    0 -0.25115769671E+03 -0.24173670036E+03  0.10384245248E+03  0.36373077387E+03  0.00000000000E+00 0. -1.
        -11    1    3    3    0    0 -0.58329875238E+02 -0.14014712478E+03  0.62546531948E+02  0.16418178823E+03  0.00000000000E+00 0.  1.
         22    1    1    2    0    0  0.30948757195E+03  0.38188382513E+03 -0.40299217533E+03  0.63562607441E+03  0.00000000000E+00 0. -1.
<mgrwt>
<rscale>  0 0.11392283E+04</rscale>
<asrwt>0</asrwt>
<pdfrwt beam="1">  1        1 0.10770322E+00 0.11392283E+04</pdfrwt>
<pdfrwt beam="2">  1       -1 0.71302728E-01 0.11392283E+04</pdfrwt>
<totfact> 0.53795969E+01</totfact>
</mgrwt>
</event>
<event>
 6    1  0.8968082E-007  0.3155950E+04  0.7818608E-02  0.8200548E-01
          1   -1    0    0  501    0  0.00000000000E+00  0.00000000000E+00  0.24526719536E+04  0.24526719536E+04  0.00000000000E+00 0. -1.
         -1   -1    0    0    0  501 -0.00000000000E+00 -0.00000000000E+00 -0.10152215417E+04  0.10152215417E+04  0.00000000000E+00 0.  1.
         23    2    1    2    0    0  0.13519547510E+04 -0.36746103472E+03  0.15139583568E+04  0.20648030754E+04  0.92371929045E+02 0.  0.
         13    1    3    3    0    0  0.38973362014E+03 -0.66041406160E+02  0.40362455051E+03  0.56494826291E+03  0.00000000000E+00 0.  1.
        -13    1    3    3    0    0  0.96222113089E+03 -0.30141962856E+03  0.11103338062E+04  0.14998548125E+04  0.00000000000E+00 0. -1.
         22    1    1    2    0    0 -0.13519547510E+04  0.36746103472E+03 -0.76507944824E+02  0.14030904199E+04  0.00000000000E+00 0.  1.
<mgrwt>
<rscale>  0 0.31559502E+04</rscale>
<asrwt>0</asrwt>
<pdfrwt beam="1">  1        1 0.37733414E+00 0.31559502E+04</pdfrwt>
<pdfrwt beam="2">  1       -1 0.15618793E+00 0.31559502E+04</pdfrwt>
<totfact> 0.38329862E-01</totfact>
</mgrwt>
</event>
<event>
 6    1  0.8968082E-007  0.4564449E+04  0.7818608E-02  0.7899450E-01
         -2   -1    0    0    0  501 -0.00000000000E+00  0.00000000000E+00  0.25569306993E+04  0.25569306993E+04  0.00000000000E+00 0.  1.
          2   -1    0    0  501    0  0.00000000000E+00 -0.00000000000E+00 -0.20370313866E+04  0.20370313866E+04  0.00000000000E+00 0. -1.
         23    2    1    2    0    0  0.81102918458E+03 -0.17693323178E+04 -0.93755043601E+03  0.21624060081E+04  0.93240200788E+02 0.  0.
         13    1    3    3    0    0  0.24955795751E+03 -0.56604660444E+03 -0.34548367331E+03  0.70855268053E+03  0.00000000000E+00 0.  1.
        -13    1    3    3    0    0  0.56147122707E+03 -0.12032857133E+04 -0.59206676269E+03  0.14538533276E+04  0.00000000000E+00 0. -1.
         22    1    1    2    0    0 -0.81102918458E+03  0.17693323178E+04  0.14574497487E+04  0.24315560777E+04  0.00000000000E+00 0.  1.
<mgrwt>
<rscale>  0 0.45644487E+04</rscale>
<asrwt>0</asrwt>
<pdfrwt beam="1">  1        2 0.31338944E+00 0.45644487E+04</pdfrwt>
<pdfrwt beam="2">  1       -2 0.39337395E+00 0.45644487E+04</pdfrwt>
<totfact> 0.39385891E-02</totfact>
</mgrwt>
</event>
<event>
 6    1  0.8968082E-007  0.2739925E+04  0.7818608E-02  0.8322166E-01
         -2   -1    0    0    0  501 -0.00000000000E+00  0.00000000000E+00  0.39320654855E+03  0.39320654855E+03  0.00000000000E+00 0.  1.
          2   -1    0    0  501    0  0.00000000000E+00 -0.00000000000E+00 -0.47730584093E+04  0.47730584093E+04  0.00000000000E+00 0. -1.
         23    2    1    2    0    0 -0.44033695034E+03  0.65692977039E+03 -0.42981221330E+04  0.43711969724E+04  0.89753822891E+02 0.  0.
         13    1    3    3    0    0 -0.19881906352E+03  0.37693295733E+03 -0.23119970634E+04  0.23509440434E+04  0.00000000000E+00 0.  1.
        -13    1    3    3    0    0 -0.24151788682E+03  0.27999681306E+03 -0.19861250696E+04  0.20202529290E+04  0.00000000000E+00 0. -1.
         22    1    1    2    0    0  0.44033695034E+03 -0.65692977039E+03 -0.81729727788E+02  0.79506798543E+03  0.00000000000E+00 0.  1.
<mgrwt>
<rscale>  0 0.27399254E+04</rscale>
<asrwt>0</asrwt>
<pdfrwt beam="1">  1        2 0.73431665E+00 0.27399254E+04</pdfrwt>
<pdfrwt beam="2">  1       -2 0.60493318E-01 0.27399254E+04</pdfrwt>
<totfact> 0.14250620E-01</totfact>
</mgrwt>
</event>
<event>
 6    1  0.8968082E-007  0.2838794E+04  0.7818608E-02  0.8291324E-01
          2   -1    0    0  501    0  0.00000000000E+00  0.00000000000E+00  0.12334724479E+04  0.12334724479E+04  0.00000000000E+00 0. -1.
         -2   -1    0    0    0  501 -0.00000000000E+00 -0.00000000000E+00 -0.16333467982E+04  0.16333467982E+04  0.00000000000E+00 0.  1.
         23    2    1    2    0    0  0.20793300243E+03 -0.59385984054E+03 -0.14833491783E+04  0.16138933317E+04  0.91767410879E+02 0.  0.
         11    1    3    3    0    0  0.12179919385E+03 -0.22893184614E+03 -0.55095297556E+03  0.60892857963E+03  0.00000000000E+00 0. -1.
        -11    1    3    3    0    0  0.86133808576E+02 -0.36492799440E+03 -0.93239620276E+03  0.10049647521E+04  0.00000000000E+00 0.  1.
         22    1    1    2    0    0 -0.20793300243E+03  0.59385984054E+03  0.10834748281E+04  0.12529259143E+04  0.00000000000E+00 0. -1.
<mgrwt>
<rscale>  0 0.28387943E+04</rscale>
<asrwt>0</asrwt>
<pdfrwt beam="1">  1        2 0.18976499E+00 0.28387943E+04</pdfrwt>
<pdfrwt beam="2">  1       -2 0.25128412E+00 0.28387943E+04</pdfrwt>
<totfact> 0.99019279E-01</totfact>
</mgrwt>
</event>
<event>
 6    1  0.8968082E-007  0.4273885E+03  0.7818608E-02  0.1034688E+00
          2   -1    0    0  501    0  0.00000000000E+00  0.00000000000E+00  0.29359867541E+04  0.29359867541E+04  0.00000000000E+00 0. -1.
         -2   -1    0    0    0  501 -0.00000000000E+00 -0.00000000000E+00 -0.15553621461E+02  0.15553621461E+02  0.00000000000E+00 0.  1.
         23    2    1    2    0    0 -0.15416708403E+03  0.12832688042E+03  0.17733157355E+04  0.17870174686E+04  0.92452459408E+02 0.  0.
         11    1    3    3    0    0 -0.86031354902E+02  0.12580345769E+03  0.12658233882E+04  0.12749653933E+04  0.00000000000E+00 0.  1.
        -11    1    3    3    0    0 -0.68135729128E+02  0.25234227237E+01  0.50749234721E+03  0.51205207521E+03  0.00000000000E+00 0. -1.
         22    1    1    2    0    0  0.15416708403E+03 -0.12832688042E+03  0.11471173972E+04  0.11645229070E+04  0.00000000000E+00 0.  1.
<mgrwt>
<rscale>  0 0.42738847E+03</rscale>
<asrwt>0</asrwt>
<pdfrwt beam="1">  1        2 0.45168983E+00 0.42738847E+03</pdfrwt>
<pdfrwt beam="2">  1       -2 0.23928672E-02 0.42738847E+03</pdfrwt>
<totfact> 0.13204537E+03</totfact>
</mgrwt>
</event>
<event>
 6    1  0.1230886E-006  0.3578305E+04  0.7818608E-02  0.8095479E-01
          2   -1    0    0  501    0  0.00000000000E+00  0.00000000000E+00  0.23598439691E+04  0.23598439691E+04  0.00000000000E+00 0. -1.
         -2   -1    0    0    0  501 -0.00000000000E+00 -0.00000000000E+00 -0.13564741774E+04  0.13564741774E+04  0.00000000000E+00 0.  1.
         23    2    1    2    0    0  0.14877314413E+04 -0.56058941845E+03 -0.34760563811E+03  0.16299960358E+04  0.91935082917E+02 0.  0.
         13    1    3    3    0    0  0.65883717279E+03 -0.22555751834E+03 -0.19357326891E+03  0.72278158856E+03  0.00000000000E+00 0.  1.
        -13    1    3    3    0    0  0.82889426856E+03 -0.33503190011E+03 -0.15403236920E+03  0.90721444725E+03  0.00000000000E+00 0. -1.
         22    1    1    2    0    0 -0.14877314413E+04  0.56058941845E+03  0.13509754298E+04  0.20863221107E+04  0.00000000000E+00 0. -1.
<mgrwt>
<rscale>  0 0.35783054E+04</rscale>
<asrwt>0</asrwt>
<pdfrwt beam="1">  1        2 0.36305292E+00 0.35783054E+04</pdfrwt>
<pdfrwt beam="2">  1       -2 0.20868833E+00 0.35783054E+04</pdfrwt>
<totfact> 0.39957811E-01</totfact>
</mgrwt>
</event>
<event>
 6    1  0.8968082E-007  0.2618042E+04  0.7818608E-02  0.8362099E-01
          2   -1    0    0  501    0  0.00000000000E+00  0.00000000000E+00  0.15491563410E+04  0.15491563410E+04  0.00000000000E+00 0. -1.
         -2   -1    0    0    0  501 -0.00000000000E+00 -0.00000000000E+00 -0.11061088106E+04  0.11061088106E+04  0.00000000000E+00 0.  1.
         23    2    1    2    0    0 -0.11163993104E+04  0.15526263656E+03  0.89341003895E+03  0.14414775691E+04  0.96032171358E+02 0.  0.
         13    1    3    3    0    0 -0.68238798207E+03  0.70591992671E+02  0.59399952771E+03  0.90745359464E+03  0.00000000000E+00 0.  1.
        -13    1    3    3    0    0 -0.43401132828E+03  0.84670643890E+02  0.29941051123E+03  0.53402397442E+03  0.00000000000E+00 0. -1.
         22    1    1    2    0    0  0.11163993104E+04 -0.15526263656E+03 -0.45036250848E+03  0.12137875825E+04  0.00000000000E+00 0.  1.
<mgrwt>
<rscale>  0 0.26180416E+04</rscale>
<asrwt>0</asrwt>
<pdfrwt beam="1">  1        2 0.23833174E+00 0.26180416E+04</pdfrwt>
<pdfrwt beam="2">  1       -2 0.17017059E+00 0.26180416E+04</pdfrwt>
<totfact> 0.22359729E+00</totfact>
</mgrwt>
</event>
<event>
 6    1  0.8968082E-007  0.1443590E+04  0.7818608E-02  0.8922856E-01
         -2   -1    0    0    0  501 -0.00000000000E+00  0.00000000000E+00  0.71750416437E+03  0.71750416437E+03  0.00000000000E+00 0.  1.
          2   -1    0    0  501    0  0.00000000000E+00 -0.00000000000E+00 -0.72611174755E+03  0.72611174755E+03  0.00000000000E+00 0. -1.
         23    2    1    2    0    0 -0.43052771978E+03  0.55410101830E+03 -0.16088784414E+03  0.72558295037E+03  0.90574077419E+02 0.  0.
         11    1    3    3    0    0 -0.13534237810E+03  0.15197953431E+03 -0.86925718319E+02  0.22129486814E+03  0.00000000000E+00 0. -1.
        -11    1    3    3    0    0 -0.29518534168E+03  0.40212148399E+03 -0.73962125821E+02  0.50428808223E+03  0.00000000000E+00 0.  1.
         22    1    1    2    0    0  0.43052771978E+03 -0.55410101830E+03  0.15228026096E+03  0.71803296154E+03  0.00000000000E+00 0. -1.
<mgrwt>
<rscale>  0 0.14435903E+04</rscale>
<asrwt>0</asrwt>
<pdfrwt beam="1">  1        2 0.11170950E+00 0.14435903E+04</pdfrwt>
<pdfrwt beam="2">  1       -2 0.11038526E+00 0.14435903E+04</pdfrwt>
<totfact> 0.24716909E+01</totfact>
</mgrwt>
</event>
<event>
 6    1  0.8968082E-007  0.2206062E+04  0.7818608E-02  0.8515909E-01
         -1   -1    0    0    0  501 -0.00000000000E+00  0.00000000000E+00  0.61794604159E+03  0.61794604159E+03  0.00000000000E+00 0.  1.
          1   -1    0    0  501    0  0.00000000000E+00 -0.00000000000E+00 -0.19689050520E+04  0.19689050520E+04  0.00000000000E+00 0. -1.
         23    2    1    2    0    0  0.21209101684E+03 -0.31203457495E+03 -0.18896678788E+04  0.19291616378E+04  0.92042150540E+02 0.  0.
         11    1    3    3    0    0  0.17642361862E+03 -0.19760348536E+03 -0.11729914209E+04  0.12025312071E+04  0.00000000000E+00 0. -1.
        -11    1    3    3    0    0  0.35667398223E+02 -0.11443108959E+03 -0.71667645792E+03  0.72663043075E+03  0.00000000000E+00 0.  1.
         22    1    1    2    0    0 -0.21209101684E+03  0.31203457495E+03  0.53870886834E+03  0.65768945576E+03  0.00000000000E+00 0.  1.
<mgrwt>
<rscale>  0 0.22060617E+04</rscale>
<asrwt>0</asrwt>
<pdfrwt beam="1">  1        1 0.30290847E+00 0.22060617E+04</pdfrwt>
<pdfrwt beam="2">  1       -1 0.95068621E-01 0.22060617E+04</pdfrwt>
<totfact> 0.30469697E+00</totfact>
</mgrwt>
</event>
<event>
 6    1  0.8968082E-007  0.1174787E+04  0.7818608E-02  0.9135216E-01
          1   -1    0    0  501    0  0.00000000000E+00  0.00000000000E+00  0.24464824266E+03  0.24464824266E+03  0.00000000000E+00 0. -1.
         -1   -1    0    0    0  501 -0.00000000000E+00 -0.00000000000E+00 -0.14103143891E+04  0.14103143891E+04  0.00000000000E+00 0.  1.
         23    2    1    2    0    0  0.49194294130E+03 -0.25904493603E+03 -0.33524043015E+03  0.65560333369E+03  0.91200048061E+02 0.  0.
         13    1    3    3    0    0  0.96532684514E+02 -0.68750124428E+02 -0.11286019413E+03  0.16365378764E+03  0.00000000000E+00 0. -1.
        -13    1    3    3    0    0  0.39541025679E+03 -0.19029481160E+03 -0.22238023601E+03  0.49194954606E+03  0.00000000000E+00 0.  1.
         22    1    1    2    0    0 -0.49194294130E+03  0.25904493603E+03 -0.83042571632E+03  0.99935929811E+03  0.00000000000E+00 0.  1.
<mgrwt>
<rscale>  0 0.11747867E+04</rscale>
<asrwt>0</asrwt>
<pdfrwt beam="1">  1        1 0.37638191E-01 0.11747867E+04</pdfrwt>
<pdfrwt beam="2">  1       -1 0.21697145E+00 0.11747867E+04</pdfrwt>
<totfact> 0.13093002E+01</totfact>
</mgrwt>
</event>
<event>
 6    1  0.8968082E-007  0.2298830E+04  0.7818608E-02  0.8478382E-01
          1   -1    0    0  501    0  0.00000000000E+00  0.00000000000E+00  0.37931775384E+04  0.37931775384E+04  0.00000000000E+00 0. -1.
         -1   -1    0    0    0  501 -0.00000000000E+00 -0.00000000000E+00 -0.34829778860E+03  0.34829778860E+03  0.00000000000E+00 0.  1.
         23    2    1    2    0    0 -0.99799007157E+03 -0.38161965795E+03  0.24795599847E+04  0.27015239406E+04  0.91630441016E+02 0.  0.
         13    1    3    3    0    0 -0.38406202307E+03 -0.19023077028E+03  0.10406831294E+04  0.11254833448E+04  0.00000000000E+00 0. -1.
        -13    1    3    3    0    0 -0.61392804850E+03 -0.19138888767E+03  0.14388768553E+04  0.15760405959E+04  0.00000000000E+00 0.  1.
         22    1    1    2    0    0  0.99799007157E+03  0.38161965795E+03  0.96531976511E+03  0.14399513864E+04  0.00000000000E+00 0. -1.
<mgrwt>
<rscale>  0 0.22988304E+04</rscale>
<asrwt>0</asrwt>
<pdfrwt beam="1">  1        1 0.58356575E+00 0.22988304E+04</pdfrwt>
<pdfrwt beam="2">  1       -1 0.53584278E-01 0.22988304E+04</pdfrwt>
<totfact> 0.46032938E-01</totfact>
</mgrwt>
</event>
<event>
 6    1  0.8968082E-007  0.2767293E+04  0.7818608E-02  0.8313495E-01
          1   -1    0    0  501    0  0.00000000000E+00  0.00000000000E+00  0.10121117968E+04  0.10121117968E+04  0.00000000000E+00 0. -1.
         -1   -1    0    0    0  501 -0.00000000000E+00 -0.00000000000E+00 -0.18915673568E+04  0.18915673568E+04  0.00000000000E+00 0.  1.
         23    2    1    2    0    0  0.93376803276E+03 -0.55065572684E+03 -0.13402476384E+04  0.17257683726E+04  0.82875057406E+02 0.  0.
         13    1    3    3    0    0  0.85489460867E+03 -0.51994576731E+03 -0.12057066546E+04  0.15668174526E+04  0.00000000000E+00 0.  1.
        -13    1    3    3    0    0  0.78873424089E+02 -0.30709959535E+02 -0.13454098386E+03  0.15895092004E+03  0.00000000000E+00 0. -1.
         22    1    1    2    0    0 -0.93376803276E+03  0.55065572684E+03  0.46079207841E+03  0.11779107810E+04  0.00000000000E+00 0. -1.
<mgrwt>
<rscale>  0 0.27672930E+04</rscale>
<asrwt>0</asrwt>
<pdfrwt beam="1">  1        1 0.15570951E+00 0.27672930E+04</pdfrwt>
<pdfrwt beam="2">  1       -1 0.29101036E+00 0.27672930E+04</pdfrwt>
<totfact> 0.48538585E-01</totfact>
</mgrwt>
</event>
<event>
 6    1  0.8968082E-007  0.6039016E+04  0.7818608E-02  0.7685583E-01
         -2   -1    0    0    0  501 -0.00000000000E+00  0.00000000000E+00  0.26907501562E+04  0.26907501562E+04  0.00000000000E+00 0.  1.
          2   -1    0    0  501    0  0.00000000000E+00 -0.00000000000E+00 -0.33884340591E+04  0.33884340591E+04  0.00000000000E+00 0. -1.
         23    2    1    2    0    0  0.21399492228E+04  0.10673365404E+04 -0.22036498747E+04  0.32531404303E+04  0.90884115264E+02 0.  0.
         11    1    3    3    0    0  0.77390842494E+03  0.39995469569E+03 -0.74613456531E+03  0.11470025276E+04  0.00000000000E+00 0.  1.
        -11    1    3    3    0    0  0.13660407979E+04  0.66738184468E+03 -0.14575153094E+04  0.21061379027E+04  0.00000000000E+00 0. -1.
         22    1    1    2    0    0 -0.21399492228E+04 -0.10673365404E+04  0.15059659718E+04  0.28260437850E+04  0.00000000000E+00 0.  1.
<mgrwt>
<rscale>  0 0.60390163E+04</rscale>
<asrwt>0</asrwt>
<pdfrwt beam="1">  1        2 0.52129755E+00 0.60390163E+04</pdfrwt>
<pdfrwt beam="2">  1       -2 0.41396156E+00 0.60390163E+04</pdfrwt>
<totfact> 0.39171636E-03</totfact>
</mgrwt>
</event>
<event>
 6    1  0.8968082E-007  0.2201819E+04  0.7818608E-02  0.8517671E-01
         -1   -1    0    0    0  501 -0.00000000000E+00  0.00000000000E+00  0.91430168124E+03  0.91430168124E+03  0.00000000000E+00 0.  1.
          1   -1    0    0  501    0  0.00000000000E+00 -0.00000000000E+00 -0.13256034831E+04  0.13256034831E+04  0.00000000000E+00 0. -1.
         23    2    1    2    0    0  0.19580970759E+03  0.10651101719E+04 -0.15202308911E+02  0.10867807443E+04  0.89778372574E+02 0.  0.
         13    1    3    3    0    0  0.11798925431E+02  0.21927764942E+03 -0.25751049688E+02  0.22109956747E+03  0.00000000000E+00 0.  1.
        -13    1    3    3    0    0  0.18401078216E+03  0.84583252243E+03  0.10548740778E+02  0.86568117681E+03  0.00000000000E+00 0. -1.
         22    1    1    2    0    0 -0.19580970759E+03 -0.10651101719E+04 -0.39609949292E+03  0.11531244200E+04  0.00000000000E+00 0. -1.
<mgrwt>
<rscale>  0 0.22018188E+04</rscale>
<asrwt>0</asrwt>
<pdfrwt beam="1">  1        1 0.20393900E+00 0.22018188E+04</pdfrwt>
<pdfrwt beam="2">  1       -1 0.14066180E+00 0.22018188E+04</pdfrwt>
<totfact> 0.32733584E+00</totfact>
</mgrwt>
</event>
<event>
 6    1  0.8968082E-007  0.9770004E+03  0.7818608E-02  0.9334136E-01
         -2   -1    0    0    0  501 -0.00000000000E+00  0.00000000000E+00  0.22221529328E+03  0.22221529328E+03  0.00000000000E+00 0.  1.
          2   -1    0    0  501    0  0.00000000000E+00 -0.00000000000E+00 -0.10738793954E+04  0.10738793954E+04  0.00000000000E+00 0. -1.
         23    2    1    2    0    0  0.28856306026E+02 -0.23829236526E+03  0.12763839643E+03  0.28780439249E+03  0.94466239253E+02 0.  0.
         11    1    3    3    0    0  0.45914912982E+02 -0.21870850227E+03  0.13464543715E+03  0.26090416238E+03  0.00000000000E+00 0.  1.
        -11    1    3    3    0    0 -0.17058606956E+02 -0.19583862982E+02 -0.70070407205E+01  0.26900230115E+02  0.00000000000E+00 0. -1.
         22    1    1    2    0    0 -0.28856306026E+02  0.23829236526E+03 -0.97930249851E+03  0.10082902962E+04  0.00000000000E+00 0. -1.
<mgrwt>
<rscale>  0 0.97700036E+03</rscale>
<asrwt>0</asrwt>
<pdfrwt beam="1">  1        2 0.16521222E+00 0.97700036E+03</pdfrwt>
<pdfrwt beam="2">  1       -2 0.34186968E-01 0.97700036E+03</pdfrwt>
<totfact> 0.18088011E+02</totfact>
</mgrwt>
</event>
<event>
 6    1  0.8968082E-007  0.1837540E+04  0.7818608E-02  0.8686587E-01
         -1   -1    0    0    0  501 -0.00000000000E+00  0.00000000000E+00  0.83770682122E+03  0.83770682122E+03  0.00000000000E+00 0.  1.
          1   -1    0    0  501    0  0.00000000000E+00 -0.00000000000E+00 -0.10076772535E+04  0.10076772535E+04  0.00000000000E+00 0. -1.
         23    2    1    2    0    0 -0.79652122744E+03  0.38465035179E+03  0.15595978826E+03  0.90271103087E+03  0.90342630060E+02 0.  0.
         11    1    3    3    0    0 -0.74609263914E+03  0.33607811748E+03  0.15406047525E+03  0.83266881608E+03  0.00000000000E+00 0. -1.
        -11    1    3    3    0    0 -0.50428588303E+02  0.48572234305E+02  0.18993130039E+01  0.70042214796E+02  0.00000000000E+00 0.  1.
         22    1    1    2    0    0  0.79652122744E+03 -0.38465035179E+03 -0.32593022049E+03  0.94267304381E+03  0.00000000000E+00 0. -1.
<mgrwt>
<rscale>  0 0.18375398E+04</rscale>
<asrwt>0</asrwt>
<pdfrwt beam="1">  1        1 0.15502727E+00 0.18375398E+04</pdfrwt>
<pdfrwt beam="2">  1       -1 0.12887797E+00 0.18375398E+04</pdfrwt>
<totfact> 0.72773097E+00</totfact>
</mgrwt>
</event>
<event>
 6    1  0.8968082E-007  0.1026876E+04  0.7818608E-02  0.9279549E-01
          2   -1    0    0  501    0  0.00000000000E+00  0.00000000000E+00  0.58623756442E+03  0.58623756442E+03  0.00000000000E+00 0. -1.
         -2   -1    0    0    0  501 -0.00000000000E+00 -0.00000000000E+00 -0.44967861849E+03  0.44967861849E+03  0.00000000000E+00 0.  1.
         23    2    1    2    0    0 -0.94861057407E+02 -0.33814096382E+03  0.44081395886E+03  0.57125604419E+03  0.93158950561E+02 0.  0.
         11    1    3    3    0    0 -0.75709711705E+02 -0.13612717483E+03  0.23736641486E+03  0.28391087172E+03  0.00000000000E+00 0.  1.
        -11    1    3    3    0    0 -0.19151345702E+02 -0.20201378899E+03  0.20344754399E+03  0.28734517247E+03  0.00000000000E+00 0. -1.
         22    1    1    2    0    0  0.94861057407E+02  0.33814096382E+03 -0.30425501293E+03  0.46466013872E+03  0.00000000000E+00 0.  1.
<mgrwt>
<rscale>  0 0.10268758E+04</rscale>
<asrwt>0</asrwt>
<pdfrwt beam="1">  1        2 0.90190395E-01 0.10268758E+04</pdfrwt>
<pdfrwt beam="2">  1       -2 0.69181326E-01 0.10268758E+04</pdfrwt>
<totfact> 0.97062052E+01</totfact>
</mgrwt>
</event>
<event>
 6    1  0.8968082E-007  0.1966036E+04  0.7818608E-02  0.8622667E-01
         -1   -1    0    0    0  501 -0.00000000000E+00  0.00000000000E+00  0.13028366315E+04  0.13028366315E+04  0.00000000000E+00 0.  1.
          1   -1    0    0  501    0  0.00000000000E+00 -0.00000000000E+00 -0.74170777206E+03  0.74170777206E+03  0.00000000000E+00 0. -1.
         23    2    1    2    0    0  0.92141548951E+03  0.31701029429E+03  0.16346431700E+03  0.99210004909E+03  0.89665453093E+02 0.  0.
         13    1    3    3    0    0  0.61460787909E+03  0.23688180947E+03  0.14510085123E+03  0.67447023190E+03  0.00000000000E+00 0. -1.
        -13    1    3    3    0    0  0.30680761042E+03  0.80128484822E+02  0.18363465775E+02  0.31762981719E+03  0.00000000000E+00 0.  1.
         22    1    1    2    0    0 -0.92141548951E+03 -0.31701029429E+03  0.39766454248E+03  0.10524443545E+04  0.00000000000E+00 0.  1.
<mgrwt>
<rscale>  0 0.19660357E+04</rscale>
<asrwt>0</asrwt>
<pdfrwt beam="1">  1        1 0.11410889E+00 0.19660357E+04</pdfrwt>
<pdfrwt beam="2">  1       -1 0.20043641E+00 0.19660357E+04</pdfrwt>
<totfact> 0.34649461E+00</totfact>
</mgrwt>
</event>
<event>
 6    1  0.8968082E-007  0.5092739E+04  0.7818608E-02  0.7814358E-01
          2   -1    0    0  501    0  0.00000000000E+00  0.00000000000E+00  0.23970823236E+04  0.23970823236E+04  0.00000000000E+00 0. -1.
         -2   -1    0    0    0  501 -0.00000000000E+00 -0.00000000000E+00 -0.27049539782E+04  0.27049539782E+04  0.00000000000E+00 0.  1.
         23    2    1    2    0    0 -0.20487035649E+04 -0.14853988059E+04 -0.43084035061E+03  0.25685175611E+04  0.89795012645E+02 0.  0.
         11    1    3    3    0    0 -0.85897456166E+03 -0.62125412500E+03 -0.13560859706E+03  0.10687299364E+04  0.00000000000E+00 0. -1.
        -11    1    3    3    0    0 -0.11897290033E+04 -0.86414468091E+03 -0.29523175354E+03  0.14997876246E+04  0.00000000000E+00 0.  1.
         22    1    1    2    0    0  0.20487035649E+04  0.14853988059E+04  0.12296869604E+03  0.25335187407E+04  0.00000000000E+00 0. -1.
<mgrwt>
<rscale>  0 0.50927389E+04</rscale>
<asrwt>0</asrwt>
<pdfrwt beam="1">  1        2 0.36878190E+00 0.50927389E+04</pdfrwt>
<pdfrwt beam="2">  1       -2 0.41614677E+00 0.50927389E+04</pdfrwt>
<totfact> 0.16789329E-02</totfact>
</mgrwt>
</event>
<event>
 6    1  0.8968082E-007  0.4797868E+03  0.7818608E-02  0.1019194E+00
         -2   -1    0    0    0  501 -0.00000000000E+00  0.00000000000E+00  0.41857674706E+03  0.41857674706E+03  0.00000000000E+00 0.  1.
          2   -1    0    0  501    0  0.00000000000E+00 -0.00000000000E+00 -0.13748695966E+03  0.13748695966E+03  0.00000000000E+00 0. -1.
         23    2    1    2    0    0 -0.76299906797E+02 -0.30297101202E+01 -0.10809244665E+03  0.15946105139E+03  0.88955016532E+02 0.  0.
         11    1    3    3    0    0 -0.11738477077E+01 -0.19272176453E+02 -0.72005590567E+02  0.74549311040E+02  0.00000000000E+00 0. -1.
        -11    1    3    3    0    0 -0.75126059089E+02  0.16242466333E+02 -0.36086856081E+02  0.84911740346E+02  0.00000000000E+00 0.  1.
         22    1    1    2    0    0  0.76299906797E+02  0.30297101202E+01  0.38918223404E+03  0.39660265533E+03  0.00000000000E+00 0.  1.
<mgrwt>
<rscale>  0 0.47978680E+03</rscale>
<asrwt>0</asrwt>
<pdfrwt beam="1">  1        2 0.21151840E-01 0.47978680E+03</pdfrwt>
<pdfrwt beam="2">  1       -2 0.64396422E-01 0.47978680E+03</pdfrwt>
<totfact> 0.59677753E+02</totfact>
</mgrwt>
</event>
<event>
 6    1  0.8968082E-007  0.9051555E+03  0.7818608E-02  0.9419160E-01
          1   -1    0    0  501    0  0.00000000000E+00  0.00000000000E+00  0.79780694160E+03  0.79780694160E+03  0.00000000000E+00 0. -1.
         -1   -1    0    0    0  501 -0.00000000000E+00 -0.00000000000E+00 -0.25673705984E+03  0.25673705984E+03  0.00000000000E+00 0.  1.
         23    2    1    2    0    0  0.30791582803E+03 -0.32487238432E+03  0.26025482379E+03  0.52613949727E+03  0.93466432680E+02 0.  0.
         11    1    3    3    0    0  0.20246921678E+03 -0.22619046198E+03  0.22391265158E+03  0.37721715811E+03  0.00000000000E+00 0. -1.
        -11    1    3    3    0    0  0.10544661125E+03 -0.98681922340E+02  0.36342172212E+02  0.14892233916E+03  0.00000000000E+00 0.  1.
         22    1    1    2    0    0 -0.30791582803E+03  0.32487238432E+03  0.28081505797E+03  0.52840450417E+03  0.00000000000E+00 0. -1.
<mgrwt>
<rscale>  0 0.90515548E+03</rscale>
<asrwt>0</asrwt>
<pdfrwt beam="1">  1        1 0.12273953E+00 0.90515548E+03</pdfrwt>
<pdfrwt beam="2">  1       -1 0.39498010E-01 0.90515548E+03</pdfrwt>
<totfact> 0.13932392E+02</totfact>
</mgrwt>
</event>
<event>
 6    1  0.8968082E-007  0.2684370E+04  0.7818608E-02  0.8340094E-01
          2   -1    0    0  501    0  0.00000000000E+00  0.00000000000E+00  0.26780092431E+04  0.26780092431E+04  0.00000000000E+00 0. -1.
         -2   -1    0    0    0  501 -0.00000000000E+00 -0.00000000000E+00 -0.67268644747E+03  0.67268644747E+03  0.00000000000E+00 0.  1.
         23    2    1    2    0    0  0.12718735438E+04  0.11741328510E+03  0.15122433052E+04  0.19815442837E+04  0.90497199711E+02 0.  0.
         11    1    3    3    0    0  0.10191692968E+04  0.10841238741E+03  0.11597553299E+04  0.15477376155E+04  0.00000000000E+00 0. -1.
        -11    1    3    3    0    0  0.25270424707E+03  0.90008976916E+01  0.35248797536E+03  0.43380666825E+03  0.00000000000E+00 0.  1.
         22    1    1    2    0    0 -0.12718735438E+04 -0.11741328510E+03  0.49307949041E+03  0.13691514069E+04  0.00000000000E+00 0.  1.
<mgrwt>
<rscale>  0 0.26843700E+04</rscale>
<asrwt>0</asrwt>
<pdfrwt beam="1">  1        2 0.41200142E+00 0.26843700E+04</pdfrwt>
<pdfrwt beam="2">  1       -2 0.10349022E+00 0.26843700E+04</pdfrwt>
<totfact> 0.18290990E+00</totfact>
</mgrwt>
</event>
<event>
 6    1  0.8968082E-007  0.1427431E+04  0.7818608E-02  0.8934199E-01
         -3   -1    0    0    0  501 -0.00000000000E+00  0.00000000000E+00  0.77609596133E+03  0.77609596133E+03  0.00000000000E+00 0.  1.
          3   -1    0    0  501    0  0.00000000000E+00 -0.00000000000E+00 -0.65634870297E+03  0.65634870297E+03  0.00000000000E+00 0. -1.
         23    2    1    2    0    0  0.28324026912E+03 -0.41482655016E+03  0.56472012879E+03  0.76139550650E+03  0.92239778239E+02 0.  0.
         13    1    3    3    0    0  0.23460287378E+03 -0.31435938036E+03  0.48728172786E+03  0.62554281285E+03  0.00000000000E+00 0.  1.
        -13    1    3    3    0    0  0.48637395339E+02 -0.10046716980E+03  0.77438400938E+02  0.13585269365E+03  0.00000000000E+00 0. -1.
         22    1    1    2    0    0 -0.28324026912E+03  0.41482655016E+03 -0.44497287042E+03  0.67104915780E+03  0.00000000000E+00 0. -1.
<mgrwt>
<rscale>  0 0.14274307E+04</rscale>
<asrwt>0</asrwt>
<pdfrwt beam="1">  1        3 0.10097672E+00 0.14274307E+04</pdfrwt>
<pdfrwt beam="2">  1       -3 0.11939938E+00 0.14274307E+04</pdfrwt>
<totfact> 0.12458029E+00</totfact>
</mgrwt>
</event>
<event>
 6    1  0.8968082E-007  0.3988679E+04  0.7818608E-02  0.8006834E-01
         -1   -1    0    0    0  501 -0.00000000000E+00  0.00000000000E+00  0.17687385357E+04  0.17687385357E+04  0.00000000000E+00 0.  1.
          1   -1    0    0  501    0  0.00000000000E+00 -0.00000000000E+00 -0.22487159892E+04  0.22487159892E+04  0.00000000000E+00 0. -1.
         23    2    1    2    0    0  0.98272630566E+03 -0.10498218205E+04 -0.16312124568E+04  0.21753853407E+04  0.59753281545E+02 0.  0.
         11    1    3    3    0    0  0.40128437135E+03 -0.39796730028E+03 -0.67159449124E+03  0.87775069322E+03  0.00000000000E+00 0.  1.
        -11    1    3    3    0    0  0.58144193431E+03 -0.65185452022E+03 -0.95961796559E+03  0.12976346475E+04  0.00000000000E+00 0. -1.
         22    1    1    2    0    0 -0.98272630566E+03  0.10498218205E+04  0.11512350033E+04  0.18420691842E+04  0.00000000000E+00 0.  1.
<mgrwt>
<rscale>  0 0.39886793E+04</rscale>
<asrwt>0</asrwt>
<pdfrwt beam="1">  1        1 0.34595631E+00 0.39886793E+04</pdfrwt>
<pdfrwt beam="2">  1       -1 0.27211362E+00 0.39886793E+04</pdfrwt>
<totfact> 0.79141883E-02</totfact>
</mgrwt>
</event>
<event>
 6    1  0.8968082E-007  0.4749906E+04  0.7818608E-02  0.7868289E-01
         -2   -1    0    0    0  501 -0.00000000000E+00  0.00000000000E+00  0.16051158674E+04  0.16051158674E+04  0.00000000000E+00 0.  1.
          2   -1    0    0  501    0  0.00000000000E+00 -0.00000000000E+00 -0.35140151274E+04  0.35140151274E+04  0.00000000000E+00 0. -1.
         23    2    1    2    0    0 -0.76590994970E+03  0.15396347680E+04  0.80937357341E+03  0.19025955191E+04  0.87697536579E+02 0.  0.
         11    1    3    3    0    0 -0.41666496814E+03  0.73914269248E+03  0.39895639241E+03  0.93760749707E+03  0.00000000000E+00 0. -1.
        -11    1    3    3    0    0 -0.34924498155E+03  0.80049207552E+03  0.41041718101E+03  0.96498802198E+03  0.00000000000E+00 0.  1.
         22    1    1    2    0    0  0.76590994970E+03 -0.15396347680E+04 -0.27182728334E+04  0.32165354758E+04  0.00000000000E+00 0. -1.
<mgrwt>
<rscale>  0 0.47499059E+04</rscale>
<asrwt>0</asrwt>
<pdfrwt beam="1">  1        2 0.54061771E+00 0.47499059E+04</pdfrwt>
<pdfrwt beam="2">  1       -2 0.24694090E+00 0.47499059E+04</pdfrwt>
<totfact> 0.39530676E-02</totfact>
</mgrwt>
</event>
<event>
 6    1  0.8968082E-007  0.1693676E+04  0.7818608E-02  0.8764979E-01
          2   -1    0    0  501    0  0.00000000000E+00  0.00000000000E+00  0.12267451685E+04  0.12267451685E+04  0.00000000000E+00 0. -1.
         -2   -1    0    0    0  501 -0.00000000000E+00 -0.00000000000E+00 -0.58458341786E+03  0.58458341786E+03  0.00000000000E+00 0.  1.
         23    2    1    2    0    0  0.46848555182E+02 -0.57540365884E+03 -0.33702847254E+03  0.67462385298E+03  0.90801949159E+02 0.  0.
         11    1    3    3    0    0 -0.12759066850E+02 -0.31572779392E+03 -0.21046832579E+03  0.37966267896E+03  0.00000000000E+00 0.  1.
        -11    1    3    3    0    0  0.59607622032E+02 -0.25967586492E+03 -0.12656014676E+03  0.29496117401E+03  0.00000000000E+00 0. -1.
         22    1    1    2    0    0 -0.46848555182E+02  0.57540365884E+03  0.97919022319E+03  0.11367047334E+04  0.00000000000E+00 0. -1.
<mgrwt>
<rscale>  0 0.16936763E+04</rscale>
<asrwt>0</asrwt>
<pdfrwt beam="1">  1        2 0.18873002E+00 0.16936763E+04</pdfrwt>
<pdfrwt beam="2">  1       -2 0.89935911E-01 0.16936763E+04</pdfrwt>
<totfact> 0.18402270E+01</totfact>
</mgrwt>
</event>
<event>
 6    1  0.8968082E-007  0.4846525E+04  0.7818608E-02  0.7852628E-01
         -2   -1    0    0    0  501 -0.00000000000E+00  0.00000000000E+00  0.48286902031E+04  0.48286902031E+04  0.00000000000E+00 0.  1.
          2   -1    0    0  501    0  0.00000000000E+00 -0.00000000000E+00 -0.12161064806E+04  0.12161064806E+04  0.00000000000E+00 0. -1.
         23    2    1    2    0    0 -0.63626363708E+03 -0.17373601648E+04  0.37571150831E+04  0.41889569621E+04  0.90525822042E+02 0.  0.
         11    1    3    3    0    0 -0.41058530811E+03 -0.99219924133E+03  0.21653955879E+04  0.24170183454E+04  0.00000000000E+00 0. -1.
        -11    1    3    3    0    0 -0.22567832897E+03 -0.74516092345E+03  0.15917194952E+04  0.17719386167E+04  0.00000000000E+00 0.  1.
         22    1    1    2    0    0  0.63626363708E+03  0.17373601648E+04 -0.14453136065E+03  0.18558397216E+04  0.00000000000E+00 0. -1.
<mgrwt>
<rscale>  0 0.48465251E+04</rscale>
<asrwt>0</asrwt>
<pdfrwt beam="1">  1        2 0.18709331E+00 0.48465251E+04</pdfrwt>
<pdfrwt beam="2">  1       -2 0.74287541E+00 0.48465251E+04</pdfrwt>
<totfact> 0.21164710E-03</totfact>
</mgrwt>
</event>
<event>
 6    1  0.8968082E-007  0.3328843E+04  0.7818608E-02  0.8155595E-01
          2   -1    0    0  501    0  0.00000000000E+00  0.00000000000E+00  0.40022672592E+04  0.40022672592E+04  0.00000000000E+00 0. -1.
         -2   -1    0    0    0  501 -0.00000000000E+00 -0.00000000000E+00 -0.69218252982E+03  0.69218252982E+03  0.00000000000E+00 0.  1.
         23    2    1    2    0    0 -0.15883964871E+04 -0.38740028264E+03  0.20867222128E+04  0.26524658943E+04  0.89907439403E+02 0.  0.
         13    1    3    3    0    0 -0.12191079644E+04 -0.33558589300E+03  0.16215251628E+04  0.20562553280E+04  0.00000000000E+00 0.  1.
        -13    1    3    3    0    0 -0.36928852277E+03 -0.51814389637E+02  0.46519705005E+03  0.59621056632E+03  0.00000000000E+00 0. -1.
         22    1    1    2    0    0  0.15883964871E+04  0.38740028264E+03  0.12233625166E+04  0.20419838947E+04  0.00000000000E+00 0.  1.
<mgrwt>
<rscale>  0 0.33288433E+04</rscale>
<asrwt>0</asrwt>
<pdfrwt beam="1">  1        2 0.61573341E+00 0.33288433E+04</pdfrwt>
<pdfrwt beam="2">  1       -2 0.10648962E+00 0.33288433E+04</pdfrwt>
<totfact> 0.20127286E-01</totfact>
</mgrwt>
</event>
<event>
 6    1  0.8968082E-007  0.7454973E+03  0.7818608E-02  0.9642441E-01
          2   -1    0    0  501    0  0.00000000000E+00  0.00000000000E+00  0.21633555012E+03  0.21633555012E+03  0.00000000000E+00 0. -1.
         -2   -1    0    0    0  501 -0.00000000000E+00 -0.00000000000E+00 -0.64225015616E+03  0.64225015616E+03  0.00000000000E+00 0.  1.
         23    2    1    2    0    0  0.32905735923E+03  0.16160244185E+03 -0.23981950154E+03  0.44745861790E+03  0.91168670824E+02 0.  0.
         11    1    3    3    0    0  0.77611740773E+02  0.84480952862E+02 -0.69940684499E+02  0.13435889643E+03  0.00000000000E+00 0. -1.
        -11    1    3    3    0    0  0.25144561846E+03  0.77121488991E+02 -0.16987881704E+03  0.31309972147E+03  0.00000000000E+00 0.  1.
         22    1    1    2    0    0 -0.32905735923E+03 -0.16160244185E+03 -0.18609510450E+03  0.41112708837E+03  0.00000000000E+00 0. -1.
<mgrwt>
<rscale>  0 0.74549726E+03</rscale>
<asrwt>0</asrwt>
<pdfrwt beam="1">  1        2 0.33282393E-01 0.74549726E+03</pdfrwt>
<pdfrwt beam="2">  1       -2 0.98807715E-01 0.74549726E+03</pdfrwt>
<totfact> 0.13572063E+02</totfact>
</mgrwt>
</event>
<event>
 6    1  0.8968082E-007  0.1419831E+04  0.7818608E-02  0.8939587E-01
         -2   -1    0    0    0  501 -0.00000000000E+00  0.00000000000E+00  0.12065663006E+04  0.12065663006E+04  0.00000000000E+00 0.  1.
          2   -1    0    0  501    0  0.00000000000E+00 -0.00000000000E+00 -0.41769794366E+03  0.41769794366E+03  0.00000000000E+00 0. -1.
         23    2    1    2    0    0  0.63101344998E+03 -0.18230507379E+03  0.97129685377E+02  0.67036933197E+03  0.92454050576E+02 0.  0.
         13    1    3    3    0    0  0.43951305278E+03 -0.16705333022E+03  0.85587994220E+02  0.47791614689E+03  0.00000000000E+00 0.  1.
        -13    1    3    3    0    0  0.19150039720E+03 -0.15251743565E+02  0.11541691158E+02  0.19245318507E+03  0.00000000000E+00 0. -1.
         22    1    1    2    0    0 -0.63101344998E+03  0.18230507379E+03  0.69173867160E+03  0.95389491233E+03  0.00000000000E+00 0.  1.
<mgrwt>
<rscale>  0 0.14198313E+04</rscale>
<asrwt>0</asrwt>
<pdfrwt beam="1">  1        2 0.64261223E-01 0.14198313E+04</pdfrwt>
<pdfrwt beam="2">  1       -2 0.18562558E+00 0.14198313E+04</pdfrwt>
<totfact> 0.12195420E+01</totfact>
</mgrwt>
</event>
<event>
 6    1  0.8968082E-007  0.3349223E+04  0.7818608E-02  0.8150482E-01
         -2   -1    0    0    0  501 -0.00000000000E+00  0.00000000000E+00  0.25986490648E+04  0.25986490648E+04  0.00000000000E+00 0.  1.
          2   -1    0    0  501    0  0.00000000000E+00 -0.00000000000E+00 -0.10791465202E+04  0.10791465202E+04  0.00000000000E+00 0. -1.
         23    2    1    2    0    0 -0.97918088068E+03 -0.20396274211E+03 -0.71291744229E+03  0.12315545921E+04  0.89885685858E+02 0.  0.
         11    1    3    3    0    0 -0.57180177006E+03 -0.78591319238E+02 -0.43454408881E+03  0.72246967052E+03  0.00000000000E+00 0.  1.
        -11    1    3    3    0    0 -0.40737911063E+03 -0.12537142287E+03 -0.27837335348E+03  0.50908492158E+03  0.00000000000E+00 0. -1.
         22    1    1    2    0    0  0.97918088068E+03  0.20396274211E+03  0.22324199869E+04  0.24462409929E+04  0.00000000000E+00 0.  1.
<mgrwt>
<rscale>  0 0.33492227E+04</rscale>
<asrwt>0</asrwt>
<pdfrwt beam="1">  1        2 0.16602254E+00 0.33492227E+04</pdfrwt>
<pdfrwt beam="2">  1       -2 0.39979216E+00 0.33492227E+04</pdfrwt>
<totfact> 0.13889384E-01</totfact>
</mgrwt>
</event>
<event>
 6    1  0.8968082E-007  0.2671011E+04  0.7818608E-02  0.8344473E-01
          2   -1    0    0  501    0  0.00000000000E+00  0.00000000000E+00  0.16266547960E+04  0.16266547960E+04  0.00000000000E+00 0. -1.
         -2   -1    0    0    0  501 -0.00000000000E+00 -0.00000000000E+00 -0.10964678109E+04  0.10964678109E+04  0.00000000000E+00 0.  1.
         23    2    1    2    0    0 -0.38484505681E+03 -0.11130494734E+04 -0.37302783915E+03  0.12389454386E+04  0.94080726692E+02 0.  0.
         13    1    3    3    0    0 -0.14598964452E+03 -0.56142136305E+03 -0.17064142133E+03  0.60466967666E+03  0.00000000000E+00 0.  1.
        -13    1    3    3    0    0 -0.23885541229E+03 -0.55162811035E+03 -0.20238641782E+03  0.63427576198E+03  0.00000000000E+00 0. -1.
         22    1    1    2    0    0  0.38484505681E+03  0.11130494734E+04  0.90321482426E+03  0.14841771683E+04  0.00000000000E+00 0. -1.
<mgrwt>
<rscale>  0 0.26710108E+04</rscale>
<asrwt>0</asrwt>
<pdfrwt beam="1">  1        2 0.25025459E+00 0.26710108E+04</pdfrwt>
<pdfrwt beam="2">  1       -2 0.16868735E+00 0.26710108E+04</pdfrwt>
<totfact> 0.20640061E+00</totfact>
</mgrwt>
</event>
<event>
 6    1  0.8968082E-007  0.1058422E+04  0.7818608E-02  0.9246692E-01
         -2   -1    0    0    0  501 -0.00000000000E+00  0.00000000000E+00  0.20614486194E+03  0.20614486194E+03  0.00000000000E+00 0.  1.
          2   -1    0    0  501    0  0.00000000000E+00 -0.00000000000E+00 -0.13585801230E+04  0.13585801230E+04  0.00000000000E+00 0. -1.
         23    2    1    2    0    0  0.20245136012E+03 -0.16296312538E+03  0.94415137715E+02  0.29107689760E+03  0.90928590858E+02 0.  0.
         11    1    3    3    0    0  0.16596187180E+03 -0.80599332875E+02  0.53227049146E+02  0.19202269166E+03  0.00000000000E+00 0.  1.
        -11    1    3    3    0    0  0.36489488325E+02 -0.82363792509E+02  0.41188088569E+02  0.99054205941E+02  0.00000000000E+00 0. -1.
         22    1    1    2    0    0 -0.20245136012E+03  0.16296312538E+03 -0.12468503988E+04  0.12736480873E+04  0.00000000000E+00 0. -1.
<mgrwt>
<rscale>  0 0.10584221E+04</rscale>
<asrwt>0</asrwt>
<pdfrwt beam="1">  1        2 0.20901232E+00 0.10584221E+04</pdfrwt>
<pdfrwt beam="2">  1       -2 0.31714594E-01 0.10584221E+04</pdfrwt>
<totfact> 0.14040161E+02</totfact>
</mgrwt>
</event>
<event>
 6    1  0.8968082E-007  0.4785939E+04  0.7818608E-02  0.7862404E-01
         -2   -1    0    0    0  501 -0.00000000000E+00  0.00000000000E+00  0.17953988990E+04  0.17953988990E+04  0.00000000000E+00 0.  1.
          2   -1    0    0  501    0  0.00000000000E+00 -0.00000000000E+00 -0.31894322531E+04  0.31894322531E+04  0.00000000000E+00 0. -1.
         23    2    1    2    0    0  0.36189600291E+03  0.14702879718E+04  0.12315781063E+04  0.19538987909E+04  0.90666509486E+02 0.  0.
         11    1    3    3    0    0  0.81304587092E+02  0.20144586736E+03  0.16678372410E+03  0.27387530737E+03  0.00000000000E+00 0. -1.
        -11    1    3    3    0    0  0.28059141582E+03  0.12688421045E+04  0.10647943822E+04  0.16800234835E+04  0.00000000000E+00 0.  1.
         22    1    1    2    0    0 -0.36189600291E+03 -0.14702879718E+04 -0.26256114605E+04  0.30309323612E+04  0.00000000000E+00 0. -1.
<mgrwt>
<rscale>  0 0.47859391E+04</rscale>
<asrwt>0</asrwt>
<pdfrwt beam="1">  1        2 0.49068188E+00 0.47859391E+04</pdfrwt>
<pdfrwt beam="2">  1       -2 0.27621522E+00 0.47859391E+04</pdfrwt>
<totfact> 0.43287965E-02</totfact>
</mgrwt>
</event>
<event>
 6    1  0.8968082E-007  0.1897552E+04  0.7818608E-02  0.8656076E-01
         -2   -1    0    0    0  501 -0.00000000000E+00  0.00000000000E+00  0.16552470998E+04  0.16552470998E+04  0.00000000000E+00 0.  1.
          2   -1    0    0  501    0  0.00000000000E+00 -0.00000000000E+00 -0.54383172189E+03  0.54383172189E+03  0.00000000000E+00 0. -1.
         23    2    1    2    0    0 -0.53011064532E+03 -0.74631297015E+03  0.83631386473E+03  0.12432121007E+04  0.90305599606E+02 0.  0.
         11    1    3    3    0    0 -0.41245422797E+03 -0.53525294771E+03  0.57460994262E+03  0.88701228534E+03  0.00000000000E+00 0. -1.
        -11    1    3    3    0    0 -0.11765641735E+03 -0.21106002245E+03  0.26170392211E+03  0.35619981537E+03  0.00000000000E+00 0.  1.
         22    1    1    2    0    0  0.53011064532E+03  0.74631297015E+03  0.27510151316E+03  0.95586672096E+03  0.00000000000E+00 0. -1.
<mgrwt>
<rscale>  0 0.18975520E+04</rscale>
<asrwt>0</asrwt>
<pdfrwt beam="1">  1        2 0.83666420E-01 0.18975520E+04</pdfrwt>
<pdfrwt beam="2">  1       -2 0.25465340E+00 0.18975520E+04</pdfrwt>
<totfact> 0.31443709E+00</totfact>
</mgrwt>
</event>
<event>
 6    1  0.8968082E-007  0.1624643E+04  0.7818608E-02  0.8805550E-01
         -1   -1    0    0    0  501 -0.00000000000E+00  0.00000000000E+00  0.83420656191E+03  0.83420656191E+03  0.00000000000E+00 0.  1.
          1   -1    0    0  501    0  0.00000000000E+00 -0.00000000000E+00 -0.79101100383E+03  0.79101100383E+03  0.00000000000E+00 0. -1.
         23    2    1    2    0    0 -0.65072111317E+02 -0.15121626764E+03 -0.77152936043E+03  0.79402719517E+03  0.90115999699E+02 0.  0.
         11    1    3    3    0    0 -0.51130745052E+02 -0.13125650258E+03 -0.44894749511E+03  0.47052786945E+03  0.00000000000E+00 0. -1.
        -11    1    3    3    0    0 -0.13941366265E+02 -0.19959765061E+02 -0.32258186531E+03  0.32349932572E+03  0.00000000000E+00 0.  1.
         22    1    1    2    0    0  0.65072111317E+02  0.15121626764E+03  0.81472491851E+03  0.83119037056E+03  0.00000000000E+00 0.  1.
<mgrwt>
<rscale>  0 0.16246434E+04</rscale>
<asrwt>0</asrwt>
<pdfrwt beam="1">  1        1 0.12169400E+00 0.16246434E+04</pdfrwt>
<pdfrwt beam="2">  1       -1 0.12833947E+00 0.16246434E+04</pdfrwt>
<totfact> 0.11296644E+01</totfact>
</mgrwt>
</event>
<event>
 6    1  0.8968082E-007  0.3637102E+04  0.7818608E-02  0.8082045E-01
          2   -1    0    0  501    0  0.00000000000E+00  0.00000000000E+00  0.16815182097E+04  0.16815182097E+04  0.00000000000E+00 0. -1.
         -2   -1    0    0    0  501 -0.00000000000E+00 -0.00000000000E+00 -0.19667513914E+04  0.19667513914E+04  0.00000000000E+00 0.  1.
         23    2    1    2    0    0 -0.15738910155E+04  0.52093829957E+03 -0.88968576822E+03  0.18836527673E+04  0.89985226103E+02 0.  0.
         11    1    3    3    0    0 -0.57427192829E+03  0.17753773826E+03 -0.27567982653E+03  0.66129211615E+03  0.00000000000E+00 0.  1.
        -11    1    3    3    0    0 -0.99961908721E+03  0.34340056130E+03 -0.61400594169E+03  0.12223606511E+04  0.00000000000E+00 0. -1.
         22    1    1    2    0    0  0.15738910155E+04 -0.52093829957E+03  0.60445258648E+03  0.17646168337E+04  0.00000000000E+00 0. -1.
<mgrwt>
<rscale>  0 0.36371023E+04</rscale>
<asrwt>0</asrwt>
<pdfrwt beam="1">  1        2 0.25869511E+00 0.36371023E+04</pdfrwt>
<pdfrwt beam="2">  1       -2 0.30257714E+00 0.36371023E+04</pdfrwt>
<totfact> 0.25007288E-01</totfact>
</mgrwt>
</event>
<event>
 6    1  0.8968082E-007  0.1478273E+04  0.7818608E-02  0.8899031E-01
         -2   -1    0    0    0  501 -0.00000000000E+00  0.00000000000E+00  0.12774540921E+03  0.12774540921E+03  0.00000000000E+00 0.  1.
          2   -1    0    0  501    0  0.00000000000E+00 -0.00000000000E+00 -0.42766523164E+04  0.42766523164E+04  0.00000000000E+00 0. -1.
         23    2    1    2    0    0  0.57364215051E+03  0.17953856761E+02 -0.34589451370E+04  0.35069374746E+04  0.70152207714E+02 0.  0.
         13    1    3    3    0    0  0.21355911025E+03 -0.26360266023E+02 -0.12418331027E+04  0.12603379753E+04  0.00000000000E+00 0. -1.
        -13    1    3    3    0    0  0.36008304026E+03  0.44314122783E+02 -0.22171120343E+04  0.22465994992E+04  0.00000000000E+00 0.  1.
         22    1    1    2    0    0 -0.57364215051E+03 -0.17953856761E+02 -0.68996177020E+03  0.89746025101E+03  0.00000000000E+00 0.  1.
<mgrwt>
<rscale>  0 0.14782729E+04</rscale>
<asrwt>0</asrwt>
<pdfrwt beam="1">  1        2 0.65794657E+00 0.14782729E+04</pdfrwt>
<pdfrwt beam="2">  1       -2 0.19653138E-01 0.14782729E+04</pdfrwt>
<totfact> 0.43803333E+00</totfact>
</mgrwt>
</event>
<event>
 6    1  0.8968082E-007  0.1491999E+04  0.7818608E-02  0.8889791E-01
         -1   -1    0    0    0  501 -0.00000000000E+00  0.00000000000E+00  0.61647473391E+03  0.61647473391E+03  0.00000000000E+00 0.  1.
          1   -1    0    0  501    0  0.00000000000E+00 -0.00000000000E+00 -0.90273840114E+03  0.90273840114E+03  0.00000000000E+00 0. -1.
         23    2    1    2    0    0  0.74129690414E+03 -0.54883867858E+02 -0.14859016551E+03  0.76324532349E+03  0.89056428741E+02 0.  0.
         11    1    3    3    0    0  0.26534677236E+03 -0.35446363140E+02 -0.94242959510E+02  0.28380819170E+03  0.00000000000E+00 0.  1.
        -11    1    3    3    0    0  0.47595013178E+03 -0.19437504719E+02 -0.54347205997E+02  0.47943713178E+03  0.00000000000E+00 0. -1.
         22    1    1    2    0    0 -0.74129690414E+03  0.54883867858E+02 -0.13767350173E+03  0.75596781156E+03  0.00000000000E+00 0.  1.
<mgrwt>
<rscale>  0 0.14919992E+04</rscale>
<asrwt>0</asrwt>
<pdfrwt beam="1">  1        1 0.13888283E+00 0.14919992E+04</pdfrwt>
<pdfrwt beam="2">  1       -1 0.94842267E-01 0.14919992E+04</pdfrwt>
<totfact> 0.18839143E+01</totfact>
</mgrwt>
</event>
<event>
 6    1  0.8968082E-007  0.5198509E+04  0.7818608E-02  0.7798594E-01
          2   -1    0    0  501    0  0.00000000000E+00  0.00000000000E+00  0.24435021518E+04  0.24435021518E+04  0.00000000000E+00 0. -1.
         -2   -1    0    0    0  501 -0.00000000000E+00 -0.00000000000E+00 -0.27649342223E+04  0.27649342223E+04  0.00000000000E+00 0.  1.
         23    2    1    2    0    0  0.14129084061E+04  0.31882820219E+03  0.20007000922E+04  0.24716025523E+04  0.89759295402E+02 0.  0.
         13    1    3    3    0    0  0.82136783687E+03  0.22136666862E+03  0.11276894197E+04  0.14125621235E+04  0.00000000000E+00 0.  1.
        -13    1    3    3    0    0  0.59154056922E+03  0.97461533576E+02  0.87301067251E+03  0.10590404288E+04  0.00000000000E+00 0. -1.
         22    1    1    2    0    0 -0.14129084061E+04 -0.31882820219E+03 -0.23221321627E+04  0.27368338217E+04  0.00000000000E+00 0.  1.
<mgrwt>
<rscale>  0 0.51985085E+04</rscale>
<asrwt>0</asrwt>
<pdfrwt beam="1">  1        2 0.37592341E+00 0.51985085E+04</pdfrwt>
<pdfrwt beam="2">  1       -2 0.42537450E+00 0.51985085E+04</pdfrwt>
<totfact> 0.13613911E-02</totfact>
</mgrwt>
</event>
<event>
 6    1  0.8968082E-007  0.1389873E+04  0.7818608E-02  0.8961182E-01
          2   -1    0    0  501    0  0.00000000000E+00  0.00000000000E+00  0.88007330600E+03  0.88007330600E+03  0.00000000000E+00 0. -1.
         -2   -1    0    0    0  501 -0.00000000000E+00 -0.00000000000E+00 -0.54874630808E+03  0.54874630808E+03  0.00000000000E+00 0.  1.
         23    2    1    2    0    0 -0.66577105994E+03  0.88583001735E+02 -0.48087662818E+01  0.67776348806E+03  0.90786392536E+02 0.  0.
         13    1    3    3    0    0 -0.41559040360E+03  0.23313316474E+02 -0.33668301712E+02  0.41760321937E+03  0.00000000000E+00 0.  1.
        -13    1    3    3    0    0 -0.25018065634E+03  0.65269685261E+02  0.28859535430E+02  0.26016026869E+03  0.00000000000E+00 0. -1.
         22    1    1    2    0    0  0.66577105994E+03 -0.88583001735E+02  0.33613576421E+03  0.75105612602E+03  0.00000000000E+00 0.  1.
<mgrwt>
<rscale>  0 0.13898733E+04</rscale>
<asrwt>0</asrwt>
<pdfrwt beam="1">  1        2 0.13539589E+00 0.13898733E+04</pdfrwt>
<pdfrwt beam="2">  1       -2 0.84422509E-01 0.13898733E+04</pdfrwt>
<totfact> 0.36072643E+01</totfact>
</mgrwt>
</event>
<event>
 6    1  0.8968082E-007  0.3443234E+04  0.7818608E-02  0.8127376E-01
         -1   -1    0    0    0  501 -0.00000000000E+00  0.00000000000E+00  0.14255843566E+04  0.14255843566E+04  0.00000000000E+00 0.  1.
          1   -1    0    0  501    0  0.00000000000E+00 -0.00000000000E+00 -0.20791231987E+04  0.20791231987E+04  0.00000000000E+00 0. -1.
         23    2    1    2    0    0 -0.18187621914E+03 -0.57669214904E+03  0.13124072153E+04  0.14478661189E+04  0.90833945438E+02 0.  0.
         11    1    3    3    0    0 -0.17302058399E+03 -0.43166931260E+03  0.96121596782E+03  0.10678064688E+04  0.00000000000E+00 0.  1.
        -11    1    3    3    0    0 -0.88556351485E+01 -0.14502283644E+03  0.35119124752E+03  0.38005965018E+03  0.00000000000E+00 0. -1.
         22    1    1    2    0    0  0.18187621914E+03  0.57669214904E+03 -0.19659460574E+04  0.20568414364E+04  0.00000000000E+00 0. -1.
<mgrwt>
<rscale>  0 0.34432342E+04</rscale>
<asrwt>0</asrwt>
<pdfrwt beam="1">  1        1 0.31986511E+00 0.34432342E+04</pdfrwt>
<pdfrwt beam="2">  1       -1 0.21932067E+00 0.34432342E+04</pdfrwt>
<totfact> 0.24005806E-01</totfact>
</mgrwt>
</event>
<event>
 6    1  0.8968082E-007  0.1340531E+04  0.7818608E-02  0.8998027E-01
         -2   -1    0    0    0  501 -0.00000000000E+00  0.00000000000E+00  0.77757865119E+03  0.77757865119E+03  0.00000000000E+00 0.  1.
          2   -1    0    0  501    0  0.00000000000E+00 -0.00000000000E+00 -0.57776223715E+03  0.57776223715E+03  0.00000000000E+00 0. -1.
         23    2    1    2    0    0 -0.45162963759E+03  0.42327876744E+03 -0.15265634570E+03  0.64304088773E+03  0.84043910492E+02 0.  0.
         13    1    3    3    0    0 -0.31519684456E+03  0.34354317629E+03 -0.12400989012E+03  0.48244110277E+03  0.00000000000E+00 0. -1.
        -13    1    3    3    0    0 -0.13643279303E+03  0.79735591147E+02 -0.28646455582E+02  0.16059978496E+03  0.00000000000E+00 0.  1.
         22    1    1    2    0    0  0.45162963759E+03 -0.42327876744E+03  0.35247275973E+03  0.71230000061E+03  0.00000000000E+00 0. -1.
<mgrwt>
<rscale>  0 0.13405306E+04</rscale>
<asrwt>0</asrwt>
<pdfrwt beam="1">  1        2 0.88886498E-01 0.13405306E+04</pdfrwt>
<pdfrwt beam="2">  1       -2 0.11962749E+00 0.13405306E+04</pdfrwt>
<totfact> 0.27144310E+01</totfact>
</mgrwt>
</event>
<event>
 6    1  0.8968082E-007  0.1693926E+04  0.7818608E-02  0.8764836E-01
         -1   -1    0    0    0  501 -0.00000000000E+00  0.00000000000E+00  0.21048032012E+03  0.21048032012E+03  0.00000000000E+00 0.  1.
          1   -1    0    0  501    0  0.00000000000E+00 -0.00000000000E+00 -0.34081404290E+04  0.34081404290E+04  0.00000000000E+00 0. -1.
         23    2    1    2    0    0  0.68942583517E+03 -0.40391194425E+03 -0.21876271009E+04  0.23307467188E+04  0.90637152335E+02 0.  0.
         11    1    3    3    0    0  0.29760089036E+03 -0.17787509140E+03 -0.82111744348E+03  0.89131346566E+03  0.00000000000E+00 0.  1.
        -11    1    3    3    0    0  0.39182494481E+03 -0.22603685285E+03 -0.13665096575E+04  0.14394332531E+04  0.00000000000E+00 0. -1.
         22    1    1    2    0    0 -0.68942583517E+03  0.40391194425E+03 -0.10100330079E+04  0.12878740303E+04  0.00000000000E+00 0.  1.
<mgrwt>
<rscale>  0 0.16939262E+04</rscale>
<asrwt>0</asrwt>
<pdfrwt beam="1">  1        1 0.52432925E+00 0.16939262E+04</pdfrwt>
<pdfrwt beam="2">  1       -1 0.32381591E-01 0.16939262E+04</pdfrwt>
<totfact> 0.25212231E+00</totfact>
</mgrwt>
</event>
<event>
 6    1  0.8968082E-007  0.2566728E+04  0.7818608E-02  0.8379591E-01
          1   -1    0    0  501    0  0.00000000000E+00  0.00000000000E+00  0.36345291116E+04  0.36345291116E+04  0.00000000000E+00 0. -1.
         -1   -1    0    0    0  501 -0.00000000000E+00 -0.00000000000E+00 -0.45316009783E+03  0.45316009783E+03  0.00000000000E+00 0.  1.
         23    2    1    2    0    0  0.29362836814E+03 -0.99110221985E+03  0.38546430042E+03  0.11068194714E+04  0.89249015111E+02 0.  0.
         11    1    3    3    0    0  0.91556022007E+02 -0.32196364083E+03  0.16971824447E+03  0.37529638113E+03  0.00000000000E+00 0.  1.
        -11    1    3    3    0    0  0.20207234614E+03 -0.66913857901E+03  0.21574605595E+03  0.73152309031E+03  0.00000000000E+00 0. -1.
         22    1    1    2    0    0 -0.29362836814E+03  0.99110221985E+03  0.27959047133E+04  0.29808697380E+04  0.00000000000E+00 0. -1.
<mgrwt>
<rscale>  0 0.25667283E+04</rscale>
<asrwt>0</asrwt>
<pdfrwt beam="1">  1        1 0.55915831E+00 0.25667283E+04</pdfrwt>
<pdfrwt beam="2">  1       -1 0.69716940E-01 0.25667283E+04</pdfrwt>
<totfact> 0.35884331E-01</totfact>
</mgrwt>
</event>
<event>
 6    1  0.8968082E-007  0.2578324E+04  0.7818608E-02  0.8375602E-01
          1   -1    0    0  501    0  0.00000000000E+00  0.00000000000E+00  0.29324996879E+04  0.29324996879E+04  0.00000000000E+00 0. -1.
         -1   -1    0    0    0  501 -0.00000000000E+00 -0.00000000000E+00 -0.56673104169E+03  0.56673104169E+03  0.00000000000E+00 0.  1.
         23    2    1    2    0    0 -0.63132401724E+02  0.71163143920E+03  0.26381236964E+04  0.27346509243E+04  0.90631310544E+02 0.  0.
         13    1    3    3    0    0 -0.39518482381E+02  0.47683519377E+03  0.19213858366E+04  0.19800649094E+04  0.00000000000E+00 0. -1.
        -13    1    3    3    0    0 -0.23613919343E+02  0.23479624544E+03  0.71673785987E+03  0.75458601486E+03  0.00000000000E+00 0.  1.
         22    1    1    2    0    0  0.63132401724E+02 -0.71163143920E+03 -0.27235505019E+03  0.76457980537E+03  0.00000000000E+00 0.  1.
<mgrwt>
<rscale>  0 0.25783240E+04</rscale>
<asrwt>0</asrwt>
<pdfrwt beam="1">  1        1 0.45115379E+00 0.25783240E+04</pdfrwt>
<pdfrwt beam="2">  1       -1 0.87189393E-01 0.25783240E+04</pdfrwt>
<totfact> 0.76473378E-01</totfact>
</mgrwt>
</event>
<event>
 6    1  0.8968082E-007  0.1519294E+04  0.7818608E-02  0.8871723E-01
         -2   -1    0    0    0  501 -0.00000000000E+00  0.00000000000E+00  0.20544788784E+03  0.20544788784E+03  0.00000000000E+00 0.  1.
          2   -1    0    0  501    0  0.00000000000E+00 -0.00000000000E+00 -0.28088063181E+04  0.28088063181E+04  0.00000000000E+00 0. -1.
         23    2    1    2    0    0  0.48084923318E+03  0.32251972705E+03 -0.33920911518E+03  0.67724605868E+03  0.91457316750E+02 0.  0.
         13    1    3    3    0    0  0.29560576302E+03  0.21031741209E+03 -0.26125768678E+03  0.44707019568E+03  0.00000000000E+00 0. -1.
        -13    1    3    3    0    0  0.18524347016E+03  0.11220231496E+03 -0.77951428397E+02  0.23017586300E+03  0.00000000000E+00 0.  1.
         22    1    1    2    0    0 -0.48084923318E+03 -0.32251972705E+03 -0.22641493151E+04  0.23370081473E+04  0.00000000000E+00 0. -1.
<mgrwt>
<rscale>  0 0.15192937E+04</rscale>
<asrwt>0</asrwt>
<pdfrwt beam="1">  1        2 0.43212403E+00 0.15192937E+04</pdfrwt>
<pdfrwt beam="2">  1       -2 0.31607369E-01 0.15192937E+04</pdfrwt>
<totfact> 0.20595377E+01</totfact>
</mgrwt>
</event>
<event>
 6    1  0.8968082E-007  0.8158408E+03  0.7818608E-02  0.9537367E-01
          2   -1    0    0  501    0  0.00000000000E+00  0.00000000000E+00  0.16683248551E+04  0.16683248551E+04  0.00000000000E+00 0. -1.
         -2   -1    0    0    0  501 -0.00000000000E+00 -0.00000000000E+00 -0.99740210046E+02  0.99740210046E+02  0.00000000000E+00 0.  1.
         23    2    1    2    0    0 -0.90315818759E+02  0.24008233318E+03  0.14671937431E+04  0.14922452167E+04  0.91333636082E+02 0.  0.
         13    1    3    3    0    0 -0.23837495426E+02  0.14658040983E+03  0.10108939368E+04  0.10217438986E+04  0.00000000000E+00 0.  1.
        -13    1    3    3    0    0 -0.66478323333E+02  0.93501923346E+02  0.45629980626E+03  0.47050131810E+03  0.00000000000E+00 0. -1.
         22    1    1    2    0    0  0.90315818759E+02 -0.24008233318E+03  0.10139090199E+03  0.27581984851E+03  0.00000000000E+00 0.  1.
<mgrwt>
<rscale>  0 0.81584085E+03</rscale>
<asrwt>0</asrwt>
<pdfrwt beam="1">  1        2 0.25666534E+00 0.81584085E+03</pdfrwt>
<pdfrwt beam="2">  1       -2 0.15344649E-01 0.81584085E+03</pdfrwt>
<totfact> 0.34832821E+02</totfact>
</mgrwt>
</event>
<event>
 6    1  0.8968082E-007  0.1375987E+04  0.7818608E-02  0.8971386E-01
         -1   -1    0    0    0  501 -0.00000000000E+00  0.00000000000E+00  0.29880179527E+03  0.29880179527E+03  0.00000000000E+00 0.  1.
          1   -1    0    0  501    0  0.00000000000E+00 -0.00000000000E+00 -0.15841099325E+04  0.15841099325E+04  0.00000000000E+00 0. -1.
         23    2    1    2    0    0  0.64473705528E+03 -0.23083445794E+03 -0.63035491410E+03  0.93531785807E+03  0.92204991582E+02 0.  0.
         11    1    3    3    0    0  0.13736325254E+03 -0.58908813770E+02 -0.90260533827E+02  0.17460204883E+03  0.00000000000E+00 0. -1.
        -11    1    3    3    0    0  0.50737380274E+03 -0.17192564417E+03 -0.54009438027E+03  0.76071580925E+03  0.00000000000E+00 0.  1.
         22    1    1    2    0    0 -0.64473705528E+03  0.23083445794E+03 -0.65495322314E+03  0.94759386972E+03  0.00000000000E+00 0. -1.
<mgrwt>
<rscale>  0 0.13759868E+04</rscale>
<asrwt>0</asrwt>
<pdfrwt beam="1">  1        1 0.24370922E+00 0.13759868E+04</pdfrwt>
<pdfrwt beam="2">  1       -1 0.45969506E-01 0.13759868E+04</pdfrwt>
<totfact> 0.26304194E+01</totfact>
</mgrwt>
</event>
<event>
 6    1  0.8968082E-007  0.2298296E+04  0.7818608E-02  0.8478593E-01
          1   -1    0    0  501    0  0.00000000000E+00  0.00000000000E+00  0.14093449228E+04  0.14093449228E+04  0.00000000000E+00 0. -1.
         -1   -1    0    0    0  501 -0.00000000000E+00 -0.00000000000E+00 -0.93698922372E+03  0.93698922372E+03  0.00000000000E+00 0.  1.
         23    2    1    2    0    0 -0.48670142026E+03 -0.34381653561E+03  0.12375553460E+04  0.13764792180E+04  0.89798221327E+02 0.  0.
         11    1    3    3    0    0 -0.17789705332E+03 -0.10590908149E+03  0.34240097881E+03  0.40012813624E+03  0.00000000000E+00 0.  1.
        -11    1    3    3    0    0 -0.30880436694E+03 -0.23790745412E+03  0.89515436722E+03  0.97635108179E+03  0.00000000000E+00 0. -1.
         22    1    1    2    0    0  0.48670142026E+03  0.34381653561E+03 -0.76519964694E+03  0.96985492849E+03  0.00000000000E+00 0.  1.
<mgrwt>
<rscale>  0 0.22982959E+04</rscale>
<asrwt>0</asrwt>
<pdfrwt beam="1">  1        1 0.21682230E+00 0.22982959E+04</pdfrwt>
<pdfrwt beam="2">  1       -1 0.14415219E+00 0.22982959E+04</pdfrwt>
<totfact> 0.26550724E+00</totfact>
</mgrwt>
</event>
<event>
 6    1  0.8968082E-007  0.1982783E+04  0.7818608E-02  0.8614713E-01
          1   -1    0    0  501    0  0.00000000000E+00  0.00000000000E+00  0.48685198285E+04  0.48685198285E+04  0.00000000000E+00 0. -1.
         -1   -1    0    0    0  501 -0.00000000000E+00 -0.00000000000E+00 -0.20188000250E+03  0.20188000250E+03  0.00000000000E+00 0.  1.
         23    2    1    2    0    0  0.83478841614E+03  0.40620698834E+03  0.32109882931E+04  0.33439012928E+04  0.96717219908E+02 0.  0.
         11    1    3    3    0    0  0.60553271974E+03  0.28667872959E+03  0.21560909956E+04  0.22577827508E+04  0.00000000000E+00 0. -1.
        -11    1    3    3    0    0  0.22925569639E+03  0.11952825875E+03  0.10548972975E+04  0.10861185420E+04  0.00000000000E+00 0.  1.
         22    1    1    2    0    0 -0.83478841614E+03 -0.40620698834E+03  0.14556515330E+04  0.17264985382E+04  0.00000000000E+00 0. -1.
<mgrwt>
<rscale>  0 0.19827827E+04</rscale>
<asrwt>0</asrwt>
<pdfrwt beam="1">  1        1 0.74900296E+00 0.19827827E+04</pdfrwt>
<pdfrwt beam="2">  1       -1 0.31058466E-01 0.19827827E+04</pdfrwt>
<totfact> 0.11442861E-01</totfact>
</mgrwt>
</event>
<event>
 6    1  0.8968082E-007  0.1269879E+04  0.7818608E-02  0.9053799E-01
          2   -1    0    0  501    0  0.00000000000E+00  0.00000000000E+00  0.11969758403E+04  0.11969758403E+04  0.00000000000E+00 0. -1.
         -2   -1    0    0    0  501 -0.00000000000E+00 -0.00000000000E+00 -0.33680539885E+03  0.33680539885E+03  0.00000000000E+00 0.  1.
         23    2    1    2    0    0 -0.14837361620E+03 -0.60263242040E+03  0.57473235624E+03  0.85065938724E+03  0.90130725493E+02 0.  0.
         13    1    3    3    0    0 -0.54642904709E+02 -0.26324561801E+03  0.19051648087E+03  0.32951575367E+03  0.00000000000E+00 0. -1.
        -13    1    3    3    0    0 -0.93730711489E+02 -0.33938680239E+03  0.38421587537E+03  0.52114363356E+03  0.00000000000E+00 0.  1.
         22    1    1    2    0    0  0.14837361620E+03  0.60263242040E+03  0.28543808524E+03  0.68312185195E+03  0.00000000000E+00 0.  1.
<mgrwt>
<rscale>  0 0.12698786E+04</rscale>
<asrwt>0</asrwt>
<pdfrwt beam="1">  1        2 0.18415013E+00 0.12698786E+04</pdfrwt>
<pdfrwt beam="2">  1       -2 0.51816216E-01 0.12698786E+04</pdfrwt>
<totfact> 0.65694027E+01</totfact>
</mgrwt>
</event>
<event>
 6    1  0.8968082E-007  0.1833396E+04  0.7818608E-02  0.8688738E-01
         -2   -1    0    0    0  501 -0.00000000000E+00  0.00000000000E+00  0.48773379650E+03  0.48773379650E+03  0.00000000000E+00 0.  1.
          2   -1    0    0  501    0  0.00000000000E+00 -0.00000000000E+00 -0.17229391959E+04  0.17229391959E+04  0.00000000000E+00 0. -1.
         23    2    1    2    0    0  0.60464805010E+03 -0.64813333081E+03 -0.89042406915E+03  0.12595945284E+04  0.89706600020E+02 0.  0.
         13    1    3    3    0    0  0.21590970923E+03 -0.22909378540E+03 -0.25686009703E+03  0.40629801193E+03  0.00000000000E+00 0.  1.
        -13    1    3    3    0    0  0.38873834088E+03 -0.41903954541E+03 -0.63356397212E+03  0.85329651649E+03  0.00000000000E+00 0. -1.
         22    1    1    2    0    0 -0.60464805010E+03  0.64813333081E+03 -0.34478133029E+03  0.95107846402E+03  0.00000000000E+00 0.  1.
<mgrwt>
<rscale>  0 0.18333965E+04</rscale>
<asrwt>0</asrwt>
<pdfrwt beam="1">  1        2 0.26506757E+00 0.18333965E+04</pdfrwt>
<pdfrwt beam="2">  1       -2 0.75035969E-01 0.18333965E+04</pdfrwt>
<totfact> 0.14300820E+01</totfact>
</mgrwt>
</event>
<event>
 6    1  0.8968082E-007  0.3343892E+04  0.7818608E-02  0.8151816E-01
         -2   -1    0    0    0  501 -0.00000000000E+00  0.00000000000E+00  0.24108954822E+04  0.24108954822E+04  0.00000000000E+00 0.  1.
          2   -1    0    0  501    0  0.00000000000E+00 -0.00000000000E+00 -0.11594875682E+04  0.11594875682E+04  0.00000000000E+00 0. -1.
         23    2    1    2    0    0 -0.60129799109E+03  0.14248669554E+04 -0.48530995132E+02  0.15500745883E+04  0.92578925010E+02 0.  0.
         13    1    3    3    0    0 -0.11508559312E+03  0.37557109655E+03 -0.77221849116E+01  0.39288417434E+03  0.00000000000E+00 0. -1.
        -13    1    3    3    0    0 -0.48621239797E+03  0.10492958588E+04 -0.40808810220E+02  0.11571904140E+04  0.00000000000E+00 0.  1.
         22    1    1    2    0    0  0.60129799109E+03 -0.14248669554E+04  0.12999389091E+04  0.20203084620E+04  0.00000000000E+00 0.  1.
<mgrwt>
<rscale>  0 0.33438919E+04</rscale>
<asrwt>0</asrwt>
<pdfrwt beam="1">  1        2 0.17838270E+00 0.33438919E+04</pdfrwt>
<pdfrwt beam="2">  1       -2 0.37090700E+00 0.33438919E+04</pdfrwt>
<totfact> 0.19089064E-01</totfact>
</mgrwt>
</event>
<event>
 6    1  0.8968082E-007  0.4470806E+04  0.7818608E-02  0.7915768E-01
         -1   -1    0    0    0  501 -0.00000000000E+00  0.00000000000E+00  0.43990761921E+04  0.43990761921E+04  0.00000000000E+00 0.  1.
          1   -1    0    0  501    0  0.00000000000E+00 -0.00000000000E+00 -0.11359261639E+04  0.11359261639E+04  0.00000000000E+00 0. -1.
         23    2    1    2    0    0 -0.18161949973E+04  0.10676772662E+04  0.71050282083E+03  0.22252430326E+04  0.91614861960E+02 0.  0.
         13    1    3    3    0    0 -0.13491680658E+04  0.74770194592E+03  0.50845289474E+03  0.16241419322E+04  0.00000000000E+00 0.  1.
        -13    1    3    3    0    0 -0.46702693145E+03  0.31997532029E+03  0.20204992609E+03  0.60110110042E+03  0.00000000000E+00 0. -1.
         22    1    1    2    0    0  0.18161949973E+04 -0.10676772662E+04  0.25526472074E+04  0.33097593233E+04  0.00000000000E+00 0.  1.
<mgrwt>
<rscale>  0 0.44708056E+04</rscale>
<asrwt>0</asrwt>
<pdfrwt beam="1">  1        1 0.17475787E+00 0.44708056E+04</pdfrwt>
<pdfrwt beam="2">  1       -1 0.67678094E+00 0.44708056E+04</pdfrwt>
<totfact> 0.21604449E-03</totfact>
</mgrwt>
</event>
<event>
 6    1  0.8968082E-007  0.4552074E+04  0.7818608E-02  0.7901583E-01
         -2   -1    0    0    0  501 -0.00000000000E+00  0.00000000000E+00  0.19315844601E+04  0.19315844601E+04  0.00000000000E+00 0.  1.
          2   -1    0    0  501    0  0.00000000000E+00 -0.00000000000E+00 -0.26819146249E+04  0.26819146249E+04  0.00000000000E+00 0. -1.
         23    2    1    2    0    0 -0.14923651002E+04 -0.15240747635E+04 -0.11772976358E+04  0.24381235545E+04  0.91974273354E+02 0.  0.
         13    1    3    3    0    0 -0.49113323824E+03 -0.56373453249E+03 -0.40573178023E+03  0.85066254080E+03  0.00000000000E+00 0. -1.
        -13    1    3    3    0    0 -0.10012318620E+04 -0.96034023097E+03 -0.77156585554E+03  0.15874610137E+04  0.00000000000E+00 0.  1.
         22    1    1    2    0    0  0.14923651002E+04  0.15240747635E+04  0.42696747092E+03  0.21753755304E+04  0.00000000000E+00 0.  1.
<mgrwt>
<rscale>  0 0.45520741E+04</rscale>
<asrwt>0</asrwt>
<pdfrwt beam="1">  1        2 0.41260225E+00 0.45520741E+04</pdfrwt>
<pdfrwt beam="2">  1       -2 0.29716684E+00 0.45520741E+04</pdfrwt>
<totfact> 0.67935279E-02</totfact>
</mgrwt>
</event>
<event>
 6    1  0.8968082E-007  0.1787819E+04  0.7818608E-02  0.8712804E-01
         -2   -1    0    0    0  501 -0.00000000000E+00  0.00000000000E+00  0.37381121349E+03  0.37381121349E+03  0.00000000000E+00 0.  1.
          2   -1    0    0  501    0  0.00000000000E+00 -0.00000000000E+00 -0.21376412087E+04  0.21376412087E+04  0.00000000000E+00 0. -1.
         23    2    1    2    0    0  0.33604176582E+03 -0.42609088106E+02 -0.20426580637E+04  0.20727216454E+04  0.94781069935E+02 0.  0.
         13    1    3    3    0    0  0.14348586651E+03 -0.37190517679E+01 -0.11356072391E+04  0.11446422265E+04  0.00000000000E+00 0. -1.
        -13    1    3    3    0    0  0.19255589932E+03 -0.38890036339E+02 -0.90705082463E+03  0.92807941888E+03  0.00000000000E+00 0.  1.
         22    1    1    2    0    0 -0.33604176582E+03  0.42609088106E+02  0.27882806848E+03  0.43873077683E+03  0.00000000000E+00 0.  1.
<mgrwt>
<rscale>  0 0.17878191E+04</rscale>
<asrwt>0</asrwt>
<pdfrwt beam="1">  1        2 0.32886788E+00 0.17878191E+04</pdfrwt>
<pdfrwt beam="2">  1       -2 0.57509417E-01 0.17878191E+04</pdfrwt>
<totfact> 0.14983544E+01</totfact>
</mgrwt>
</event>
<event>
 6    1  0.8968082E-007  0.2588997E+04  0.7818608E-02  0.8371948E-01
         -2   -1    0    0    0  501 -0.00000000000E+00  0.00000000000E+00  0.12411964272E+04  0.12411964272E+04  0.00000000000E+00 0.  1.
          2   -1    0    0  501    0  0.00000000000E+00 -0.00000000000E+00 -0.13500896365E+04  0.13500896365E+04  0.00000000000E+00 0. -1.
         23    2    1    2    0    0 -0.49646841269E+03 -0.37904818700E+03 -0.11875118094E+04  0.13448605757E+04  0.91144158399E+02 0.  0.
         11    1    3    3    0    0 -0.18737800270E+03 -0.16685003838E+03 -0.56434843236E+03  0.61760716019E+03  0.00000000000E+00 0. -1.
        -11    1    3    3    0    0 -0.30909040999E+03 -0.21219814862E+03 -0.62316337705E+03  0.72725341547E+03  0.00000000000E+00 0.  1.
         22    1    1    2    0    0  0.49646841269E+03  0.37904818700E+03  0.10786186001E+04  0.12464254881E+04  0.00000000000E+00 0.  1.
<mgrwt>
<rscale>  0 0.25889971E+04</rscale>
<asrwt>0</asrwt>
<pdfrwt beam="1">  1        2 0.20770610E+00 0.25889971E+04</pdfrwt>
<pdfrwt beam="2">  1       -2 0.19095330E+00 0.25889971E+04</pdfrwt>
<totfact> 0.20907651E+00</totfact>
</mgrwt>
</event>
<event>
 6    1  0.8968082E-007  0.3823471E+04  0.7818608E-02  0.8041137E-01
         -2   -1    0    0    0  501 -0.00000000000E+00  0.00000000000E+00  0.18947965648E+04  0.18947965648E+04  0.00000000000E+00 0.  1.
          2   -1    0    0  501    0  0.00000000000E+00 -0.00000000000E+00 -0.19288255543E+04  0.19288255543E+04  0.00000000000E+00 0. -1.
         23    2    1    2    0    0  0.10220642510E+03  0.18753852449E+04 -0.36628625200E+03  0.19162912987E+04  0.10242437780E+03 0.  0.
         11    1    3    3    0    0  0.24882792549E+02  0.78636522533E+03 -0.10535703534E+03  0.79378178731E+03  0.00000000000E+00 0.  1.
        -11    1    3    3    0    0  0.77323632549E+02  0.10890200195E+04 -0.26092921666E+03  0.11225095114E+04  0.00000000000E+00 0. -1.
         22    1    1    2    0    0 -0.10220642510E+03 -0.18753852449E+04  0.33225726251E+03  0.19073308204E+04  0.00000000000E+00 0.  1.
<mgrwt>
<rscale>  0 0.38234707E+04</rscale>
<asrwt>0</asrwt>
<pdfrwt beam="1">  1        2 0.29674239E+00 0.38234707E+04</pdfrwt>
<pdfrwt beam="2">  1       -2 0.29150716E+00 0.38234707E+04</pdfrwt>
<totfact> 0.20981088E-01</totfact>
</mgrwt>
</event>
<event>
 6    1  0.8968082E-007  0.3302211E+04  0.7818608E-02  0.8162333E-01
          2   -1    0    0  501    0  0.00000000000E+00  0.00000000000E+00  0.25222244999E+04  0.25222244999E+04  0.00000000000E+00 0. -1.
         -2   -1    0    0    0  501 -0.00000000000E+00 -0.00000000000E+00 -0.10808512070E+04  0.10808512070E+04  0.00000000000E+00 0.  1.
         23    2    1    2    0    0  0.15343333766E+04  0.33240140435E+03  0.12758663889E+04  0.20244490445E+04  0.76741690424E+02 0.  0.
         11    1    3    3    0    0  0.70905263727E+03  0.11509590061E+03  0.57451766130E+03  0.91982240237E+03  0.00000000000E+00 0. -1.
        -11    1    3    3    0    0  0.82528073931E+03  0.21730550373E+03  0.70134872765E+03  0.11046266421E+04  0.00000000000E+00 0.  1.
         22    1    1    2    0    0 -0.15343333766E+04 -0.33240140435E+03  0.16550690399E+03  0.15786266624E+04  0.00000000000E+00 0. -1.
<mgrwt>
<rscale>  0 0.33022110E+04</rscale>
<asrwt>0</asrwt>
<pdfrwt beam="1">  1        2 0.38803454E+00 0.33022110E+04</pdfrwt>
<pdfrwt beam="2">  1       -2 0.16628480E+00 0.33022110E+04</pdfrwt>
<totfact> 0.63933704E-01</totfact>
</mgrwt>
</event>
<event>
 6    1  0.8968082E-007  0.1615923E+04  0.7818608E-02  0.8810825E-01
          1   -1    0    0  501    0  0.00000000000E+00  0.00000000000E+00  0.49199122582E+03  0.49199122582E+03  0.00000000000E+00 0. -1.
         -1   -1    0    0    0  501 -0.00000000000E+00 -0.00000000000E+00 -0.13268559334E+04  0.13268559334E+04  0.00000000000E+00 0.  1.
         23    2    1    2    0    0 -0.54675839981E+03 -0.20277000140E+03 -0.10441725193E+04  0.11992745797E+04  0.88897953638E+02 0.  0.
         11    1    3    3    0    0 -0.21024979536E+03 -0.11264078117E+03 -0.36609189953E+03  0.43693958499E+03  0.00000000000E+00 0. -1.
        -11    1    3    3    0    0 -0.33650860445E+03 -0.90129220221E+02 -0.67808061976E+03  0.76233499467E+03  0.00000000000E+00 0.  1.
         22    1    1    2    0    0  0.54675839981E+03  0.20277000140E+03  0.20930781175E+03  0.61957257952E+03  0.00000000000E+00 0. -1.
<mgrwt>
<rscale>  0 0.16159226E+04</rscale>
<asrwt>0</asrwt>
<pdfrwt beam="1">  1        1 0.75690957E-01 0.16159226E+04</pdfrwt>
<pdfrwt beam="2">  1       -1 0.20413168E+00 0.16159226E+04</pdfrwt>
<totfact> 0.61214067E+00</totfact>
</mgrwt>
</event>
<event>
 6    1  0.8968082E-007  0.1915571E+04  0.7818608E-02  0.8647144E-01
          1   -1    0    0  501    0  0.00000000000E+00  0.00000000000E+00  0.19218473288E+04  0.19218473288E+04  0.00000000000E+00 0. -1.
         -1   -1    0    0    0  501 -0.00000000000E+00 -0.00000000000E+00 -0.47732878654E+03  0.47732878654E+03  0.00000000000E+00 0.  1.
         23    2    1    2    0    0  0.46722884222E+03 -0.75606694473E+03  0.28363229018E+03  0.93712382278E+03  0.88395516203E+02 0.  0.
         13    1    3    3    0    0  0.81063036931E+02 -0.18388488657E+03  0.89900712052E+02  0.22015223254E+03  0.00000000000E+00 0. -1.
        -13    1    3    3    0    0  0.38616580529E+03 -0.57218205816E+03  0.19373157813E+03  0.71697159024E+03  0.00000000000E+00 0.  1.
         22    1    1    2    0    0 -0.46722884222E+03  0.75606694473E+03  0.11608862521E+04  0.14620522926E+04  0.00000000000E+00 0. -1.
<mgrwt>
<rscale>  0 0.19155710E+04</rscale>
<asrwt>0</asrwt>
<pdfrwt beam="1">  1        1 0.29566881E+00 0.19155710E+04</pdfrwt>
<pdfrwt beam="2">  1       -1 0.73435199E-01 0.19155710E+04</pdfrwt>
<totfact> 0.58780818E+00</totfact>
</mgrwt>
</event>
<event>
 6    1  0.8968082E-007  0.2191396E+04  0.7818608E-02  0.8522018E-01
          1   -1    0    0  501    0  0.00000000000E+00  0.00000000000E+00  0.23928826635E+04  0.23928826635E+04  0.00000000000E+00 0. -1.
         -1   -1    0    0    0  501 -0.00000000000E+00 -0.00000000000E+00 -0.50171879248E+03  0.50171879248E+03  0.00000000000E+00 0.  1.
         23    2    1    2    0    0  0.49463939455E+03 -0.77679483487E+03  0.17267588480E+04  0.19591297260E+04  0.91732317026E+02 0.  0.
         13    1    3    3    0    0  0.37497541674E+03 -0.60896427622E+03  0.12583186672E+04  0.14473458195E+04  0.00000000000E+00 0.  1.
        -13    1    3    3    0    0  0.11966397781E+03 -0.16783055866E+03  0.46844018073E+03  0.51178390648E+03  0.00000000000E+00 0. -1.
         22    1    1    2    0    0 -0.49463939455E+03  0.77679483487E+03  0.16440502309E+03  0.93547173006E+03  0.00000000000E+00 0.  1.
<mgrwt>
<rscale>  0 0.21913961E+04</rscale>
<asrwt>0</asrwt>
<pdfrwt beam="1">  1        1 0.36813579E+00 0.21913961E+04</pdfrwt>
<pdfrwt beam="2">  1       -1 0.77187508E-01 0.21913961E+04</pdfrwt>
<totfact> 0.24671626E+00</totfact>
</mgrwt>
</event>
<event>
 6    1  0.8968082E-007  0.1521502E+04  0.7818608E-02  0.8870279E-01
          2   -1    0    0  501    0  0.00000000000E+00  0.00000000000E+00  0.41448597588E+03  0.41448597588E+03  0.00000000000E+00 0. -1.
         -2   -1    0    0    0  501 -0.00000000000E+00 -0.00000000000E+00 -0.13962886327E+04  0.13962886327E+04  0.00000000000E+00 0.  1.
         23    2    1    2    0    0  0.21297493820E+03  0.44053351839E+03  0.19605210023E+03  0.53532569395E+03  0.93322384601E+02 0.  0.
         11    1    3    3    0    0  0.16280074686E+03  0.36546506195E+03  0.12119814001E+03  0.41804040932E+03  0.00000000000E+00 0. -1.
        -11    1    3    3    0    0  0.50174191345E+02  0.75068456445E+02  0.74853960220E+02  0.11728528463E+03  0.00000000000E+00 0.  1.
         22    1    1    2    0    0 -0.21297493820E+03 -0.44053351839E+03 -0.11778547570E+04  0.12754489146E+04  0.00000000000E+00 0.  1.
<mgrwt>
<rscale>  0 0.15215020E+04</rscale>
<asrwt>0</asrwt>
<pdfrwt beam="1">  1        2 0.63767072E-01 0.15215020E+04</pdfrwt>
<pdfrwt beam="2">  1       -2 0.21481364E+00 0.15215020E+04</pdfrwt>
<totfact> 0.78514141E+00</totfact>
</mgrwt>
</event>
<event>
 6    1  0.8968082E-007  0.2877743E+04  0.7818608E-02  0.8279530E-01
          2   -1    0    0  501    0  0.00000000000E+00  0.00000000000E+00  0.10713056189E+04  0.10713056189E+04  0.00000000000E+00 0. -1.
         -2   -1    0    0    0  501 -0.00000000000E+00 -0.00000000000E+00 -0.19325501337E+04  0.19325501337E+04  0.00000000000E+00 0.  1.
         23    2    1    2    0    0 -0.91612351533E+03  0.10662127193E+04 -0.74463003670E+03  0.15932917538E+04  0.89514597630E+02 0.  0.
         13    1    3    3    0    0 -0.24839765897E+03  0.34269460491E+03 -0.19967277202E+03  0.46798526163E+03  0.00000000000E+00 0. -1.
        -13    1    3    3    0    0 -0.66772585636E+03  0.72351811438E+03 -0.54495726468E+03  0.11253064922E+04  0.00000000000E+00 0.  1.
         22    1    1    2    0    0  0.91612351533E+03 -0.10662127193E+04 -0.11661447813E+03  0.14105639988E+04  0.00000000000E+00 0. -1.
<mgrwt>
<rscale>  0 0.28777434E+04</rscale>
<asrwt>0</asrwt>
<pdfrwt beam="1">  1        2 0.16481625E+00 0.28777434E+04</pdfrwt>
<pdfrwt beam="2">  1       -2 0.29731540E+00 0.28777434E+04</pdfrwt>
<totfact> 0.64782838E-01</totfact>
</mgrwt>
</event>
<event>
 6    1  0.8968082E-007  0.2993662E+04  0.7818608E-02  0.8245543E-01
          1   -1    0    0  501    0  0.00000000000E+00  0.00000000000E+00  0.13412928755E+04  0.13412928755E+04  0.00000000000E+00 0. -1.
         -1   -1    0    0    0  501 -0.00000000000E+00 -0.00000000000E+00 -0.16704055988E+04  0.16704055988E+04  0.00000000000E+00 0.  1.
         23    2    1    2    0    0  0.93937821739E+03 -0.36575248833E+03 -0.12761071766E+04  0.16285843023E+04  0.87355513153E+02 0.  0.
         13    1    3    3    0    0  0.26802543071E+03 -0.14673545916E+03 -0.37442495667E+03  0.48328353444E+03  0.00000000000E+00 0. -1.
        -13    1    3    3    0    0  0.67135278667E+03 -0.21901702917E+03 -0.90168221993E+03  0.11453007679E+04  0.00000000000E+00 0.  1.
         22    1    1    2    0    0 -0.93937821739E+03  0.36575248833E+03  0.94699445335E+03  0.13831141720E+04  0.00000000000E+00 0. -1.
<mgrwt>
<rscale>  0 0.29936621E+04</rscale>
<asrwt>0</asrwt>
<pdfrwt beam="1">  1        1 0.20635275E+00 0.29936621E+04</pdfrwt>
<pdfrwt beam="2">  1       -1 0.25698548E+00 0.29936621E+04</pdfrwt>
<totfact> 0.45181488E-01</totfact>
</mgrwt>
</event>
<event>
 6    1  0.8968082E-007  0.1075951E+04  0.7818608E-02  0.9228954E-01
          1   -1    0    0  501    0  0.00000000000E+00  0.00000000000E+00  0.90360102895E+03  0.90360102895E+03  0.00000000000E+00 0. -1.
         -1   -1    0    0    0  501 -0.00000000000E+00 -0.00000000000E+00 -0.32029370688E+03  0.32029370688E+03  0.00000000000E+00 0.  1.
         23    2    1    2    0    0 -0.46461628537E+03  0.11565985434E+03  0.56299954334E+03  0.74466837970E+03  0.91197671992E+02 0.  0.
         11    1    3    3    0    0 -0.30557749691E+03  0.58860869028E+02  0.30092361946E+03  0.43289402083E+03  0.00000000000E+00 0.  1.
        -11    1    3    3    0    0 -0.15903878846E+03  0.56798985311E+02  0.26207592389E+03  0.31177435887E+03  0.00000000000E+00 0. -1.
         22    1    1    2    0    0  0.46461628537E+03 -0.11565985434E+03  0.20307778717E+02  0.47922635613E+03  0.00000000000E+00 0.  1.
<mgrwt>
<rscale>  0 0.10759512E+04</rscale>
<asrwt>0</asrwt>
<pdfrwt beam="1">  1        1 0.13901554E+00 0.10759512E+04</pdfrwt>
<pdfrwt beam="2">  1       -1 0.49275955E-01 0.10759512E+04</pdfrwt>
<totfact> 0.74410562E+01</totfact>
</mgrwt>
</event>
<event>
 6    1  0.8968082E-007  0.1218305E+04  0.7818608E-02  0.9096984E-01
         -1   -1    0    0    0  501 -0.00000000000E+00  0.00000000000E+00  0.88647128616E+03  0.88647128616E+03  0.00000000000E+00 0.  1.
          1   -1    0    0  501    0  0.00000000000E+00 -0.00000000000E+00 -0.41858849608E+03  0.41858849608E+03  0.00000000000E+00 0. -1.
         23    2    1    2    0    0  0.27809508313E+03  0.67909987684E+02 -0.33786624059E+03  0.44996906066E+03  0.79811761870E+02 0.  0.
         11    1    3    3    0    0  0.13032095563E+03  0.69722298268E+02 -0.19225195945E+03  0.24249859023E+03  0.00000000000E+00 0.  1.
        -11    1    3    3    0    0  0.14777412750E+03 -0.18123105840E+01 -0.14561428115E+03  0.20747047043E+03  0.00000000000E+00 0. -1.
         22    1    1    2    0    0 -0.27809508313E+03 -0.67909987684E+02  0.80574903067E+03  0.85509072157E+03  0.00000000000E+00 0.  1.
<mgrwt>
<rscale>  0 0.12183049E+04</rscale>
<asrwt>0</asrwt>
<pdfrwt beam="1">  1        1 0.64398230E-01 0.12183049E+04</pdfrwt>
<pdfrwt beam="2">  1       -1 0.13638020E+00 0.12183049E+04</pdfrwt>
<totfact> 0.25046458E+01</totfact>
</mgrwt>
</event>
<event>
 6    1  0.8968082E-007  0.3517259E+04  0.7818608E-02  0.8109712E-01
         -2   -1    0    0    0  501 -0.00000000000E+00  0.00000000000E+00  0.31172292358E+04  0.31172292358E+04  0.00000000000E+00 0.  1.
          2   -1    0    0  501    0  0.00000000000E+00 -0.00000000000E+00 -0.99215594350E+03  0.99215594350E+03  0.00000000000E+00 0. -1.
         23    2    1    2    0    0  0.69522458774E+03 -0.39235761115E+03 -0.76580919225E+03  0.11103047766E+04  0.95032918372E+02 0.  0.
         11    1    3    3    0    0  0.49775718595E+03 -0.23549220596E+03 -0.55172610335E+03  0.77950015289E+03  0.00000000000E+00 0. -1.
        -11    1    3    3    0    0  0.19746740179E+03 -0.15686540519E+03 -0.21408308890E+03  0.33080462371E+03  0.00000000000E+00 0.  1.
         22    1    1    2    0    0 -0.69522458774E+03  0.39235761115E+03  0.28908824845E+04  0.29990804027E+04  0.00000000000E+00 0.  1.
<mgrwt>
<rscale>  0 0.35172589E+04</rscale>
<asrwt>0</asrwt>
<pdfrwt beam="1">  1        2 0.15263938E+00 0.35172589E+04</pdfrwt>
<pdfrwt beam="2">  1       -2 0.47957372E+00 0.35172589E+04</pdfrwt>
<totfact> 0.46417925E-02</totfact>
</mgrwt>
</event>
<event>
 6    1  0.8968082E-007  0.9271014E+03  0.7818608E-02  0.9392323E-01
         -2   -1    0    0    0  501 -0.00000000000E+00  0.00000000000E+00  0.14697338053E+03  0.14697338053E+03  0.00000000000E+00 0.  1.
          2   -1    0    0  501    0  0.00000000000E+00 -0.00000000000E+00 -0.14620282227E+04  0.14620282227E+04  0.00000000000E+00 0. -1.
         23    2    1    2    0    0 -0.14296489298E+03  0.25384326076E+03 -0.48406908588E+02  0.30928149901E+03  0.91850177844E+02 0.  0.
         13    1    3    3    0    0 -0.39384254883E+02  0.15661845517E+03 -0.84873326840E+01  0.16171733008E+03  0.00000000000E+00 0. -1.
        -13    1    3    3    0    0 -0.10358063810E+03  0.97224805599E+02 -0.39919575904E+02  0.14756416893E+03  0.00000000000E+00 0.  1.
         22    1    1    2    0    0  0.14296489298E+03 -0.25384326076E+03 -0.12666479336E+04  0.12997201042E+04  0.00000000000E+00 0. -1.
<mgrwt>
<rscale>  0 0.92710135E+03</rscale>
<asrwt>0</asrwt>
<pdfrwt beam="1">  1        2 0.22492743E+00 0.92710135E+03</pdfrwt>
<pdfrwt beam="2">  1       -2 0.22611288E-01 0.92710135E+03</pdfrwt>
<totfact> 0.22955953E+02</totfact>
</mgrwt>
</event>
<event>
 6    1  0.8968082E-007  0.3800842E+04  0.7818608E-02  0.8045974E-01
         -2   -1    0    0    0  501 -0.00000000000E+00  0.00000000000E+00  0.10506494218E+04  0.10506494218E+04  0.00000000000E+00 0.  1.
          2   -1    0    0  501    0  0.00000000000E+00 -0.00000000000E+00 -0.34374929190E+04  0.34374929190E+04  0.00000000000E+00 0. -1.
         23    2    1    2    0    0 -0.78127172155E+03 -0.45731570312E+02 -0.32376101327E+04  0.33321662391E+04  0.93464399847E+02 0.  0.
         13    1    3    3    0    0 -0.51062724067E+03 -0.26875808198E+02 -0.19205869429E+04  0.19874900486E+04  0.00000000000E+00 0. -1.
        -13    1    3    3    0    0 -0.27064448088E+03 -0.18855762114E+02 -0.13170231899E+04  0.13446761906E+04  0.00000000000E+00 0.  1.
         22    1    1    2    0    0  0.78127172155E+03  0.45731570312E+02  0.85076663552E+03  0.11559761016E+04  0.00000000000E+00 0.  1.
<mgrwt>
<rscale>  0 0.38008420E+04</rscale>
<asrwt>0</asrwt>
<pdfrwt beam="1">  1        2 0.52884506E+00 0.38008420E+04</pdfrwt>
<pdfrwt beam="2">  1       -2 0.16163837E+00 0.38008420E+04</pdfrwt>
<totfact> 0.17620077E-01</totfact>
</mgrwt>
</event>
<event>
 6    1  0.8968082E-007  0.1752245E+04  0.7818608E-02  0.8732115E-01
         -2   -1    0    0    0  501 -0.00000000000E+00  0.00000000000E+00  0.12123244731E+04  0.12123244731E+04  0.00000000000E+00 0.  1.
          2   -1    0    0  501    0  0.00000000000E+00 -0.00000000000E+00 -0.63315626555E+03  0.63315626555E+03  0.00000000000E+00 0. -1.
         23    2    1    2    0    0 -0.60088794424E+03 -0.62302950183E+03  0.41051180280E+03  0.96362073589E+03  0.10398509852E+03 0.  0.
         13    1    3    3    0    0 -0.21956921698E+03 -0.17924520514E+03  0.17354191213E+03  0.33234963499E+03  0.00000000000E+00 0.  1.
        -13    1    3    3    0    0 -0.38131872725E+03 -0.44378429669E+03  0.23696989067E+03  0.63127110090E+03  0.00000000000E+00 0. -1.
         22    1    1    2    0    0  0.60088794424E+03  0.62302950183E+03  0.16865640480E+03  0.88186000281E+03  0.00000000000E+00 0. -1.
<mgrwt>
<rscale>  0 0.17522452E+04</rscale>
<asrwt>0</asrwt>
<pdfrwt beam="1">  1        2 0.97408656E-01 0.17522452E+04</pdfrwt>
<pdfrwt beam="2">  1       -2 0.18651146E+00 0.17522452E+04</pdfrwt>
<totfact> 0.71959017E+00</totfact>
</mgrwt>
</event>
<event>
 6    1  0.8968082E-007  0.3854267E+04  0.7818608E-02  0.8034609E-01
          2   -1    0    0  501    0  0.00000000000E+00  0.00000000000E+00  0.21439534508E+04  0.21439534508E+04  0.00000000000E+00 0. -1.
         -2   -1    0    0    0  501 -0.00000000000E+00 -0.00000000000E+00 -0.17322405622E+04  0.17322405622E+04  0.00000000000E+00 0.  1.
         23    2    1    2    0    0  0.11392280733E+04  0.14000349706E+04 -0.47050834785E+03  0.18671512480E+04  0.83289588428E+02 0.  0.
         13    1    3    3    0    0  0.10382387817E+04  0.12737992811E+04 -0.40336742544E+03  0.16921021412E+04  0.00000000000E+00 0.  1.
        -13    1    3    3    0    0  0.10098929162E+03  0.12623568943E+03 -0.67140922404E+02  0.17504910674E+03  0.00000000000E+00 0. -1.
         22    1    1    2    0    0 -0.11392280733E+04 -0.14000349706E+04  0.88222123645E+03  0.20090427651E+04  0.00000000000E+00 0. -1.
<mgrwt>
<rscale>  0 0.38542668E+04</rscale>
<asrwt>0</asrwt>
<pdfrwt beam="1">  1        2 0.32983899E+00 0.38542668E+04</pdfrwt>
<pdfrwt beam="2">  1       -2 0.26649855E+00 0.38542668E+04</pdfrwt>
<totfact> 0.22567291E-01</totfact>
</mgrwt>
</event>
<event>
 6    1  0.8968082E-007  0.4947629E+04  0.7818608E-02  0.7836637E-01
          2   -1    0    0  501    0  0.00000000000E+00  0.00000000000E+00  0.34238023826E+04  0.34238023826E+04  0.00000000000E+00 0. -1.
         -2   -1    0    0    0  501 -0.00000000000E+00 -0.00000000000E+00 -0.17874159124E+04  0.17874159124E+04  0.00000000000E+00 0.  1.
         23    2    1    2    0    0  0.39647109910E+03  0.20683730866E+04 -0.54644878023E+03  0.21780472995E+04  0.99635395541E+02 0.  0.
         13    1    3    3    0    0  0.33702417311E+03  0.18161772183E+04 -0.44690260436E+03  0.19004754456E+04  0.00000000000E+00 0. -1.
        -13    1    3    3    0    0  0.59446925988E+02  0.25219586821E+03 -0.99546175863E+02  0.27757185390E+03  0.00000000000E+00 0.  1.
         22    1    1    2    0    0 -0.39647109910E+03 -0.20683730866E+04  0.21828352504E+04  0.30331709955E+04  0.00000000000E+00 0. -1.
<mgrwt>
<rscale>  0 0.49476293E+04</rscale>
<asrwt>0</asrwt>
<pdfrwt beam="1">  1        2 0.52673883E+00 0.49476293E+04</pdfrwt>
<pdfrwt beam="2">  1       -2 0.27498706E+00 0.49476293E+04</pdfrwt>
<totfact> 0.30281219E-02</totfact>
</mgrwt>
</event>
<event>
 6    1  0.8968082E-007  0.3169115E+04  0.7818608E-02  0.8197022E-01
         -2   -1    0    0    0  501 -0.00000000000E+00  0.00000000000E+00  0.13051682161E+04  0.13051682161E+04  0.00000000000E+00 0.  1.
          2   -1    0    0  501    0  0.00000000000E+00 -0.00000000000E+00 -0.19237537147E+04  0.19237537147E+04  0.00000000000E+00 0. -1.
         23    2    1    2    0    0 -0.54368599677E+03 -0.15814114688E+03 -0.18159148637E+04  0.19044595139E+04  0.93894421112E+02 0.  0.
         11    1    3    3    0    0 -0.10286971530E+03 -0.66021750503E+00 -0.40789944749E+03  0.42067157436E+03  0.00000000000E+00 0. -1.
        -11    1    3    3    0    0 -0.44081628146E+03 -0.15748092937E+03 -0.14080154162E+04  0.14837879395E+04  0.00000000000E+00 0.  1.
         22    1    1    2    0    0  0.54368599677E+03  0.15814114688E+03  0.11973293651E+04  0.13244624170E+04  0.00000000000E+00 0.  1.
<mgrwt>
<rscale>  0 0.31691148E+04</rscale>
<asrwt>0</asrwt>
<pdfrwt beam="1">  1        2 0.29596211E+00 0.31691148E+04</pdfrwt>
<pdfrwt beam="2">  1       -2 0.20079511E+00 0.31691148E+04</pdfrwt>
<totfact> 0.81726913E-01</totfact>
</mgrwt>
</event>
<event>
 6    1  0.8968082E-007  0.3373971E+04  0.7818608E-02  0.8144324E-01
          2   -1    0    0  501    0  0.00000000000E+00  0.00000000000E+00  0.26097058268E+04  0.26097058268E+04  0.00000000000E+00 0. -1.
         -2   -1    0    0    0  501 -0.00000000000E+00 -0.00000000000E+00 -0.10905139264E+04  0.10905139264E+04  0.00000000000E+00 0.  1.
         23    2    1    2    0    0  0.12178447475E+04 -0.43320842149E+03  0.19468765297E+04  0.23387023983E+04  0.91571395044E+02 0.  0.
         13    1    3    3    0    0  0.30468528813E+03 -0.76790324785E+02  0.42744904838E+03  0.53051160943E+03  0.00000000000E+00 0.  1.
        -13    1    3    3    0    0  0.91315945933E+03 -0.35641809670E+03  0.15194274814E+04  0.18081907889E+04  0.00000000000E+00 0. -1.
         22    1    1    2    0    0 -0.12178447475E+04  0.43320842149E+03 -0.42768462935E+03  0.13615173548E+04  0.00000000000E+00 0.  1.
<mgrwt>
<rscale>  0 0.33739713E+04</rscale>
<asrwt>0</asrwt>
<pdfrwt beam="1">  1        2 0.40149320E+00 0.33739713E+04</pdfrwt>
<pdfrwt beam="2">  1       -2 0.16777137E+00 0.33739713E+04</pdfrwt>
<totfact> 0.55116906E-01</totfact>
</mgrwt>
</event>
<event>
 6    1  0.8968082E-007  0.2969272E+04  0.7818608E-02  0.8252560E-01
          2   -1    0    0  501    0  0.00000000000E+00  0.00000000000E+00  0.21910120385E+04  0.21910120385E+04  0.00000000000E+00 0. -1.
         -2   -1    0    0    0  501 -0.00000000000E+00 -0.00000000000E+00 -0.10059938557E+04  0.10059938557E+04  0.00000000000E+00 0.  1.
         23    2    1    2    0    0  0.91294316227E+03 -0.84410220217E+03  0.14638694821E+04  0.19227485449E+04  0.89857449791E+02 0.  0.
         13    1    3    3    0    0  0.46922537123E+03 -0.42300968296E+03  0.81185794132E+03  0.10286996441E+04  0.00000000000E+00 0. -1.
        -13    1    3    3    0    0  0.44371779104E+03 -0.42109251921E+03  0.65201154073E+03  0.89404890082E+03  0.00000000000E+00 0.  1.
         22    1    1    2    0    0 -0.91294316227E+03  0.84410220217E+03 -0.27885129924E+03  0.12742573493E+04  0.00000000000E+00 0.  1.
<mgrwt>
<rscale>  0 0.29692724E+04</rscale>
<asrwt>0</asrwt>
<pdfrwt beam="1">  1        2 0.33707877E+00 0.29692724E+04</pdfrwt>
<pdfrwt beam="2">  1       -2 0.15476829E+00 0.29692724E+04</pdfrwt>
<totfact> 0.12357267E+00</totfact>
</mgrwt>
</event>
<event>
 6    1  0.8968082E-007  0.1021805E+04  0.7818608E-02  0.9284948E-01
         -1   -1    0    0    0  501 -0.00000000000E+00  0.00000000000E+00  0.95658508697E+03  0.95658508697E+03  0.00000000000E+00 0.  1.
          1   -1    0    0  501    0  0.00000000000E+00 -0.00000000000E+00 -0.27286768828E+03  0.27286768828E+03  0.00000000000E+00 0. -1.
         23    2    1    2    0    0 -0.11806159010E+03  0.23631714322E+03  0.86530391768E+03  0.90889389592E+03  0.86907495949E+02 0.  0.
         13    1    3    3    0    0 -0.58957790669E+02  0.64580877831E+02  0.39895924713E+03  0.40843015527E+03  0.00000000000E+00 0. -1.
        -13    1    3    3    0    0 -0.59103799431E+02  0.17173626539E+03  0.46634467055E+03  0.50046374065E+03  0.00000000000E+00 0.  1.
         22    1    1    2    0    0  0.11806159010E+03 -0.23631714322E+03 -0.18158651899E+03  0.32055887932E+03  0.00000000000E+00 0. -1.
<mgrwt>
<rscale>  0 0.10218046E+04</rscale>
<asrwt>0</asrwt>
<pdfrwt beam="1">  1        1 0.41979645E-01 0.10218046E+04</pdfrwt>
<pdfrwt beam="2">  1       -1 0.14716693E+00 0.10218046E+04</pdfrwt>
<totfact> 0.36497511E+01</totfact>
</mgrwt>
</event>
<event>
 6    1  0.8968082E-007  0.2282944E+04  0.7818608E-02  0.8484677E-01
          2   -1    0    0  501    0  0.00000000000E+00  0.00000000000E+00  0.14141353010E+04  0.14141353010E+04  0.00000000000E+00 0. -1.
         -2   -1    0    0    0  501 -0.00000000000E+00 -0.00000000000E+00 -0.92138141807E+03  0.92138141807E+03  0.00000000000E+00 0.  1.
         23    2    1    2    0    0 -0.26392207920E+03  0.83382765967E+03  0.99406569856E+03  0.13274309258E+04  0.94777739562E+02 0.  0.
         13    1    3    3    0    0 -0.15405255299E+03  0.38213875947E+03  0.41410312703E+03  0.58416061180E+03  0.00000000000E+00 0.  1.
        -13    1    3    3    0    0 -0.10986952622E+03  0.45168890020E+03  0.57996257153E+03  0.74327031404E+03  0.00000000000E+00 0. -1.
         22    1    1    2    0    0  0.26392207920E+03 -0.83382765967E+03 -0.50131181567E+03  0.10080857932E+04  0.00000000000E+00 0.  1.
<mgrwt>
<rscale>  0 0.22829437E+04</rscale>
<asrwt>0</asrwt>
<pdfrwt beam="1">  1        2 0.21755928E+00 0.22829437E+04</pdfrwt>
<pdfrwt beam="2">  1       -2 0.14175099E+00 0.22829437E+04</pdfrwt>
<totfact> 0.44845624E+00</totfact>
</mgrwt>
</event>
<event>
 6    1  0.8968082E-007  0.2847464E+04  0.7818608E-02  0.8288682E-01
          2   -1    0    0  501    0  0.00000000000E+00  0.00000000000E+00  0.10828312280E+04  0.10828312280E+04  0.00000000000E+00 0. -1.
         -2   -1    0    0    0  501 -0.00000000000E+00 -0.00000000000E+00 -0.18719560559E+04  0.18719560559E+04  0.00000000000E+00 0.  1.
         23    2    1    2    0    0 -0.97744266659E+03 -0.96037036954E+03  0.31542693749E+00  0.13733571308E+04  0.91674947731E+02 0.  0.
         11    1    3    3    0    0 -0.33605821791E+03 -0.37157375061E+03 -0.32703703393E+02  0.50206743589E+03  0.00000000000E+00 0. -1.
        -11    1    3    3    0    0 -0.64138444868E+03 -0.58879661894E+03  0.33019130330E+02  0.87128969490E+03  0.00000000000E+00 0.  1.
         22    1    1    2    0    0  0.97744266659E+03  0.96037036954E+03 -0.78944025481E+03  0.15814301531E+04  0.00000000000E+00 0. -1.
<mgrwt>
<rscale>  0 0.28474638E+04</rscale>
<asrwt>0</asrwt>
<pdfrwt beam="1">  1        2 0.16658942E+00 0.28474638E+04</pdfrwt>
<pdfrwt beam="2">  1       -2 0.28799324E+00 0.28474638E+04</pdfrwt>
<totfact> 0.72835311E-01</totfact>
</mgrwt>
</event>
<event>
 6    1  0.8968082E-007  0.2047237E+04  0.7818608E-02  0.8584849E-01
         -2   -1    0    0    0  501 -0.00000000000E+00  0.00000000000E+00  0.40010083339E+03  0.40010083339E+03  0.00000000000E+00 0.  1.
          2   -1    0    0  501    0  0.00000000000E+00 -0.00000000000E+00 -0.26188259749E+04  0.26188259749E+04  0.00000000000E+00 0. -1.
         23    2    1    2    0    0 -0.15972101138E+03 -0.90790708308E+03 -0.46227569586E+03  0.10352633469E+04  0.90913725404E+02 0.  0.
         13    1    3    3    0    0 -0.10049956612E+03 -0.65204189077E+03 -0.37294821772E+03  0.75785827383E+03  0.00000000000E+00 0. -1.
        -13    1    3    3    0    0 -0.59221445259E+02 -0.25586519231E+03 -0.89327478137E+02  0.27740507307E+03  0.00000000000E+00 0.  1.
         22    1    1    2    0    0  0.15972101138E+03  0.90790708308E+03 -0.17564494457E+04  0.19836634614E+04  0.00000000000E+00 0.  1.
<mgrwt>
<rscale>  0 0.20472366E+04</rscale>
<asrwt>0</asrwt>
<pdfrwt beam="1">  1        2 0.40289630E+00 0.20472366E+04</pdfrwt>
<pdfrwt beam="2">  1       -2 0.61553975E-01 0.20472366E+04</pdfrwt>
<totfact> 0.67401512E+00</totfact>
</mgrwt>
</event>
<event>
 6    1  0.8968082E-007  0.1825197E+04  0.7818608E-02  0.8693013E-01
         -2   -1    0    0    0  501 -0.00000000000E+00  0.00000000000E+00  0.51558105663E+03  0.51558105663E+03  0.00000000000E+00 0.  1.
          2   -1    0    0  501    0  0.00000000000E+00 -0.00000000000E+00 -0.16153355874E+04  0.16153355874E+04  0.00000000000E+00 0. -1.
         23    2    1    2    0    0  0.73573945357E+03 -0.42671500744E+03 -0.17220315243E+03  0.87244542840E+03  0.90049201657E+02 0.  0.
         11    1    3    3    0    0  0.27514126746E+03 -0.16716542363E+03 -0.21341213889E+02  0.32264910247E+03  0.00000000000E+00 0.  1.
        -11    1    3    3    0    0  0.46059818611E+03 -0.25954958381E+03 -0.15086193854E+03  0.54979632593E+03  0.00000000000E+00 0. -1.
         22    1    1    2    0    0 -0.73573945357E+03  0.42671500744E+03 -0.92755137835E+03  0.12584712156E+04  0.00000000000E+00 0. -1.
<mgrwt>
<rscale>  0 0.18251974E+04</rscale>
<asrwt>0</asrwt>
<pdfrwt beam="1">  1        2 0.24851316E+00 0.18251974E+04</pdfrwt>
<pdfrwt beam="2">  1       -2 0.79320163E-01 0.18251974E+04</pdfrwt>
<totfact> 0.14514798E+01</totfact>
</mgrwt>
</event>
<event>
 6    1  0.8968082E-007  0.3507641E+04  0.7818608E-02  0.8111982E-01
          1   -1    0    0  501    0  0.00000000000E+00  0.00000000000E+00  0.16636616884E+04  0.16636616884E+04  0.00000000000E+00 0. -1.
         -1   -1    0    0    0  501 -0.00000000000E+00 -0.00000000000E+00 -0.18488652493E+04  0.18488652493E+04  0.00000000000E+00 0.  1.
         23    2    1    2    0    0 -0.52986797896E+03 -0.16535619284E+04 -0.33308720093E+03  0.17698575207E+04  0.80133850487E+02 0.  0.
         11    1    3    3    0    0 -0.12570023933E+03 -0.30176759695E+03 -0.47700205931E+02  0.33036274364E+03  0.00000000000E+00 0.  1.
        -11    1    3    3    0    0 -0.40416773963E+03 -0.13517943314E+04 -0.28538699500E+03  0.14394947770E+04  0.00000000000E+00 0. -1.
         22    1    1    2    0    0  0.52986797896E+03  0.16535619284E+04  0.14788364009E+03  0.17426694170E+04  0.00000000000E+00 0. -1.
<mgrwt>
<rscale>  0 0.35076410E+04</rscale>
<asrwt>0</asrwt>
<pdfrwt beam="1">  1        1 0.25594795E+00 0.35076410E+04</pdfrwt>
<pdfrwt beam="2">  1       -1 0.28444081E+00 0.35076410E+04</pdfrwt>
<totfact> 0.17138483E-01</totfact>
</mgrwt>
</event>
<event>
 6    1  0.8968082E-007  0.8552948E+03  0.7818608E-02  0.9483258E-01
         -1   -1    0    0    0  501 -0.00000000000E+00  0.00000000000E+00  0.40644720445E+03  0.40644720445E+03  0.00000000000E+00 0.  1.
          1   -1    0    0  501    0  0.00000000000E+00 -0.00000000000E+00 -0.44995342263E+03  0.44995342263E+03  0.00000000000E+00 0. -1.
         23    2    1    2    0    0  0.15650546250E+03 -0.19504895313E+03 -0.36323066346E+03  0.45049204769E+03  0.92024541545E+02 0.  0.
         13    1    3    3    0    0  0.42614475317E+02 -0.63744923140E+02 -0.47842468558E+02  0.90378706178E+02  0.00000000000E+00 0. -1.
        -13    1    3    3    0    0  0.11389098718E+03 -0.13130402999E+03 -0.31538819490E+03  0.36011334151E+03  0.00000000000E+00 0.  1.
         22    1    1    2    0    0 -0.15650546250E+03  0.19504895313E+03  0.31972444528E+03  0.40590857939E+03  0.00000000000E+00 0.  1.
<mgrwt>
<rscale>  0 0.85529483E+03</rscale>
<asrwt>0</asrwt>
<pdfrwt beam="1">  1        1 0.69223604E-01 0.85529483E+03</pdfrwt>
<pdfrwt beam="2">  1       -1 0.62530339E-01 0.85529483E+03</pdfrwt>
<totfact> 0.13419480E+02</totfact>
</mgrwt>
</event>
<event>
 6    1  0.8968082E-007  0.3149214E+04  0.7818608E-02  0.8202360E-01
          1   -1    0    0  501    0  0.00000000000E+00  0.00000000000E+00  0.20856197220E+04  0.20856197220E+04  0.00000000000E+00 0. -1.
         -1   -1    0    0    0  501 -0.00000000000E+00 -0.00000000000E+00 -0.11888012707E+04  0.11888012707E+04  0.00000000000E+00 0.  1.
         23    2    1    2    0    0 -0.82220550274E+03  0.97310616364E+03 -0.51104609381E+03  0.13757266855E+04  0.92186272807E+02 0.  0.
         13    1    3    3    0    0 -0.32628027086E+03  0.36368794279E+03 -0.24191050534E+03  0.54520494080E+03  0.00000000000E+00 0.  1.
        -13    1    3    3    0    0 -0.49592523188E+03  0.60941822085E+03 -0.26913558847E+03  0.83052174475E+03  0.00000000000E+00 0. -1.
         22    1    1    2    0    0  0.82220550274E+03 -0.97310616364E+03  0.14078645452E+04  0.18986943071E+04  0.00000000000E+00 0. -1.
<mgrwt>
<rscale>  0 0.31492141E+04</rscale>
<asrwt>0</asrwt>
<pdfrwt beam="1">  1        1 0.32086457E+00 0.31492141E+04</pdfrwt>
<pdfrwt beam="2">  1       -1 0.18289250E+00 0.31492141E+04</pdfrwt>
<totfact> 0.43455392E-01</totfact>
</mgrwt>
</event>
<event>
 6    1  0.8968082E-007  0.1638579E+04  0.7818608E-02  0.8797192E-01
          1   -1    0    0  501    0  0.00000000000E+00  0.00000000000E+00  0.96399935289E+03  0.96399935289E+03  0.00000000000E+00 0. -1.
         -1   -1    0    0    0  501 -0.00000000000E+00 -0.00000000000E+00 -0.69630222139E+03  0.69630222139E+03  0.00000000000E+00 0.  1.
         23    2    1    2    0    0  0.34813317179E+03  0.28801920392E+03  0.82361082807E+03  0.94392750639E+03  0.92263611899E+02 0.  0.
         11    1    3    3    0    0  0.16916733307E+03  0.15324504393E+03  0.32343475905E+03  0.39586825262E+03  0.00000000000E+00 0.  1.
        -11    1    3    3    0    0  0.17896583872E+03  0.13477415999E+03  0.50017606901E+03  0.54805925377E+03  0.00000000000E+00 0. -1.
         22    1    1    2    0    0 -0.34813317179E+03 -0.28801920392E+03 -0.55591369656E+03  0.71637406789E+03  0.00000000000E+00 0.  1.
<mgrwt>
<rscale>  0 0.16385785E+04</rscale>
<asrwt>0</asrwt>
<pdfrwt beam="1">  1        1 0.14830759E+00 0.16385785E+04</pdfrwt>
<pdfrwt beam="2">  1       -1 0.10712342E+00 0.16385785E+04</pdfrwt>
<totfact> 0.12555164E+01</totfact>
</mgrwt>
</event>
<event>
 6    1  0.8968082E-007  0.1740118E+04  0.7818608E-02  0.8738809E-01
         -1   -1    0    0    0  501 -0.00000000000E+00  0.00000000000E+00  0.68727114802E+03  0.68727114802E+03  0.00000000000E+00 0.  1.
          1   -1    0    0  501    0  0.00000000000E+00 -0.00000000000E+00 -0.11014614928E+04  0.11014614928E+04  0.00000000000E+00 0. -1.
         23    2    1    2    0    0  0.62926671051E+03  0.48969985451E+03  0.14462697083E+03  0.81504925661E+03  0.87211177872E+02 0.  0.
         11    1    3    3    0    0  0.49008793449E+03  0.42446623780E+03  0.11308455522E+03  0.65813819764E+03  0.00000000000E+00 0. -1.
        -11    1    3    3    0    0  0.13917877603E+03  0.65233616701E+02  0.31542415609E+02  0.15691105897E+03  0.00000000000E+00 0.  1.
         22    1    1    2    0    0 -0.62926671051E+03 -0.48969985451E+03 -0.55881731560E+03  0.97368338420E+03  0.00000000000E+00 0. -1.
<mgrwt>
<rscale>  0 0.17401180E+04</rscale>
<asrwt>0</asrwt>
<pdfrwt beam="1">  1        1 0.16945561E+00 0.17401180E+04</pdfrwt>
<pdfrwt beam="2">  1       -1 0.10573402E+00 0.17401180E+04</pdfrwt>
<totfact> 0.10048179E+01</totfact>
</mgrwt>
</event>
<event>
 6    1  0.8968082E-007  0.2014400E+04  0.7818608E-02  0.8599918E-01
          2   -1    0    0  501    0  0.00000000000E+00  0.00000000000E+00  0.12372359893E+04  0.12372359893E+04  0.00000000000E+00 0. -1.
         -2   -1    0    0    0  501 -0.00000000000E+00 -0.00000000000E+00 -0.81993388227E+03  0.81993388227E+03  0.00000000000E+00 0.  1.
         23    2    1    2    0    0  0.27783453961E+03  0.65741952394E+03  0.93248281040E+03  0.11769405725E+04  0.79198848156E+02 0.  0.
         13    1    3    3    0    0  0.25023294875E+03  0.53498965566E+03  0.73415292379E+03  0.94223721844E+03  0.00000000000E+00 0. -1.
        -13    1    3    3    0    0  0.27601590860E+02  0.12242986828E+03  0.19832988661E+03  0.23470335402E+03  0.00000000000E+00 0.  1.
         22    1    1    2    0    0 -0.27783453961E+03 -0.65741952394E+03 -0.51518070338E+03  0.88022929910E+03  0.00000000000E+00 0.  1.
<mgrwt>
<rscale>  0 0.20143999E+04</rscale>
<asrwt>0</asrwt>
<pdfrwt beam="1">  1        2 0.19034400E+00 0.20143999E+04</pdfrwt>
<pdfrwt beam="2">  1       -2 0.12614367E+00 0.20143999E+04</pdfrwt>
<totfact> 0.78280938E+00</totfact>
</mgrwt>
</event>
<event>
 6    1  0.9585833E-007  0.2397517E+04  0.7818608E-02  0.8440434E-01
          2   -1    0    0  501    0  0.00000000000E+00  0.00000000000E+00  0.15940909060E+04  0.15940909060E+04  0.00000000000E+00 0. -1.
         -2   -1    0    0    0  501 -0.00000000000E+00 -0.00000000000E+00 -0.90146826390E+03  0.90146826390E+03  0.00000000000E+00 0.  1.
         23    2    1    2    0    0  0.10255047686E+02  0.37504276568E+03 -0.83633444054E+03  0.92124280948E+03  0.92036816003E+02 0.  0.
         13    1    3    3    0    0  0.10025437439E+02  0.28600929630E+03 -0.53122774611E+03  0.60341092566E+03  0.00000000000E+00 0.  1.
        -13    1    3    3    0    0  0.22961024777E+00  0.89033469383E+02 -0.30510669443E+03  0.31783188383E+03  0.00000000000E+00 0. -1.
         22    1    1    2    0    0 -0.10255047686E+02 -0.37504276568E+03  0.15289570826E+04  0.15743163604E+04  0.00000000000E+00 0. -1.
<mgrwt>
<rscale>  0 0.23975174E+04</rscale>
<asrwt>0</asrwt>
<pdfrwt beam="1">  1        2 0.24524475E+00 0.23975174E+04</pdfrwt>
<pdfrwt beam="2">  1       -2 0.13868743E+00 0.23975174E+04</pdfrwt>
<totfact> 0.37205443E+00</totfact>
</mgrwt>
</event>
<event>
 6    1  0.8968082E-007  0.1748755E+04  0.7818608E-02  0.8734036E-01
         -1   -1    0    0    0  501 -0.00000000000E+00  0.00000000000E+00  0.40637784759E+03  0.40637784759E+03  0.00000000000E+00 0.  1.
          1   -1    0    0  501    0  0.00000000000E+00 -0.00000000000E+00 -0.18813434997E+04  0.18813434997E+04  0.00000000000E+00 0. -1.
         23    2    1    2    0    0  0.53422605419E+03 -0.22167905166E+03 -0.15934311180E+04  0.16973205127E+04  0.85645292202E+02 0.  0.
         11    1    3    3    0    0  0.28883282361E+03 -0.16066933865E+03 -0.84572610468E+03  0.90801524244E+03  0.00000000000E+00 0. -1.
        -11    1    3    3    0    0  0.24539323058E+03 -0.61009713014E+02 -0.74770501332E+03  0.78930527025E+03  0.00000000000E+00 0.  1.
         22    1    1    2    0    0 -0.53422605419E+03  0.22167905166E+03  0.11846546587E+03  0.59040083462E+03  0.00000000000E+00 0.  1.
<mgrwt>
<rscale>  0 0.17487554E+04</rscale>
<asrwt>0</asrwt>
<pdfrwt beam="1">  1        1 0.28943746E+00 0.17487554E+04</pdfrwt>
<pdfrwt beam="2">  1       -1 0.62519669E-01 0.17487554E+04</pdfrwt>
<totfact> 0.88224523E+00</totfact>
</mgrwt>
</event>
<event>
 6    1  0.8968082E-007  0.2071806E+04  0.7818608E-02  0.8573766E-01
          1   -1    0    0  501    0  0.00000000000E+00  0.00000000000E+00  0.19618905322E+04  0.19618905322E+04  0.00000000000E+00 0. -1.
         -1   -1    0    0    0  501 -0.00000000000E+00 -0.00000000000E+00 -0.54696977179E+03  0.54696977179E+03  0.00000000000E+00 0.  1.
         23    2    1    2    0    0  0.87703341296E+02  0.12127208736E+03  0.19475154806E+04  0.19556370840E+04  0.96442014429E+02 0.  0.
         11    1    3    3    0    0  0.10043000018E+03  0.75272181472E+02  0.11846024357E+04  0.11912325621E+04  0.00000000000E+00 0. -1.
        -11    1    3    3    0    0 -0.12726658880E+02  0.45999905887E+02  0.76291304483E+03  0.76440452194E+03  0.00000000000E+00 0.  1.
         22    1    1    2    0    0 -0.87703341296E+02 -0.12127208736E+03 -0.53259472011E+03  0.55322321999E+03  0.00000000000E+00 0.  1.
<mgrwt>
<rscale>  0 0.20718058E+04</rscale>
<asrwt>0</asrwt>
<pdfrwt beam="1">  1        1 0.30182931E+00 0.20718058E+04</pdfrwt>
<pdfrwt beam="2">  1       -1 0.84149197E-01 0.20718058E+04</pdfrwt>
<totfact> 0.40797467E+00</totfact>
</mgrwt>
</event>
<event>
 6    1  0.8968082E-007  0.4807850E+04  0.7818608E-02  0.7858852E-01
         -2   -1    0    0    0  501 -0.00000000000E+00  0.00000000000E+00  0.20852295152E+04  0.20852295152E+04  0.00000000000E+00 0.  1.
          2   -1    0    0  501    0  0.00000000000E+00 -0.00000000000E+00 -0.27713286277E+04  0.27713286277E+04  0.00000000000E+00 0. -1.
         23    2    1    2    0    0 -0.15316671746E+04 -0.15399299198E+04  0.69550691365E+03  0.22824129055E+04  0.91051152143E+02 0.  0.
         13    1    3    3    0    0 -0.50953307313E+03 -0.49286580273E+03  0.18471442499E+03  0.73257086409E+03  0.00000000000E+00 0. -1.
        -13    1    3    3    0    0 -0.10221341015E+04 -0.10470641171E+04  0.51079248865E+03  0.15498420414E+04  0.00000000000E+00 0.  1.
         22    1    1    2    0    0  0.15316671746E+04  0.15399299198E+04 -0.13816060262E+04  0.25741452375E+04  0.00000000000E+00 0. -1.
<mgrwt>
<rscale>  0 0.48078504E+04</rscale>
<asrwt>0</asrwt>
<pdfrwt beam="1">  1        2 0.42635825E+00 0.48078504E+04</pdfrwt>
<pdfrwt beam="2">  1       -2 0.32080454E+00 0.48078504E+04</pdfrwt>
<totfact> 0.42102877E-02</totfact>
</mgrwt>
</event>
<event>
 6    1  0.8968082E-007  0.2315549E+04  0.7818608E-02  0.8471815E-01
          2   -1    0    0  501    0  0.00000000000E+00  0.00000000000E+00  0.23367787153E+04  0.23367787153E+04  0.00000000000E+00 0. -1.
         -2   -1    0    0    0  501 -0.00000000000E+00 -0.00000000000E+00 -0.57362814048E+03  0.57362814048E+03  0.00000000000E+00 0.  1.
         23    2    1    2    0    0 -0.48378032269E+02  0.11434674285E+04  0.10850337985E+04  0.15801059288E+04  0.97868319961E+02 0.  0.
         11    1    3    3    0    0  0.29558800032E+02  0.38334101841E+03  0.35460371034E+03  0.52303714060E+03  0.00000000000E+00 0. -1.
        -11    1    3    3    0    0 -0.77936832300E+02  0.76012641011E+03  0.73043008818E+03  0.10570687882E+04  0.00000000000E+00 0.  1.
         22    1    1    2    0    0  0.48378032269E+02 -0.11434674285E+04  0.67811677627E+03  0.13303009270E+04  0.00000000000E+00 0. -1.
<mgrwt>
<rscale>  0 0.23155492E+04</rscale>
<asrwt>0</asrwt>
<pdfrwt beam="1">  1        2 0.35950441E+00 0.23155492E+04</pdfrwt>
<pdfrwt beam="2">  1       -2 0.88250484E-01 0.23155492E+04</pdfrwt>
<totfact> 0.43250059E+00</totfact>
</mgrwt>
</event>
<event>
 6    1  0.8968082E-007  0.5330589E+04  0.7818608E-02  0.7779440E-01
         -2   -1    0    0    0  501 -0.00000000000E+00  0.00000000000E+00  0.14014427118E+04  0.14014427118E+04  0.00000000000E+00 0.  1.
          2   -1    0    0  501    0  0.00000000000E+00 -0.00000000000E+00 -0.50689161649E+04  0.50689161649E+04  0.00000000000E+00 0. -1.
         23    2    1    2    0    0  0.54067723636E+03  0.22202015822E+04 -0.17086649915E+03  0.22932920674E+04  0.91466966188E+02 0.  0.
         13    1    3    3    0    0  0.30336849641E+03  0.11114712625E+04 -0.11910506703E+03  0.11582688932E+04  0.00000000000E+00 0. -1.
        -13    1    3    3    0    0  0.23730873995E+03  0.11087303198E+04 -0.51761432117E+02  0.11350231742E+04  0.00000000000E+00 0.  1.
         22    1    1    2    0    0 -0.54067723636E+03 -0.22202015822E+04 -0.34966069539E+04  0.41770668094E+04  0.00000000000E+00 0. -1.
<mgrwt>
<rscale>  0 0.53305893E+04</rscale>
<asrwt>0</asrwt>
<pdfrwt beam="1">  1        2 0.77983325E+00 0.53305893E+04</pdfrwt>
<pdfrwt beam="2">  1       -2 0.21560657E+00 0.53305893E+04</pdfrwt>
<totfact> 0.20488235E-03</totfact>
</mgrwt>
</event>
<event>
 6    1  0.8968082E-007  0.1012640E+04  0.7818608E-02  0.9294789E-01
         -2   -1    0    0    0  501 -0.00000000000E+00  0.00000000000E+00  0.98826323192E+02  0.98826323192E+02  0.00000000000E+00 0.  1.
          2   -1    0    0  501    0  0.00000000000E+00 -0.00000000000E+00 -0.25940457386E+04  0.25940457386E+04  0.00000000000E+00 0. -1.
         23    2    1    2    0    0  0.87076115257E+02  0.35653465390E+03 -0.21692845906E+04  0.22020230837E+04  0.91710505899E+02 0.  0.
         13    1    3    3    0    0  0.75069658348E+02  0.21692489413E+03 -0.11080204302E+04  0.11315481152E+04  0.00000000000E+00 0. -1.
        -13    1    3    3    0    0  0.12006456909E+02  0.13960975977E+03 -0.10612641604E+04  0.10704749685E+04  0.00000000000E+00 0.  1.
         22    1    1    2    0    0 -0.87076115257E+02 -0.35653465390E+03 -0.32593482486E+03  0.49084897813E+03  0.00000000000E+00 0.  1.
<mgrwt>
<rscale>  0 0.10126401E+04</rscale>
<asrwt>0</asrwt>
<pdfrwt beam="1">  1        2 0.39908398E+00 0.10126401E+04</pdfrwt>
<pdfrwt beam="2">  1       -2 0.15204049E-01 0.10126401E+04</pdfrwt>
<totfact> 0.10650676E+02</totfact>
</mgrwt>
</event>
<event>
 6    1  0.8968082E-007  0.1467332E+04  0.7818608E-02  0.8906472E-01
          1   -1    0    0  501    0  0.00000000000E+00  0.00000000000E+00  0.68278154121E+03  0.68278154121E+03  0.00000000000E+00 0. -1.
         -1   -1    0    0    0  501 -0.00000000000E+00 -0.00000000000E+00 -0.78834269819E+03  0.78834269819E+03  0.00000000000E+00 0.  1.
         23    2    1    2    0    0 -0.10627358307E+03  0.14024218544E+03 -0.76418898698E+03  0.78939660795E+03  0.90555241617E+02 0.  0.
         11    1    3    3    0    0 -0.22239190428E+02  0.85523050728E+02 -0.24113870386E+03  0.25682026457E+03  0.00000000000E+00 0.  1.
        -11    1    3    3    0    0 -0.84034392642E+02  0.54719134712E+02 -0.52305028313E+03  0.53257634338E+03  0.00000000000E+00 0. -1.
         22    1    1    2    0    0  0.10627358307E+03 -0.14024218544E+03  0.65862782999E+03  0.68172763145E+03  0.00000000000E+00 0. -1.
<mgrwt>
<rscale>  0 0.14673321E+04</rscale>
<asrwt>0</asrwt>
<pdfrwt beam="1">  1        1 0.10504331E+00 0.14673321E+04</pdfrwt>
<pdfrwt beam="2">  1       -1 0.12128349E+00 0.14673321E+04</pdfrwt>
<totfact> 0.16554927E+01</totfact>
</mgrwt>
</event>
<event>
 6    1  0.8968082E-007  0.1160057E+04  0.7818608E-02  0.9148556E-01
          2   -1    0    0  501    0  0.00000000000E+00  0.00000000000E+00  0.52930888410E+03  0.52930888410E+03  0.00000000000E+00 0. -1.
         -2   -1    0    0    0  501 -0.00000000000E+00 -0.00000000000E+00 -0.63560778734E+03  0.63560778734E+03  0.00000000000E+00 0.  1.
         23    2    1    2    0    0 -0.12489124331E+03 -0.23034371902E+03 -0.56889030269E+03  0.63327124975E+03  0.93489292045E+02 0.  0.
         13    1    3    3    0    0 -0.72321506931E+02 -0.74645324192E+02 -0.30675308343E+03  0.32388235362E+03  0.00000000000E+00 0. -1.
        -13    1    3    3    0    0 -0.52569736381E+02 -0.15569839483E+03 -0.26213721925E+03  0.30938889614E+03  0.00000000000E+00 0.  1.
         22    1    1    2    0    0  0.12489124331E+03  0.23034371902E+03  0.46259139945E+03  0.53164542168E+03  0.00000000000E+00 0. -1.
<mgrwt>
<rscale>  0 0.11600566E+04</rscale>
<asrwt>0</asrwt>
<pdfrwt beam="1">  1        2 0.81432137E-01 0.11600566E+04</pdfrwt>
<pdfrwt beam="2">  1       -2 0.97785813E-01 0.11600566E+04</pdfrwt>
<totfact> 0.49642236E+01</totfact>
</mgrwt>
</event>
<event>
 6    1  0.8968082E-007  0.2058302E+04  0.7818608E-02  0.8579837E-01
          1   -1    0    0  501    0  0.00000000000E+00  0.00000000000E+00  0.21624729213E+04  0.21624729213E+04  0.00000000000E+00 0. -1.
         -1   -1    0    0    0  501 -0.00000000000E+00 -0.00000000000E+00 -0.48978747732E+03  0.48978747732E+03  0.00000000000E+00 0.  1.
         23    2    1    2    0    0 -0.29845989964E+03 -0.48824193382E+03  0.19366820370E+04  0.20220598760E+04  0.10261740589E+03 0.  0.
         13    1    3    3    0    0 -0.11998059167E+03 -0.11883881114E+03  0.64839782946E+03  0.67002817155E+03  0.00000000000E+00 0. -1.
        -13    1    3    3    0    0 -0.17847930797E+03 -0.36940312268E+03  0.12882842075E+04  0.13520317044E+04  0.00000000000E+00 0.  1.
         22    1    1    2    0    0  0.29845989964E+03  0.48824193382E+03 -0.26399659300E+03  0.63020052265E+03  0.00000000000E+00 0.  1.
<mgrwt>
<rscale>  0 0.20583024E+04</rscale>
<asrwt>0</asrwt>
<pdfrwt beam="1">  1        1 0.33268814E+00 0.20583024E+04</pdfrwt>
<pdfrwt beam="2">  1       -1 0.75351920E-01 0.20583024E+04</pdfrwt>
<totfact> 0.37759143E+00</totfact>
</mgrwt>
</event>
<event>
 6    1  0.8968082E-007  0.2215357E+04  0.7818608E-02  0.8512063E-01
         -1   -1    0    0    0  501 -0.00000000000E+00  0.00000000000E+00  0.91732130477E+03  0.91732130477E+03  0.00000000000E+00 0.  1.
          1   -1    0    0  501    0  0.00000000000E+00 -0.00000000000E+00 -0.13375370270E+04  0.13375370270E+04  0.00000000000E+00 0. -1.
         23    2    1    2    0    0 -0.85213927292E+03  0.11434328898E+03  0.49716263416E+03  0.99756012652E+03  0.93486860177E+02 0.  0.
         11    1    3    3    0    0 -0.47075339469E+03  0.10827412501E+03  0.29217371168E+03  0.56453301281E+03  0.00000000000E+00 0. -1.
        -11    1    3    3    0    0 -0.38138587823E+03  0.60691639726E+01  0.20498892248E+03  0.43302711370E+03  0.00000000000E+00 0.  1.
         22    1    1    2    0    0  0.85213927292E+03 -0.11434328898E+03 -0.91737835640E+03  0.12572982053E+04  0.00000000000E+00 0. -1.
<mgrwt>
<rscale>  0 0.22153566E+04</rscale>
<asrwt>0</asrwt>
<pdfrwt beam="1">  1        1 0.20577493E+00 0.22153566E+04</pdfrwt>
<pdfrwt beam="2">  1       -1 0.14112635E+00 0.22153566E+04</pdfrwt>
<totfact> 0.31785556E+00</totfact>
</mgrwt>
</event>
<event>
 6    1  0.8968082E-007  0.1348253E+04  0.7818608E-02  0.8992151E-01
         -1   -1    0    0    0  501 -0.00000000000E+00  0.00000000000E+00  0.36192767016E+03  0.36192767016E+03  0.00000000000E+00 0.  1.
          1   -1    0    0  501    0  0.00000000000E+00 -0.00000000000E+00 -0.12556286590E+04  0.12556286590E+04  0.00000000000E+00 0. -1.
         23    2    1    2    0    0 -0.12229792792E+03 -0.34448965937E+03  0.22623837318E+03  0.43946716311E+03  0.91201301308E+02 0.  0.
         11    1    3    3    0    0 -0.30810404895E+02 -0.21549437503E+03  0.14617778073E+03  0.26221184241E+03  0.00000000000E+00 0. -1.
        -11    1    3    3    0    0 -0.91487523026E+02 -0.12899528434E+03  0.80060592443E+02  0.17725532069E+03  0.00000000000E+00 0.  1.
         22    1    1    2    0    0  0.12229792792E+03  0.34448965937E+03 -0.11199393621E+04  0.11780891661E+04  0.00000000000E+00 0. -1.
<mgrwt>
<rscale>  0 0.13482533E+04</rscale>
<asrwt>0</asrwt>
<pdfrwt beam="1">  1        1 0.19317364E+00 0.13482533E+04</pdfrwt>
<pdfrwt beam="2">  1       -1 0.55681180E-01 0.13482533E+04</pdfrwt>
<totfact> 0.31084483E+01</totfact>
</mgrwt>
</event>
<event>
 6    1  0.8968082E-007  0.1964742E+04  0.7818608E-02  0.8623285E-01
         -2   -1    0    0    0  501 -0.00000000000E+00  0.00000000000E+00  0.35194841405E+03  0.35194841405E+03  0.00000000000E+00 0.  1.
          2   -1    0    0  501    0  0.00000000000E+00 -0.00000000000E+00 -0.27420293897E+04  0.27420293897E+04  0.00000000000E+00 0. -1.
         23    2    1    2    0    0  0.43646143537E+03 -0.87693898436E+03 -0.12586984325E+04  0.15974661848E+04  0.89754668885E+02 0.  0.
         13    1    3    3    0    0  0.32473808134E+03 -0.56247202809E+03 -0.85407921834E+03  0.10729775930E+04  0.00000000000E+00 0. -1.
        -13    1    3    3    0    0  0.11172335404E+03 -0.31446695626E+03 -0.40461921418E+03  0.52448859178E+03  0.00000000000E+00 0.  1.
         22    1    1    2    0    0 -0.43646143537E+03  0.87693898436E+03 -0.11313825431E+04  0.14965116190E+04  0.00000000000E+00 0.  1.
<mgrwt>
<rscale>  0 0.19647421E+04</rscale>
<asrwt>0</asrwt>
<pdfrwt beam="1">  1        2 0.42185068E+00 0.19647421E+04</pdfrwt>
<pdfrwt beam="2">  1       -2 0.54145909E-01 0.19647421E+04</pdfrwt>
<totfact> 0.75103499E+00</totfact>
</mgrwt>
</event>
<event>
 6    1  0.8968082E-007  0.1790523E+04  0.7818608E-02  0.8711356E-01
         -1   -1    0    0    0  501 -0.00000000000E+00  0.00000000000E+00  0.56223334545E+03  0.56223334545E+03  0.00000000000E+00 0.  1.
          1   -1    0    0  501    0  0.00000000000E+00 -0.00000000000E+00 -0.14255525183E+04  0.14255525183E+04  0.00000000000E+00 0. -1.
         23    2    1    2    0    0 -0.45917258346E+03  0.38423280577E+03 -0.11682056946E+04  0.13159003812E+04  0.91733078778E+02 0.  0.
         13    1    3    3    0    0 -0.34954538486E+03  0.25240794764E+03 -0.77309514514E+03  0.88519368025E+03  0.00000000000E+00 0.  1.
        -13    1    3    3    0    0 -0.10962719860E+03  0.13182485813E+03 -0.39511054951E+03  0.43070670093E+03  0.00000000000E+00 0. -1.
         22    1    1    2    0    0  0.45917258346E+03 -0.38423280577E+03  0.30488652184E+03  0.67188548253E+03  0.00000000000E+00 0.  1.
<mgrwt>
<rscale>  0 0.17905230E+04</rscale>
<asrwt>0</asrwt>
<pdfrwt beam="1">  1        1 0.21931577E+00 0.17905230E+04</pdfrwt>
<pdfrwt beam="2">  1       -1 0.86497437E-01 0.17905230E+04</pdfrwt>
<totfact> 0.91757414E+00</totfact>
</mgrwt>
</event>
<event>
 6    1  0.8968082E-007  0.1568987E+04  0.7818608E-02  0.8839830E-01
          2   -1    0    0  501    0  0.00000000000E+00  0.00000000000E+00  0.23148280887E+04  0.23148280887E+04  0.00000000000E+00 0. -1.
         -2   -1    0    0    0  501 -0.00000000000E+00 -0.00000000000E+00 -0.26586442219E+03  0.26586442219E+03  0.00000000000E+00 0.  1.
         23    2    1    2    0    0 -0.39771004714E+03  0.26522768185E+03  0.20455491309E+04  0.21026437018E+04  0.91215595586E+02 0.  0.
         13    1    3    3    0    0 -0.24855759238E+03  0.11301493211E+03  0.11009195852E+04  0.11342738579E+04  0.00000000000E+00 0.  1.
        -13    1    3    3    0    0 -0.14915245476E+03  0.15221274974E+03  0.94462954576E+03  0.96836984395E+03  0.00000000000E+00 0. -1.
         22    1    1    2    0    0  0.39771004714E+03 -0.26522768185E+03  0.34145355871E+01  0.47804880909E+03  0.00000000000E+00 0.  1.
<mgrwt>
<rscale>  0 0.15689875E+04</rscale>
<asrwt>0</asrwt>
<pdfrwt beam="1">  1        2 0.35612738E+00 0.15689875E+04</pdfrwt>
<pdfrwt beam="2">  1       -2 0.40902220E-01 0.15689875E+04</pdfrwt>
<totfact> 0.24226025E+01</totfact>
</mgrwt>
</event>
<event>
 6    1  0.8968082E-007  0.9630849E+03  0.7818608E-02  0.9349986E-01
         -2   -1    0    0    0  501 -0.00000000000E+00  0.00000000000E+00  0.34965627378E+03  0.34965627378E+03  0.00000000000E+00 0.  1.
          2   -1    0    0  501    0  0.00000000000E+00 -0.00000000000E+00 -0.66317454845E+03  0.66317454845E+03  0.00000000000E+00 0. -1.
         23    2    1    2    0    0  0.37208700533E+03 -0.19377803822E+03  0.80625682557E+02  0.43720235989E+03  0.92987822733E+02 0.  0.
         11    1    3    3    0    0  0.23615601669E+03 -0.94668084867E+02  0.86910348498E+02  0.26885892060E+03  0.00000000000E+00 0.  1.
        -11    1    3    3    0    0  0.13593098863E+03 -0.99109953354E+02 -0.62846659409E+01  0.16834343929E+03  0.00000000000E+00 0. -1.
         22    1    1    2    0    0 -0.37208700533E+03  0.19377803822E+03 -0.39414395723E+03  0.57562846233E+03  0.00000000000E+00 0. -1.
<mgrwt>
<rscale>  0 0.96308492E+03</rscale>
<asrwt>0</asrwt>
<pdfrwt beam="1">  1        2 0.10202685E+00 0.96308492E+03</pdfrwt>
<pdfrwt beam="2">  1       -2 0.53793273E-01 0.96308492E+03</pdfrwt>
<totfact> 0.14285715E+02</totfact>
</mgrwt>
</event>
<event>
 6    1  0.8968082E-007  0.1598241E+04  0.7818608E-02  0.8821629E-01
          1   -1    0    0  501    0  0.00000000000E+00  0.00000000000E+00  0.62290809527E+03  0.62290809527E+03  0.00000000000E+00 0. -1.
         -1   -1    0    0    0  501 -0.00000000000E+00 -0.00000000000E+00 -0.10251812800E+04  0.10251812800E+04  0.00000000000E+00 0.  1.
         23    2    1    2    0    0  0.63368454637E+03  0.41106071755E+03 -0.46349201477E+03  0.89028018890E+03  0.85129014939E+02 0.  0.
         11    1    3    3    0    0  0.48459460116E+03  0.32450871364E+03 -0.31552254893E+03  0.66309298864E+03  0.00000000000E+00 0. -1.
        -11    1    3    3    0    0  0.14908994520E+03  0.86552003911E+02 -0.14796946584E+03  0.22718720026E+03  0.00000000000E+00 0.  1.
         22    1    1    2    0    0 -0.63368454637E+03 -0.41106071755E+03  0.61218830034E+02  0.75780918638E+03  0.00000000000E+00 0. -1.
<mgrwt>
<rscale>  0 0.15982412E+04</rscale>
<asrwt>0</asrwt>
<pdfrwt beam="1">  1        1 0.95832016E-01 0.15982412E+04</pdfrwt>
<pdfrwt beam="2">  1       -1 0.15772020E+00 0.15982412E+04</pdfrwt>
<totfact> 0.94658590E+00</totfact>
</mgrwt>
</event>
<event>
 6    1  0.8968082E-007  0.1274186E+04  0.7818608E-02  0.9050290E-01
          2   -1    0    0  501    0  0.00000000000E+00  0.00000000000E+00  0.11830076006E+04  0.11830076006E+04  0.00000000000E+00 0. -1.
         -2   -1    0    0    0  501 -0.00000000000E+00 -0.00000000000E+00 -0.34309786631E+03  0.34309786631E+03  0.00000000000E+00 0.  1.
         23    2    1    2    0    0 -0.32577577969E+03  0.49580132829E+02  0.10705806541E+04  0.11238653379E+04  0.91336260562E+02 0.  0.
         11    1    3    3    0    0 -0.44656713516E+02  0.21928693508E+02  0.27883180593E+03  0.28323535383E+03  0.00000000000E+00 0. -1.
        -11    1    3    3    0    0 -0.28111906617E+03  0.27651439321E+02  0.79174884820E+03  0.84062998405E+03  0.00000000000E+00 0.  1.
         22    1    1    2    0    0  0.32577577969E+03 -0.49580132829E+02 -0.23067091979E+03  0.40224012907E+03  0.00000000000E+00 0.  1.
<mgrwt>
<rscale>  0 0.12741858E+04</rscale>
<asrwt>0</asrwt>
<pdfrwt beam="1">  1        2 0.18200117E+00 0.12741858E+04</pdfrwt>
<pdfrwt beam="2">  1       -2 0.52784288E-01 0.12741858E+04</pdfrwt>
<totfact> 0.64451065E+01</totfact>
</mgrwt>
</event>
<event>
 6    1  0.8968082E-007  0.7166124E+03  0.7818608E-02  0.9689237E-01
         -2   -1    0    0    0  501 -0.00000000000E+00  0.00000000000E+00  0.38828196098E+03  0.38828196098E+03  0.00000000000E+00 0.  1.
          2   -1    0    0  501    0  0.00000000000E+00 -0.00000000000E+00 -0.33064458435E+03  0.33064458435E+03  0.00000000000E+00 0. -1.
         23    2    1    2    0    0  0.34712850659E+03  0.56791520455E+02  0.53137370912E+02  0.36715427960E+03  0.90858174975E+02 0.  0.
         13    1    3    3    0    0  0.87824551726E+02  0.41438426191E+02 -0.15841957652E+02  0.98393407672E+02  0.00000000000E+00 0. -1.
        -13    1    3    3    0    0  0.25930395486E+03  0.15353094264E+02  0.68979328564E+02  0.26876087193E+03  0.00000000000E+00 0.  1.
         22    1    1    2    0    0 -0.34712850659E+03 -0.56791520455E+02  0.45000057116E+01  0.35177226573E+03  0.00000000000E+00 0. -1.
<mgrwt>
<rscale>  0 0.71661239E+03</rscale>
<asrwt>0</asrwt>
<pdfrwt beam="1">  1        2 0.50868398E-01 0.71661239E+03</pdfrwt>
<pdfrwt beam="2">  1       -2 0.59735686E-01 0.71661239E+03</pdfrwt>
<totfact> 0.25992314E+02</totfact>
</mgrwt>
</event>
<event>
 6    1  0.8968082E-007  0.1973851E+04  0.7818608E-02  0.8618945E-01
          2   -1    0    0  501    0  0.00000000000E+00  0.00000000000E+00  0.38417684902E+04  0.38417684902E+04  0.00000000000E+00 0. -1.
         -2   -1    0    0    0  501 -0.00000000000E+00 -0.00000000000E+00 -0.25353477270E+03  0.25353477270E+03  0.00000000000E+00 0.  1.
         23    2    1    2    0    0 -0.81349333337E+03 -0.38388114257E+03  0.96592528468E+03  0.13230050012E+04  0.90523159995E+02 0.  0.
         13    1    3    3    0    0 -0.25441902624E+03 -0.81431010128E+02  0.25413843934E+03  0.36870909492E+03  0.00000000000E+00 0.  1.
        -13    1    3    3    0    0 -0.55907430713E+03 -0.30245013244E+03  0.71178684534E+03  0.95429590626E+03  0.00000000000E+00 0. -1.
         22    1    1    2    0    0  0.81349333337E+03  0.38388114257E+03  0.26223084328E+04  0.27722982617E+04  0.00000000000E+00 0. -1.
<mgrwt>
<rscale>  0 0.19738510E+04</rscale>
<asrwt>0</asrwt>
<pdfrwt beam="1">  1        2 0.59104126E+00 0.19738510E+04</pdfrwt>
<pdfrwt beam="2">  1       -2 0.39005353E-01 0.19738510E+04</pdfrwt>
<totfact> 0.26635773E+00</totfact>
</mgrwt>
</event>
<event>
 6    1  0.8968082E-007  0.3207354E+04  0.7818608E-02  0.8186878E-01
          2   -1    0    0  501    0  0.00000000000E+00  0.00000000000E+00  0.24556982842E+04  0.24556982842E+04  0.00000000000E+00 0. -1.
         -2   -1    0    0    0  501 -0.00000000000E+00 -0.00000000000E+00 -0.10472703134E+04  0.10472703134E+04  0.00000000000E+00 0.  1.
         23    2    1    2    0    0  0.12447184683E+04 -0.28924306222E+03  0.17608516390E+04  0.21773788963E+04  0.85992727934E+02 0.  0.
         11    1    3    3    0    0  0.31428694803E+03 -0.37172147908E+02  0.41432878995E+03  0.52136973490E+03  0.00000000000E+00 0.  1.
        -11    1    3    3    0    0  0.93043152022E+03 -0.25207091431E+03  0.13465228490E+04  0.16560091614E+04  0.00000000000E+00 0. -1.
         22    1    1    2    0    0 -0.12447184683E+04  0.28924306222E+03 -0.35242366815E+03  0.13255897013E+04  0.00000000000E+00 0.  1.
<mgrwt>
<rscale>  0 0.32073540E+04</rscale>
<asrwt>0</asrwt>
<pdfrwt beam="1">  1        2 0.37779973E+00 0.32073540E+04</pdfrwt>
<pdfrwt beam="2">  1       -2 0.16111851E+00 0.32073540E+04</pdfrwt>
<totfact> 0.76792840E-01</totfact>
</mgrwt>
</event>
<event>
 6    1  0.8968082E-007  0.4510582E+04  0.7818608E-02  0.7908787E-01
          2   -1    0    0  501    0  0.00000000000E+00  0.00000000000E+00  0.23460717173E+04  0.23460717173E+04  0.00000000000E+00 0. -1.
         -2   -1    0    0    0  501 -0.00000000000E+00 -0.00000000000E+00 -0.21680233148E+04  0.21680233148E+04  0.00000000000E+00 0.  1.
         23    2    1    2    0    0 -0.13394483849E+04  0.17905060584E+04 -0.19772737538E+03  0.22466644695E+04  0.91494277489E+02 0.  0.
         13    1    3    3    0    0 -0.99650495518E+03  0.13469308938E+04 -0.10926540587E+03  0.16790425508E+04  0.00000000000E+00 0. -1.
        -13    1    3    3    0    0 -0.34294342970E+03  0.44357516458E+03 -0.88461969513E+02  0.56762191876E+03  0.00000000000E+00 0.  1.
         22    1    1    2    0    0  0.13394483849E+04 -0.17905060584E+04  0.37577577780E+03  0.22674305626E+04  0.00000000000E+00 0. -1.
<mgrwt>
<rscale>  0 0.45105823E+04</rscale>
<asrwt>0</asrwt>
<pdfrwt beam="1">  1        2 0.36093411E+00 0.45105823E+04</pdfrwt>
<pdfrwt beam="2">  1       -2 0.33354205E+00 0.45105823E+04</pdfrwt>
<totfact> 0.63754494E-02</totfact>
</mgrwt>
</event>
<event>
 6    1  0.8968082E-007  0.1736117E+04  0.7818608E-02  0.8741030E-01
         -1   -1    0    0    0  501 -0.00000000000E+00  0.00000000000E+00  0.18821780665E+03  0.18821780665E+03  0.00000000000E+00 0.  1.
          1   -1    0    0  501    0  0.00000000000E+00 -0.00000000000E+00 -0.40034747892E+04  0.40034747892E+04  0.00000000000E+00 0. -1.
         23    2    1    2    0    0  0.56101212143E+03  0.22802893155E+03 -0.42181916786E+03  0.74464284336E+03  0.99145145001E+02 0.  0.
         11    1    3    3    0    0  0.11435598350E+03  0.85720978719E+02 -0.74134567722E+02  0.16100096673E+03  0.00000000000E+00 0. -1.
        -11    1    3    3    0    0  0.44665613792E+03  0.14230795283E+03 -0.34768460014E+03  0.58364187663E+03  0.00000000000E+00 0.  1.
         22    1    1    2    0    0 -0.56101212143E+03 -0.22802893155E+03 -0.33934378147E+04  0.34470497525E+04  0.00000000000E+00 0. -1.
<mgrwt>
<rscale>  0 0.17361166E+04</rscale>
<asrwt>0</asrwt>
<pdfrwt beam="1">  1        1 0.61591918E+00 0.17361166E+04</pdfrwt>
<pdfrwt beam="2">  1       -1 0.28956586E-01 0.17361166E+04</pdfrwt>
<totfact> 0.99434493E-01</totfact>
</mgrwt>
</event>
<event>
 6    1  0.8968082E-007  0.4389098E+04  0.7818608E-02  0.7930345E-01
          2   -1    0    0  501    0  0.00000000000E+00  0.00000000000E+00  0.18783792396E+04  0.18783792396E+04  0.00000000000E+00 0. -1.
         -2   -1    0    0    0  501 -0.00000000000E+00 -0.00000000000E+00 -0.25639365009E+04  0.25639365009E+04  0.00000000000E+00 0.  1.
         23    2    1    2    0    0  0.14717752168E+04  0.13545908953E+04  0.56844368056E+03  0.20814775112E+04  0.91551239241E+02 0.  0.
         11    1    3    3    0    0  0.48661294790E+03  0.49955825025E+03  0.22027031055E+03  0.73134780793E+03  0.00000000000E+00 0.  1.
        -11    1    3    3    0    0  0.98516226890E+03  0.85503264502E+03  0.34817337001E+03  0.13501297033E+04  0.00000000000E+00 0. -1.
         22    1    1    2    0    0 -0.14717752168E+04 -0.13545908953E+04 -0.12540009419E+04  0.23608382292E+04  0.00000000000E+00 0.  1.
<mgrwt>
<rscale>  0 0.43890979E+04</rscale>
<asrwt>0</asrwt>
<pdfrwt beam="1">  1        2 0.28898142E+00 0.43890979E+04</pdfrwt>
<pdfrwt beam="2">  1       -2 0.39445177E+00 0.43890979E+04</pdfrwt>
<totfact> 0.48149485E-02</totfact>
</mgrwt>
</event>
<event>
 6    1  0.1233967E-006  0.4222197E+04  0.7818608E-02  0.7961163E-01
          2   -1    0    0  501    0  0.00000000000E+00  0.00000000000E+00  0.23418584952E+04  0.23418584952E+04  0.00000000000E+00 0. -1.
         -2   -1    0    0    0  501 -0.00000000000E+00 -0.00000000000E+00 -0.19030769372E+04  0.19030769372E+04  0.00000000000E+00 0.  1.
         23    2    1    2    0    0 -0.10400852739E+04 -0.11689382914E+04 -0.12038878703E+04  0.19763330088E+04  0.91389556409E+02 0.  0.
         11    1    3    3    0    0 -0.63653095136E+03 -0.65978107815E+03 -0.73687985907E+03  0.11762119919E+04  0.00000000000E+00 0. -1.
        -11    1    3    3    0    0 -0.40355432259E+03 -0.50915721330E+03 -0.46700801120E+03  0.80012101688E+03  0.00000000000E+00 0.  1.
         22    1    1    2    0    0  0.10400852739E+04  0.11689382914E+04  0.16426694282E+04  0.22686024237E+04  0.00000000000E+00 0. -1.
<mgrwt>
<rscale>  0 0.42221970E+04</rscale>
<asrwt>0</asrwt>
<pdfrwt beam="1">  1        2 0.36028592E+00 0.42221970E+04</pdfrwt>
<pdfrwt beam="2">  1       -2 0.29278107E+00 0.42221970E+04</pdfrwt>
<totfact> 0.11701640E-01</totfact>
</mgrwt>
</event>
<event>
 6    1  0.8968082E-007  0.2782839E+04  0.7818608E-02  0.8308616E-01
         -1   -1    0    0    0  501 -0.00000000000E+00  0.00000000000E+00  0.10577189325E+04  0.10577189325E+04  0.00000000000E+00 0.  1.
          1   -1    0    0  501    0  0.00000000000E+00 -0.00000000000E+00 -0.18303993186E+04  0.18303993186E+04  0.00000000000E+00 0. -1.
         23    2    1    2    0    0 -0.50070158009E+03 -0.53328109184E+03 -0.16133189837E+04  0.17737735796E+04  0.91562947318E+02 0.  0.
         11    1    3    3    0    0 -0.78913191263E+02 -0.12011896666E+03 -0.38405617139E+03  0.41006706853E+03  0.00000000000E+00 0. -1.
        -11    1    3    3    0    0 -0.42178838883E+03 -0.41316212519E+03 -0.12292628123E+04  0.13637065111E+04  0.00000000000E+00 0.  1.
         22    1    1    2    0    0  0.50070158009E+03  0.53328109184E+03  0.84063859756E+03  0.11143446715E+04  0.00000000000E+00 0.  1.
<mgrwt>
<rscale>  0 0.27828388E+04</rscale>
<asrwt>0</asrwt>
<pdfrwt beam="1">  1        1 0.28159989E+00 0.27828388E+04</pdfrwt>
<pdfrwt beam="2">  1       -1 0.16272599E+00 0.27828388E+04</pdfrwt>
<totfact> 0.93869328E-01</totfact>
</mgrwt>
</event>
<event>
 6    1  0.8968082E-007  0.2039993E+04  0.7818608E-02  0.8588147E-01
          2   -1    0    0  501    0  0.00000000000E+00  0.00000000000E+00  0.12027823555E+04  0.12027823555E+04  0.00000000000E+00 0. -1.
         -2   -1    0    0    0  501 -0.00000000000E+00 -0.00000000000E+00 -0.86498869339E+03  0.86498869339E+03  0.00000000000E+00 0.  1.
         23    2    1    2    0    0 -0.45242150247E+03  0.31619345585E+03 -0.69752608777E+03  0.89450615898E+03  0.94525699803E+02 0.  0.
         11    1    3    3    0    0 -0.11004388869E+03  0.97769445211E+02 -0.25050232770E+03  0.29055109368E+03  0.00000000000E+00 0. -1.
        -11    1    3    3    0    0 -0.34237761378E+03  0.21842401064E+03 -0.44702376007E+03  0.60395506531E+03  0.00000000000E+00 0.  1.
         22    1    1    2    0    0  0.45242150247E+03 -0.31619345585E+03  0.10353197499E+04  0.11732648899E+04  0.00000000000E+00 0. -1.
<mgrwt>
<rscale>  0 0.20399933E+04</rscale>
<asrwt>0</asrwt>
<pdfrwt beam="1">  1        2 0.18504344E+00 0.20399933E+04</pdfrwt>
<pdfrwt beam="2">  1       -2 0.13307518E+00 0.20399933E+04</pdfrwt>
<totfact> 0.71517853E+00</totfact>
</mgrwt>
</event>
<event>
 6    1  0.8968082E-007  0.2488315E+04  0.7818608E-02  0.8407160E-01
          2   -1    0    0  501    0  0.00000000000E+00  0.00000000000E+00  0.45150103741E+04  0.45150103741E+04  0.00000000000E+00 0. -1.
         -2   -1    0    0    0  501 -0.00000000000E+00 -0.00000000000E+00 -0.34284035051E+03  0.34284035051E+03  0.00000000000E+00 0.  1.
         23    2    1    2    0    0 -0.10274479861E+04  0.14708640107E+03  0.75415673735E+03  0.12857227036E+04  0.83944699820E+02 0.  0.
         11    1    3    3    0    0 -0.53068007708E+03  0.77055002547E+02  0.44133269170E+03  0.69450224074E+03  0.00000000000E+00 0. -1.
        -11    1    3    3    0    0 -0.49676790900E+03  0.70031398528E+02  0.31282404566E+03  0.59122046288E+03  0.00000000000E+00 0.  1.
         22    1    1    2    0    0  0.10274479861E+04 -0.14708640107E+03  0.34180132863E+04  0.35721280210E+04  0.00000000000E+00 0. -1.
<mgrwt>
<rscale>  0 0.24883149E+04</rscale>
<asrwt>0</asrwt>
<pdfrwt beam="1">  1        2 0.69461694E+00 0.24883149E+04</pdfrwt>
<pdfrwt beam="2">  1       -2 0.52744673E-01 0.24883149E+04</pdfrwt>
<totfact> 0.36237712E-01</totfact>
</mgrwt>
</event>
<event>
 6    1  0.8968082E-007  0.2239356E+04  0.7818608E-02  0.8502223E-01
          2   -1    0    0  501    0  0.00000000000E+00  0.00000000000E+00  0.76873090235E+03  0.76873090235E+03  0.00000000000E+00 0. -1.
         -2   -1    0    0    0  501 -0.00000000000E+00 -0.00000000000E+00 -0.16308427336E+04  0.16308427336E+04  0.00000000000E+00 0.  1.
         23    2    1    2    0    0 -0.80619739295E+03 -0.74809081379E+03 -0.21771056262E+03  0.11248787324E+04  0.91433973251E+02 0.  0.
         13    1    3    3    0    0 -0.27738988622E+03 -0.20881834442E+03 -0.92217371587E+02  0.35924127487E+03  0.00000000000E+00 0. -1.
        -13    1    3    3    0    0 -0.52880750673E+03 -0.53927246936E+03 -0.12549319103E+03  0.76563745754E+03  0.00000000000E+00 0.  1.
         22    1    1    2    0    0  0.80619739295E+03  0.74809081379E+03 -0.64440126860E+03  0.12746949035E+04  0.00000000000E+00 0.  1.
<mgrwt>
<rscale>  0 0.22393563E+04</rscale>
<asrwt>0</asrwt>
<pdfrwt beam="1">  1        2 0.11826629E+00 0.22393563E+04</pdfrwt>
<pdfrwt beam="2">  1       -2 0.25089888E+00 0.22393563E+04</pdfrwt>
<totfact> 0.20986989E+00</totfact>
</mgrwt>
</event>
<event>
 6    1  0.8968082E-007  0.1824746E+04  0.7818608E-02  0.8693249E-01
         -1   -1    0    0    0  501 -0.00000000000E+00  0.00000000000E+00  0.44062428120E+03  0.44062428120E+03  0.00000000000E+00 0.  1.
          1   -1    0    0  501    0  0.00000000000E+00 -0.00000000000E+00 -0.18891941677E+04  0.18891941677E+04  0.00000000000E+00 0. -1.
         23    2    1    2    0    0 -0.47329916510E+03  0.52126803144E+03 -0.14623647676E+04  0.16256006140E+04  0.91291742683E+02 0.  0.
         11    1    3    3    0    0 -0.21692917541E+03  0.17681954782E+03 -0.54134072208E+03  0.60940396866E+03  0.00000000000E+00 0. -1.
        -11    1    3    3    0    0 -0.25636998969E+03  0.34444848361E+03 -0.92102404556E+03  0.10161966453E+04  0.00000000000E+00 0.  1.
         22    1    1    2    0    0  0.47329916510E+03 -0.52126803144E+03  0.13794881125E+02  0.70421783493E+03  0.00000000000E+00 0.  1.
<mgrwt>
<rscale>  0 0.18247464E+04</rscale>
<asrwt>0</asrwt>
<pdfrwt beam="1">  1        1 0.29064525E+00 0.18247464E+04</pdfrwt>
<pdfrwt beam="2">  1       -1 0.67788352E-01 0.18247464E+04</pdfrwt>
<totfact> 0.73521650E+00</totfact>
</mgrwt>
</event>
<event>
 6    1  0.8968082E-007  0.1736401E+04  0.7818608E-02  0.8740872E-01
          2   -1    0    0  501    0  0.00000000000E+00  0.00000000000E+00  0.67914375637E+03  0.67914375637E+03  0.00000000000E+00 0. -1.
         -2   -1    0    0    0  501 -0.00000000000E+00 -0.00000000000E+00 -0.11098859455E+04  0.11098859455E+04  0.00000000000E+00 0.  1.
         23    2    1    2    0    0  0.82437199994E+03 -0.24649058848E+02  0.55239987819E+02  0.83175469088E+03  0.92561542574E+02 0.  0.
         11    1    3    3    0    0  0.19765687470E+03  0.15700850300E+02  0.46603022931E+02  0.20368259269E+03  0.00000000000E+00 0.  1.
        -11    1    3    3    0    0  0.62671512523E+03 -0.40349909148E+02  0.86369648885E+01  0.62807209819E+03  0.00000000000E+00 0. -1.
         22    1    1    2    0    0 -0.82437199994E+03  0.24649058848E+02 -0.48598217698E+03  0.95727501102E+03  0.00000000000E+00 0.  1.
<mgrwt>
<rscale>  0 0.17364010E+04</rscale>
<asrwt>0</asrwt>
<pdfrwt beam="1">  1        2 0.10448366E+00 0.17364010E+04</pdfrwt>
<pdfrwt beam="2">  1       -2 0.17075168E+00 0.17364010E+04</pdfrwt>
<totfact> 0.84968240E+00</totfact>
</mgrwt>
</event>
<event>
 6    1  0.8968082E-007  0.1819136E+04  0.7818608E-02  0.8696189E-01
          2   -1    0    0  501    0  0.00000000000E+00  0.00000000000E+00  0.71059311302E+03  0.71059311302E+03  0.00000000000E+00 0. -1.
         -2   -1    0    0    0  501 -0.00000000000E+00 -0.00000000000E+00 -0.11642586565E+04  0.11642586565E+04  0.00000000000E+00 0.  1.
         23    2    1    2    0    0 -0.47164544779E+03  0.34084556999E+03 -0.94439633275E+03  0.11136409980E+04  0.98421076072E+02 0.  0.
         11    1    3    3    0    0 -0.13373789550E+03  0.58548419862E+02 -0.29349323243E+03  0.32779874869E+03  0.00000000000E+00 0.  1.
        -11    1    3    3    0    0 -0.33790755229E+03  0.28229715013E+03 -0.65090310031E+03  0.78584224935E+03  0.00000000000E+00 0. -1.
         22    1    1    2    0    0  0.47164544779E+03 -0.34084556999E+03  0.49073078929E+03  0.76121077144E+03  0.00000000000E+00 0. -1.
<mgrwt>
<rscale>  0 0.18191363E+04</rscale>
<asrwt>0</asrwt>
<pdfrwt beam="1">  1        2 0.10932202E+00 0.18191363E+04</pdfrwt>
<pdfrwt beam="2">  1       -2 0.17911671E+00 0.18191363E+04</pdfrwt>
<totfact> 0.69633973E+00</totfact>
</mgrwt>
</event>
<event>
 6    1  0.8968082E-007  0.5950421E+03  0.7818608E-02  0.9915746E-01
          2   -1    0    0  501    0  0.00000000000E+00  0.00000000000E+00  0.21101000847E+03  0.21101000847E+03  0.00000000000E+00 0. -1.
         -2   -1    0    0    0  501 -0.00000000000E+00 -0.00000000000E+00 -0.41950039125E+03  0.41950039125E+03  0.00000000000E+00 0.  1.
         23    2    1    2    0    0  0.92415219796E+02  0.42381930685E+02  0.18248528932E+03  0.22653171579E+03  0.87629541500E+02 0.  0.
         11    1    3    3    0    0  0.33145429031E+02  0.82403933825E+00  0.33511977259E+01  0.33324601013E+02  0.00000000000E+00 0.  1.
        -11    1    3    3    0    0  0.59269790765E+02  0.41557891347E+02  0.17913409159E+03  0.19320711478E+03  0.00000000000E+00 0. -1.
         22    1    1    2    0    0 -0.92415219796E+02 -0.42381930685E+02 -0.39097567210E+03  0.40397868393E+03  0.00000000000E+00 0.  1.
<mgrwt>
<rscale>  0 0.59504212E+03</rscale>
<asrwt>0</asrwt>
<pdfrwt beam="1">  1        2 0.32463079E-01 0.59504212E+03</pdfrwt>
<pdfrwt beam="2">  1       -2 0.64538521E-01 0.59504212E+03</pdfrwt>
<totfact> 0.36450209E+02</totfact>
</mgrwt>
</event>
<event>
 6    1  0.8968082E-007  0.1568168E+04  0.7818608E-02  0.8840346E-01
         -4   -1    0    0    0  501 -0.00000000000E+00  0.00000000000E+00  0.34306482484E+03  0.34306482484E+03  0.00000000000E+00 0.  1.
          4   -1    0    0  501    0  0.00000000000E+00 -0.00000000000E+00 -0.17920455577E+04  0.17920455577E+04  0.00000000000E+00 0. -1.
         23    2    1    2    0    0  0.40764067228E+03 -0.64785332960E+03 -0.51174192948E+03  0.92502715030E+03  0.88941396613E+02 0.  0.
         13    1    3    3    0    0  0.15713139175E+03 -0.33132962589E+03 -0.25462347621E+03  0.44643332078E+03  0.00000000000E+00 0. -1.
        -13    1    3    3    0    0  0.25050928053E+03 -0.31652370371E+03 -0.25711845328E+03  0.47859382952E+03  0.00000000000E+00 0.  1.
         22    1    1    2    0    0 -0.40764067228E+03  0.64785332960E+03 -0.93723880335E+03  0.12100832322E+04  0.00000000000E+00 0. -1.
<mgrwt>
<rscale>  0 0.15681681E+04</rscale>
<asrwt>0</asrwt>
<pdfrwt beam="1">  1        4 0.27569931E+00 0.15681681E+04</pdfrwt>
<pdfrwt beam="2">  1       -4 0.52779204E-01 0.15681681E+04</pdfrwt>
<totfact> 0.29083646E-01</totfact>
</mgrwt>
</event>
<event>
 6    1  0.8968082E-007  0.3222805E+04  0.7818608E-02  0.8182820E-01
          1   -1    0    0  501    0  0.00000000000E+00  0.00000000000E+00  0.11810114644E+04  0.11810114644E+04  0.00000000000E+00 0. -1.
         -1   -1    0    0    0  501 -0.00000000000E+00 -0.00000000000E+00 -0.21986389371E+04  0.21986389371E+04  0.00000000000E+00 0.  1.
         23    2    1    2    0    0 -0.79667053819E+03  0.52498562558E+03  0.85083877064E+03  0.12816847307E+04  0.92169852787E+02 0.  0.
         11    1    3    3    0    0 -0.55052542415E+02  0.64883442547E+02  0.89983432508E+02  0.12384531347E+03  0.00000000000E+00 0. -1.
        -11    1    3    3    0    0 -0.74161799578E+03  0.46010218304E+03  0.76085533814E+03  0.11578394172E+04  0.00000000000E+00 0.  1.
         22    1    1    2    0    0  0.79667053819E+03 -0.52498562558E+03 -0.18684662434E+04  0.20979656709E+04  0.00000000000E+00 0.  1.
<mgrwt>
<rscale>  0 0.32228049E+04</rscale>
<asrwt>0</asrwt>
<pdfrwt beam="1">  1        1 0.18169407E+00 0.32228049E+04</pdfrwt>
<pdfrwt beam="2">  1       -1 0.33825214E+00 0.32228049E+04</pdfrwt>
<totfact> 0.17113884E-01</totfact>
</mgrwt>
</event>
<event>
 6    1  0.1094192E-006  0.4158951E+04  0.7818608E-02  0.7973227E-01
         -2   -1    0    0    0  501 -0.00000000000E+00  0.00000000000E+00  0.17684087209E+04  0.17684087209E+04  0.00000000000E+00 0.  1.
          2   -1    0    0  501    0  0.00000000000E+00 -0.00000000000E+00 -0.24452591925E+04  0.24452591925E+04  0.00000000000E+00 0. -1.
         23    2    1    2    0    0 -0.16705967778E+04 -0.12281985128E+04 -0.48521825066E+03  0.21313403482E+04  0.88372779422E+02 0.  0.
         13    1    3    3    0    0 -0.77157584681E+03 -0.61549878581E+03 -0.25227197366E+03  0.10187292042E+04  0.00000000000E+00 0.  1.
        -13    1    3    3    0    0 -0.89902093103E+03 -0.61269972694E+03 -0.23294627701E+03  0.11126111440E+04  0.00000000000E+00 0. -1.
         22    1    1    2    0    0  0.16705967778E+04  0.12281985128E+04 -0.19163222090E+03  0.20823275652E+04  0.00000000000E+00 0.  1.
<mgrwt>
<rscale>  0 0.41589507E+04</rscale>
<asrwt>0</asrwt>
<pdfrwt beam="1">  1        2 0.37619372E+00 0.41589507E+04</pdfrwt>
<pdfrwt beam="2">  1       -2 0.27206288E+00 0.41589507E+04</pdfrwt>
<totfact> 0.13730272E-01</totfact>
</mgrwt>
</event>
<event>
 6    1  0.8968082E-007  0.2627418E+04  0.7818608E-02  0.8358947E-01
         -2   -1    0    0    0  501 -0.00000000000E+00  0.00000000000E+00  0.79633817471E+03  0.79633817471E+03  0.00000000000E+00 0.  1.
          2   -1    0    0  501    0  0.00000000000E+00 -0.00000000000E+00 -0.21672094318E+04  0.21672094318E+04  0.00000000000E+00 0. -1.
         23    2    1    2    0    0  0.39233493297E+03  0.12432451290E+04 -0.85327275205E+03  0.15608739585E+04  0.93101958368E+02 0.  0.
         13    1    3    3    0    0  0.30123199344E+03  0.81663267512E+03 -0.55127280632E+03  0.10303064335E+04  0.00000000000E+00 0.  1.
        -13    1    3    3    0    0  0.91102939529E+02  0.42661245386E+03 -0.30199994573E+03  0.53056752502E+03  0.00000000000E+00 0. -1.
         22    1    1    2    0    0 -0.39233493297E+03 -0.12432451290E+04 -0.51759850504E+03  0.14026736480E+04  0.00000000000E+00 0.  1.
<mgrwt>
<rscale>  0 0.26274182E+04</rscale>
<asrwt>0</asrwt>
<pdfrwt beam="1">  1        2 0.33341683E+00 0.26274182E+04</pdfrwt>
<pdfrwt beam="2">  1       -2 0.12251357E+00 0.26274182E+04</pdfrwt>
<totfact> 0.23975304E+00</totfact>
</mgrwt>
</event>
<event>
 6    1  0.8968082E-007  0.5011085E+04  0.7818608E-02  0.7826800E-01
         -1   -1    0    0    0  501 -0.00000000000E+00  0.00000000000E+00  0.37941100004E+04  0.37941100004E+04  0.00000000000E+00 0.  1.
          1   -1    0    0  501    0  0.00000000000E+00 -0.00000000000E+00 -0.16546024270E+04  0.16546024270E+04  0.00000000000E+00 0. -1.
         23    2    1    2    0    0  0.12929094705E+04  0.46045880113E+03  0.33483135575E+04  0.36198195618E+04  0.90844780196E+02 0.  0.
         13    1    3    3    0    0  0.81025830389E+03  0.26616300795E+03  0.19764342653E+04  0.21525923141E+04  0.00000000000E+00 0. -1.
        -13    1    3    3    0    0  0.48265116665E+03  0.19429579318E+03  0.13718792922E+04  0.14672272477E+04  0.00000000000E+00 0.  1.
         22    1    1    2    0    0 -0.12929094705E+04 -0.46045880113E+03 -0.12088059841E+04  0.18288928656E+04  0.00000000000E+00 0. -1.
<mgrwt>
<rscale>  0 0.50110852E+04</rscale>
<asrwt>0</asrwt>
<pdfrwt beam="1">  1        1 0.25455422E+00 0.50110852E+04</pdfrwt>
<pdfrwt beam="2">  1       -1 0.58370923E+00 0.50110852E+04</pdfrwt>
<totfact> 0.19242557E-03</totfact>
</mgrwt>
</event>
<event>
 6    1  0.8968082E-007  0.1456134E+04  0.7818608E-02  0.8914159E-01
          2   -1    0    0  501    0  0.00000000000E+00  0.00000000000E+00  0.84144824174E+03  0.84144824174E+03  0.00000000000E+00 0. -1.
         -2   -1    0    0    0  501 -0.00000000000E+00 -0.00000000000E+00 -0.62996352682E+03  0.62996352682E+03  0.00000000000E+00 0.  1.
         23    2    1    2    0    0  0.62714516540E+03 -0.39044299020E+02  0.47212876214E+03  0.79113915032E+03  0.90333113240E+02 0.  0.
         11    1    3    3    0    0  0.22696778223E+03  0.25980885274E+02  0.19105483664E+03  0.29781089835E+03  0.00000000000E+00 0.  1.
        -11    1    3    3    0    0  0.40017738317E+03 -0.65025184294E+02  0.28107392550E+03  0.49332825197E+03  0.00000000000E+00 0. -1.
         22    1    1    2    0    0 -0.62714516540E+03  0.39044299020E+02 -0.26064404723E+03  0.68027261824E+03  0.00000000000E+00 0.  1.
<mgrwt>
<rscale>  0 0.14561342E+04</rscale>
<asrwt>0</asrwt>
<pdfrwt beam="1">  1        2 0.12945358E+00 0.14561342E+04</pdfrwt>
<pdfrwt beam="2">  1       -2 0.96917466E-01 0.14561342E+04</pdfrwt>
<totfact> 0.27748449E+01</totfact>
</mgrwt>
</event>
<event>
 6    1  0.8968082E-007  0.2938568E+04  0.7818608E-02  0.8261494E-01
          2   -1    0    0  501    0  0.00000000000E+00  0.00000000000E+00  0.19829921353E+04  0.19829921353E+04  0.00000000000E+00 0. -1.
         -2   -1    0    0    0  501 -0.00000000000E+00 -0.00000000000E+00 -0.10886554703E+04  0.10886554703E+04  0.00000000000E+00 0.  1.
         23    2    1    2    0    0  0.11632204805E+03  0.14436489723E+04  0.19634057438E+03  0.14639002011E+04  0.82468197652E+02 0.  0.
         13    1    3    3    0    0  0.12387801562E+03  0.11658795170E+04  0.17151568646E+03  0.11849212808E+04  0.00000000000E+00 0.  1.
        -13    1    3    3    0    0 -0.75559675786E+01  0.27776945531E+03  0.24824887921E+02  0.27897892037E+03  0.00000000000E+00 0. -1.
         22    1    1    2    0    0 -0.11632204805E+03 -0.14436489723E+04  0.69799609064E+03  0.16077474045E+04  0.00000000000E+00 0. -1.
<mgrwt>
<rscale>  0 0.29385678E+04</rscale>
<asrwt>0</asrwt>
<pdfrwt beam="1">  1        2 0.30507571E+00 0.29385678E+04</pdfrwt>
<pdfrwt beam="2">  1       -2 0.16748546E+00 0.29385678E+04</pdfrwt>
<totfact> 0.13051700E+00</totfact>
</mgrwt>
</event>
<event>
 6    1  0.8968082E-007  0.3911002E+04  0.7818608E-02  0.8022745E-01
          1   -1    0    0  501    0  0.00000000000E+00  0.00000000000E+00  0.17710003388E+04  0.17710003388E+04  0.00000000000E+00 0. -1.
         -1   -1    0    0    0  501 -0.00000000000E+00 -0.00000000000E+00 -0.21592225002E+04  0.21592225002E+04  0.00000000000E+00 0.  1.
         23    2    1    2    0    0  0.33153969523E+03  0.47885711879E+03  0.16805439908E+04  0.17810332006E+04  0.92889433833E+02 0.  0.
         11    1    3    3    0    0  0.11789224453E+03  0.10206381950E+03  0.48421801482E+03  0.50870688068E+03  0.00000000000E+00 0. -1.
        -11    1    3    3    0    0  0.21364745069E+03  0.37679329929E+03  0.11963259759E+04  0.12723263199E+04  0.00000000000E+00 0.  1.
         22    1    1    2    0    0 -0.33153969523E+03 -0.47885711879E+03 -0.20687661521E+04  0.21491896384E+04  0.00000000000E+00 0.  1.
<mgrwt>
<rscale>  0 0.39110018E+04</rscale>
<asrwt>0</asrwt>
<pdfrwt beam="1">  1        1 0.27246159E+00 0.39110018E+04</pdfrwt>
<pdfrwt beam="2">  1       -1 0.33218808E+00 0.39110018E+04</pdfrwt>
<totfact> 0.68436853E-02</totfact>
</mgrwt>
</event>
<event>
 6    1  0.8968082E-007  0.1528066E+04  0.7818608E-02  0.8866001E-01
          1   -1    0    0  501    0  0.00000000000E+00  0.00000000000E+00  0.16751485321E+04  0.16751485321E+04  0.00000000000E+00 0. -1.
         -1   -1    0    0    0  501 -0.00000000000E+00 -0.00000000000E+00 -0.34847453179E+03  0.34847453179E+03  0.00000000000E+00 0.  1.
         23    2    1    2    0    0 -0.64758757125E+03  0.25535068810E+03  0.25752944743E+03  0.74783165801E+03  0.91417372978E+02 0.  0.
         13    1    3    3    0    0 -0.23919961881E+03  0.14209073283E+03  0.96974208341E+02  0.29463576001E+03  0.00000000000E+00 0. -1.
        -13    1    3    3    0    0 -0.40838795244E+03  0.11325995527E+03  0.16055523909E+03  0.45319589800E+03  0.00000000000E+00 0.  1.
         22    1    1    2    0    0  0.64758757125E+03 -0.25535068810E+03  0.10691445529E+04  0.12757914059E+04  0.00000000000E+00 0. -1.
<mgrwt>
<rscale>  0 0.15280662E+04</rscale>
<asrwt>0</asrwt>
<pdfrwt beam="1">  1        1 0.25771515E+00 0.15280662E+04</pdfrwt>
<pdfrwt beam="2">  1       -1 0.53611468E-01 0.15280662E+04</pdfrwt>
<totfact> 0.16793964E+01</totfact>
</mgrwt>
</event>
<event>
 6    1  0.8968082E-007  0.2150054E+04  0.7818608E-02  0.8539509E-01
          1   -1    0    0  501    0  0.00000000000E+00  0.00000000000E+00  0.10237636232E+04  0.10237636232E+04  0.00000000000E+00 0. -1.
         -1   -1    0    0    0  501 -0.00000000000E+00 -0.00000000000E+00 -0.11288572659E+04  0.11288572659E+04  0.00000000000E+00 0.  1.
         23    2    1    2    0    0  0.15278301986E+03 -0.18473402919E+03 -0.10998679090E+04  0.11293686457E+04  0.91075836587E+02 0.  0.
         11    1    3    3    0    0  0.83198496543E+02 -0.12070772422E+03 -0.46685450478E+03  0.48933165966E+03  0.00000000000E+00 0.  1.
        -11    1    3    3    0    0  0.69584523314E+02 -0.64026304973E+02 -0.63301340421E+03  0.64003698606E+03  0.00000000000E+00 0. -1.
         22    1    1    2    0    0 -0.15278301986E+03  0.18473402919E+03  0.99477426626E+03  0.10232522433E+04  0.00000000000E+00 0. -1.
<mgrwt>
<rscale>  0 0.21500540E+04</rscale>
<asrwt>0</asrwt>
<pdfrwt beam="1">  1        1 0.15750210E+00 0.21500540E+04</pdfrwt>
<pdfrwt beam="2">  1       -1 0.17367035E+00 0.21500540E+04</pdfrwt>
<totfact> 0.30710179E+00</totfact>
</mgrwt>
</event>
<event>
 6    1  0.8968082E-007  0.4771324E+03  0.7818608E-02  0.1019926E+00
         -2   -1    0    0    0  501 -0.00000000000E+00  0.00000000000E+00  0.41790110830E+02  0.41790110830E+02  0.00000000000E+00 0.  1.
          2   -1    0    0  501    0  0.00000000000E+00 -0.00000000000E+00 -0.13618969892E+04  0.13618969892E+04  0.00000000000E+00 0. -1.
         23    2    1    2    0    0  0.13409118698E+03  0.15627103578E+03 -0.38399202790E+03  0.44519239669E+03  0.91352665707E+02 0.  0.
         11    1    3    3    0    0  0.44283245060E+02  0.93146284699E+02 -0.25933574005E+03  0.27909185265E+03  0.00000000000E+00 0. -1.
        -11    1    3    3    0    0  0.89807941924E+02  0.63124751083E+02 -0.12465628784E+03  0.16610054404E+03  0.00000000000E+00 0.  1.
         22    1    1    2    0    0 -0.13409118698E+03 -0.15627103578E+03 -0.93611485045E+03  0.95849470331E+03  0.00000000000E+00 0.  1.
<mgrwt>
<rscale>  0 0.47713238E+03</rscale>
<asrwt>0</asrwt>
<pdfrwt beam="1">  1        2 0.20952262E+00 0.47713238E+03</pdfrwt>
<pdfrwt beam="2">  1       -2 0.64292475E-02 0.47713238E+03</pdfrwt>
<totfact> 0.21505335E+03</totfact>
</mgrwt>
</event>
<event>
 6    1  0.9213090E-007  0.4355584E+04  0.7818608E-02  0.7936419E-01
         -1   -1    0    0    0  501 -0.00000000000E+00  0.00000000000E+00  0.20695391386E+04  0.20695391386E+04  0.00000000000E+00 0.  1.
          1   -1    0    0  501    0  0.00000000000E+00 -0.00000000000E+00 -0.22917070369E+04  0.22917070369E+04  0.00000000000E+00 0. -1.
         23    2    1    2    0    0  0.10213266122E+04  0.64136121538E+02  0.18126628686E+04  0.20835812000E+04  0.91337017519E+02 0.  0.
         13    1    3    3    0    0  0.52801080589E+03  0.32369709591E+02  0.84424058183E+03  0.99628578693E+03  0.00000000000E+00 0.  1.
        -13    1    3    3    0    0  0.49331580629E+03  0.31766411947E+02  0.96842228680E+03  0.10872954130E+04  0.00000000000E+00 0. -1.
         22    1    1    2    0    0 -0.10213266122E+04 -0.64136121538E+02 -0.20348307669E+04  0.22776649755E+04  0.00000000000E+00 0. -1.
<mgrwt>
<rscale>  0 0.43555837E+04</rscale>
<asrwt>0</asrwt>
<pdfrwt beam="1">  1        1 0.35257031E+00 0.43555837E+04</pdfrwt>
<pdfrwt beam="2">  1       -1 0.31839064E+00 0.43555837E+04</pdfrwt>
<totfact> 0.35948761E-02</totfact>
</mgrwt>
</event>
<event>
 6    1  0.8968082E-007  0.6363448E+03  0.7818608E-02  0.9832745E-01
         -2   -1    0    0    0  501 -0.00000000000E+00  0.00000000000E+00  0.96375454024E+02  0.96375454024E+02  0.00000000000E+00 0.  1.
          2   -1    0    0  501    0  0.00000000000E+00 -0.00000000000E+00 -0.10504094761E+04  0.10504094761E+04  0.00000000000E+00 0. -1.
         23    2    1    2    0    0  0.11327661223E+03 -0.28427110532E+03 -0.59291563404E+03  0.67344769054E+03  0.91330118842E+02 0.  0.
         13    1    3    3    0    0  0.77561405636E+02 -0.82682135336E+02 -0.18343444583E+03  0.21563928924E+03  0.00000000000E+00 0.  1.
        -13    1    3    3    0    0  0.35715206589E+02 -0.20158896998E+03 -0.40948118821E+03  0.45780840130E+03  0.00000000000E+00 0. -1.
         22    1    1    2    0    0 -0.11327661223E+03  0.28427110532E+03 -0.36111838803E+03  0.47333723958E+03  0.00000000000E+00 0.  1.
<mgrwt>
<rscale>  0 0.63634484E+03</rscale>
<asrwt>0</asrwt>
<pdfrwt beam="1">  1        2 0.16160146E+00 0.63634484E+03</pdfrwt>
<pdfrwt beam="2">  1       -2 0.14826993E-01 0.63634484E+03</pdfrwt>
<totfact> 0.84304045E+02</totfact>
</mgrwt>
</event>
<event>
 6    1  0.8968082E-007  0.2324159E+04  0.7818608E-02  0.8468456E-01
         -2   -1    0    0    0  501 -0.00000000000E+00  0.00000000000E+00  0.46805830721E+03  0.46805830721E+03  0.00000000000E+00 0.  1.
          2   -1    0    0  501    0  0.00000000000E+00 -0.00000000000E+00 -0.28851730243E+04  0.28851730243E+04  0.00000000000E+00 0. -1.
         23    2    1    2    0    0  0.58109240857E+03 -0.90976051744E+03 -0.59728225278E+03  0.12373100701E+04  0.94114471041E+02 0.  0.
         13    1    3    3    0    0  0.20539712524E+03 -0.34594685747E+03 -0.27282353529E+03  0.48610686958E+03  0.00000000000E+00 0. -1.
        -13    1    3    3    0    0  0.37569528333E+03 -0.56381365997E+03 -0.32445871749E+03  0.75120320050E+03  0.00000000000E+00 0.  1.
         22    1    1    2    0    0 -0.58109240857E+03  0.90976051744E+03 -0.18198324643E+04  0.21159212614E+04  0.00000000000E+00 0. -1.
<mgrwt>
<rscale>  0 0.23241594E+04</rscale>
<asrwt>0</asrwt>
<pdfrwt beam="1">  1        2 0.44387277E+00 0.23241594E+04</pdfrwt>
<pdfrwt beam="2">  1       -2 0.72008970E-01 0.23241594E+04</pdfrwt>
<totfact> 0.32448237E+00</totfact>
</mgrwt>
</event>
<event>
 6    1  0.8968082E-007  0.2011703E+04  0.7818608E-02  0.8601169E-01
         -2   -1    0    0    0  501 -0.00000000000E+00  0.00000000000E+00  0.13205916941E+04  0.13205916941E+04  0.00000000000E+00 0.  1.
          2   -1    0    0  501    0  0.00000000000E+00 -0.00000000000E+00 -0.76612381838E+03  0.76612381838E+03  0.00000000000E+00 0. -1.
         23    2    1    2    0    0 -0.51459804721E+03  0.72952470759E+03 -0.19815733064E+03  0.91904169227E+03  0.91399427106E+02 0.  0.
         11    1    3    3    0    0 -0.16117251037E+03  0.24078730326E+03 -0.10790285359E+03  0.30918947156E+03  0.00000000000E+00 0. -1.
        -11    1    3    3    0    0 -0.35342553684E+03  0.48873740433E+03 -0.90254477041E+02  0.60985222071E+03  0.00000000000E+00 0.  1.
         22    1    1    2    0    0  0.51459804721E+03 -0.72952470759E+03  0.75262520638E+03  0.11676738202E+04  0.00000000000E+00 0.  1.
<mgrwt>
<rscale>  0 0.20117025E+04</rscale>
<asrwt>0</asrwt>
<pdfrwt beam="1">  1        2 0.11786520E+00 0.20117025E+04</pdfrwt>
<pdfrwt beam="2">  1       -2 0.20316795E+00 0.20117025E+04</pdfrwt>
<totfact> 0.42901902E+00</totfact>
</mgrwt>
</event>
<event>
 6    1  0.8968082E-007  0.3220046E+04  0.7818608E-02  0.8183543E-01
         -2   -1    0    0    0  501 -0.00000000000E+00  0.00000000000E+00  0.15982687577E+04  0.15982687577E+04  0.00000000000E+00 0.  1.
          2   -1    0    0  501    0  0.00000000000E+00 -0.00000000000E+00 -0.16218637177E+04  0.16218637177E+04  0.00000000000E+00 0. -1.
         23    2    1    2    0    0 -0.44521620583E+03  0.47793219147E+03 -0.14820787598E+04  0.16220675068E+04  0.88931978856E+02 0.  0.
         11    1    3    3    0    0 -0.14021531013E+02  0.46391579614E+02 -0.12983326421E+03  0.13858375983E+03  0.00000000000E+00 0. -1.
        -11    1    3    3    0    0 -0.43119467481E+03  0.43154061186E+03 -0.13522454956E+04  0.14834837470E+04  0.00000000000E+00 0.  1.
         22    1    1    2    0    0  0.44521620583E+03 -0.47793219147E+03  0.14584837998E+04  0.15980649686E+04  0.00000000000E+00 0.  1.
<mgrwt>
<rscale>  0 0.32200460E+04</rscale>
<asrwt>0</asrwt>
<pdfrwt beam="1">  1        2 0.24951749E+00 0.32200460E+04</pdfrwt>
<pdfrwt beam="2">  1       -2 0.24588750E+00 0.32200460E+04</pdfrwt>
<totfact> 0.62094773E-01</totfact>
</mgrwt>
</event>
<event>
 6    1  0.8968082E-007  0.2078973E+04  0.7818608E-02  0.8570563E-01
         -1   -1    0    0    0  501 -0.00000000000E+00  0.00000000000E+00  0.40817660678E+03  0.40817660678E+03  0.00000000000E+00 0.  1.
          1   -1    0    0  501    0  0.00000000000E+00 -0.00000000000E+00 -0.26472176838E+04  0.26472176838E+04  0.00000000000E+00 0. -1.
         23    2    1    2    0    0 -0.14522759609E+03  0.10229761647E+04 -0.12584681153E+04  0.16309313667E+04  0.92864620109E+02 0.  0.
         11    1    3    3    0    0 -0.56469853933E+02  0.68917834698E+03 -0.86323668616E+03  0.11060439479E+04  0.00000000000E+00 0. -1.
        -11    1    3    3    0    0 -0.88757742153E+02  0.33379781769E+03 -0.39523142912E+03  0.52488741883E+03  0.00000000000E+00 0.  1.
         22    1    1    2    0    0  0.14522759609E+03 -0.10229761647E+04 -0.98057296177E+03  0.14244629239E+04  0.00000000000E+00 0. -1.
<mgrwt>
<rscale>  0 0.20789731E+04</rscale>
<asrwt>0</asrwt>
<pdfrwt beam="1">  1        1 0.40726424E+00 0.20789731E+04</pdfrwt>
<pdfrwt beam="2">  1       -1 0.62796403E-01 0.20789731E+04</pdfrwt>
<totfact> 0.25350181E+00</totfact>
</mgrwt>
</event>
<event>
 6    1  0.8968082E-007  0.2797789E+04  0.7818608E-02  0.8303955E-01
         -1   -1    0    0    0  501 -0.00000000000E+00  0.00000000000E+00  0.19446200418E+04  0.19446200418E+04  0.00000000000E+00 0.  1.
          1   -1    0    0  501    0  0.00000000000E+00 -0.00000000000E+00 -0.10063180260E+04  0.10063180260E+04  0.00000000000E+00 0. -1.
         23    2    1    2    0    0  0.66780308051E+03  0.65279422921E+03  0.15660136702E+04  0.18257166757E+04  0.93494944345E+02 0.  0.
         11    1    3    3    0    0  0.60090813588E+02  0.10138185627E+03  0.18846079816E+03  0.22227608756E+03  0.00000000000E+00 0. -1.
        -11    1    3    3    0    0  0.60771226692E+03  0.55141237294E+03  0.13775528720E+04  0.16034405881E+04  0.00000000000E+00 0.  1.
         22    1    1    2    0    0 -0.66780308051E+03 -0.65279422921E+03 -0.62771165446E+03  0.11252213921E+04  0.00000000000E+00 0. -1.
<mgrwt>
<rscale>  0 0.27977893E+04</rscale>
<asrwt>0</asrwt>
<pdfrwt beam="1">  1        1 0.15481816E+00 0.27977893E+04</pdfrwt>
<pdfrwt beam="2">  1       -1 0.29917231E+00 0.27977893E+04</pdfrwt>
<totfact> 0.43308322E-01</totfact>
</mgrwt>
</event>
<event>
 6    1  0.8968082E-007  0.2573746E+04  0.7818608E-02  0.8377174E-01
          2   -1    0    0  501    0  0.00000000000E+00  0.00000000000E+00  0.40698421645E+04  0.40698421645E+04  0.00000000000E+00 0. -1.
         -2   -1    0    0    0  501 -0.00000000000E+00 -0.00000000000E+00 -0.40690567204E+03  0.40690567204E+03  0.00000000000E+00 0.  1.
         23    2    1    2    0    0 -0.10351001327E+04  0.57743904318E+03  0.96948417617E+03  0.15340359047E+04  0.92187069911E+02 0.  0.
         11    1    3    3    0    0 -0.28708669276E+03  0.11539070114E+03  0.23919348929E+03  0.39108478414E+03  0.00000000000E+00 0. -1.
        -11    1    3    3    0    0 -0.74801343996E+03  0.46204834204E+03  0.73029068689E+03  0.11429511206E+04  0.00000000000E+00 0.  1.
         22    1    1    2    0    0  0.10351001327E+04 -0.57743904318E+03  0.26934523163E+04  0.29427119318E+04  0.00000000000E+00 0. -1.
<mgrwt>
<rscale>  0 0.25737458E+04</rscale>
<asrwt>0</asrwt>
<pdfrwt beam="1">  1        2 0.62612953E+00 0.25737458E+04</pdfrwt>
<pdfrwt beam="2">  1       -2 0.62600876E-01 0.25737458E+04</pdfrwt>
<totfact> 0.63092915E-01</totfact>
</mgrwt>
</event>
<event>
 6    1  0.8968082E-007  0.1855702E+04  0.7818608E-02  0.8677226E-01
         -2   -1    0    0    0  501 -0.00000000000E+00  0.00000000000E+00  0.86825245158E+03  0.86825245158E+03  0.00000000000E+00 0.  1.
          2   -1    0    0  501    0  0.00000000000E+00 -0.00000000000E+00 -0.99154048807E+03  0.99154048807E+03  0.00000000000E+00 0. -1.
         23    2    1    2    0    0 -0.13897931743E+03 -0.49084299243E+03 -0.83492931397E+03  0.98419291583E+03  0.10623861049E+03 0.  0.
         11    1    3    3    0    0 -0.91317638421E+02 -0.14313988066E+03 -0.28912634264E+03  0.33529386891E+03  0.00000000000E+00 0. -1.
        -11    1    3    3    0    0 -0.47661679008E+02 -0.34770311177E+03 -0.54580297134E+03  0.64889904693E+03  0.00000000000E+00 0.  1.
         22    1    1    2    0    0  0.13897931743E+03  0.49084299243E+03  0.71164127749E+03  0.87560002382E+03  0.00000000000E+00 0.  1.
<mgrwt>
<rscale>  0 0.18557020E+04</rscale>
<asrwt>0</asrwt>
<pdfrwt beam="1">  1        2 0.15254469E+00 0.18557020E+04</pdfrwt>
<pdfrwt beam="2">  1       -2 0.13357730E+00 0.18557020E+04</pdfrwt>
<totfact> 0.97170515E+00</totfact>
</mgrwt>
</event>
<event>
 6    1  0.8968082E-007  0.2225269E+04  0.7818608E-02  0.8507984E-01
          2   -1    0    0  501    0  0.00000000000E+00  0.00000000000E+00  0.14177555517E+04  0.14177555517E+04  0.00000000000E+00 0. -1.
         -2   -1    0    0    0  501 -0.00000000000E+00 -0.00000000000E+00 -0.87317947832E+03  0.87317947832E+03  0.00000000000E+00 0.  1.
         23    2    1    2    0    0  0.54825014241E+03 -0.52621587061E+03  0.11066571573E+04  0.13457279066E+04  0.93873178549E+02 0.  0.
         11    1    3    3    0    0  0.24228589372E+03 -0.18290762340E+03  0.49128652437E+03  0.57751199297E+03  0.00000000000E+00 0.  1.
        -11    1    3    3    0    0  0.30596424869E+03 -0.34330824721E+03  0.61537063295E+03  0.76821591365E+03  0.00000000000E+00 0. -1.
         22    1    1    2    0    0 -0.54825014241E+03  0.52621587061E+03 -0.56208108397E+03  0.94520712338E+03  0.00000000000E+00 0.  1.
<mgrwt>
<rscale>  0 0.22252686E+04</rscale>
<asrwt>0</asrwt>
<pdfrwt beam="1">  1        2 0.21811624E+00 0.22252686E+04</pdfrwt>
<pdfrwt beam="2">  1       -2 0.13433530E+00 0.22252686E+04</pdfrwt>
<totfact> 0.51524344E+00</totfact>
</mgrwt>
</event>
<event>
 6    1  0.8968082E-007  0.1989918E+04  0.7818608E-02  0.8611349E-01
         -2   -1    0    0    0  501 -0.00000000000E+00  0.00000000000E+00  0.28063698220E+03  0.28063698220E+03  0.00000000000E+00 0.  1.
          2   -1    0    0  501    0  0.00000000000E+00 -0.00000000000E+00 -0.35274862788E+04  0.35274862788E+04  0.00000000000E+00 0. -1.
         23    2    1    2    0    0 -0.61153575583E+03 -0.70985514537E+03 -0.99816140945E+03  0.13720470057E+04  0.91194727549E+02 0.  0.
         11    1    3    3    0    0 -0.31606588153E+03 -0.30336766840E+03 -0.49224831699E+03  0.65896736587E+03  0.00000000000E+00 0. -1.
        -11    1    3    3    0    0 -0.29546987430E+03 -0.40648747696E+03 -0.50591309246E+03  0.71307963978E+03  0.00000000000E+00 0.  1.
         22    1    1    2    0    0  0.61153575583E+03  0.70985514537E+03 -0.22486878872E+04  0.24360762554E+04  0.00000000000E+00 0. -1.
<mgrwt>
<rscale>  0 0.19899177E+04</rscale>
<asrwt>0</asrwt>
<pdfrwt beam="1">  1        2 0.54269019E+00 0.19899177E+04</pdfrwt>
<pdfrwt beam="2">  1       -2 0.43174921E-01 0.19899177E+04</pdfrwt>
<totfact> 0.36997185E+00</totfact>
</mgrwt>
</event>
<event>
 6    1  0.8968082E-007  0.2692542E+04  0.7818608E-02  0.8337429E-01
         -2   -1    0    0    0  501 -0.00000000000E+00  0.00000000000E+00  0.72672782996E+03  0.72672782996E+03  0.00000000000E+00 0.  1.
          2   -1    0    0  501    0  0.00000000000E+00 -0.00000000000E+00 -0.24939804526E+04  0.24939804526E+04  0.00000000000E+00 0. -1.
         23    2    1    2    0    0  0.89607976005E+03 -0.52325460415E+03  0.13860078064E+03  0.10506779805E+04  0.89217291678E+02 0.  0.
         11    1    3    3    0    0  0.45543034752E+03 -0.28087196208E+03  0.11449244137E+03  0.54718770057E+03  0.00000000000E+00 0.  1.
        -11    1    3    3    0    0  0.44064941253E+03 -0.24238264207E+03  0.24108339267E+02  0.50349027991E+03  0.00000000000E+00 0. -1.
         22    1    1    2    0    0 -0.89607976005E+03  0.52325460415E+03 -0.19058534033E+04  0.21700303021E+04  0.00000000000E+00 0. -1.
<mgrwt>
<rscale>  0 0.26925416E+04</rscale>
<asrwt>0</asrwt>
<pdfrwt beam="1">  1        2 0.38368930E+00 0.26925416E+04</pdfrwt>
<pdfrwt beam="2">  1       -2 0.11180428E+00 0.26925416E+04</pdfrwt>
<totfact> 0.19451040E+00</totfact>
</mgrwt>
</event>
<event>
 6    1  0.8968082E-007  0.2075289E+04  0.7818608E-02  0.8572208E-01
         -2   -1    0    0    0  501 -0.00000000000E+00  0.00000000000E+00  0.14771751839E+04  0.14771751839E+04  0.00000000000E+00 0.  1.
          2   -1    0    0  501    0  0.00000000000E+00 -0.00000000000E+00 -0.72889532721E+03  0.72889532721E+03  0.00000000000E+00 0. -1.
         23    2    1    2    0    0 -0.81150859363E+03  0.30120800784E+03  0.97933402296E+03  0.13101584120E+04  0.90263361927E+02 0.  0.
         11    1    3    3    0    0 -0.42903697821E+03  0.11488584500E+03  0.52653651850E+03  0.68884845312E+03  0.00000000000E+00 0.  1.
        -11    1    3    3    0    0 -0.38247161543E+03  0.18632216284E+03  0.45279750446E+03  0.62130995889E+03  0.00000000000E+00 0. -1.
         22    1    1    2    0    0  0.81150859363E+03 -0.30120800784E+03 -0.23105416628E+03  0.89591209908E+03  0.00000000000E+00 0. -1.
<mgrwt>
<rscale>  0 0.20752890E+04</rscale>
<asrwt>0</asrwt>
<pdfrwt beam="1">  1        2 0.11213774E+00 0.20752890E+04</pdfrwt>
<pdfrwt beam="2">  1       -2 0.22725772E+00 0.20752890E+04</pdfrwt>
<totfact> 0.31945586E+00</totfact>
</mgrwt>
</event>
<event>
 6    1  0.8968082E-007  0.1072233E+04  0.7818608E-02  0.9232686E-01
         -2   -1    0    0    0  501 -0.00000000000E+00  0.00000000000E+00  0.84698020406E+03  0.84698020406E+03  0.00000000000E+00 0.  1.
          2   -1    0    0  501    0  0.00000000000E+00 -0.00000000000E+00 -0.33934785777E+03  0.33934785777E+03  0.00000000000E+00 0. -1.
         23    2    1    2    0    0  0.31826988525E+03  0.37795752556E+03  0.36418066602E+02  0.50354661190E+03  0.89918317360E+02 0.  0.
         11    1    3    3    0    0  0.17872546574E+03  0.25133005051E+03 -0.13230839467E+02  0.30868210429E+03  0.00000000000E+00 0. -1.
        -11    1    3    3    0    0  0.13954441951E+03  0.12662747505E+03  0.49648906069E+02  0.19486450761E+03  0.00000000000E+00 0.  1.
         22    1    1    2    0    0 -0.31826988525E+03 -0.37795752556E+03  0.47121427968E+03  0.68278144993E+03  0.00000000000E+00 0.  1.
<mgrwt>
<rscale>  0 0.10722330E+04</rscale>
<asrwt>0</asrwt>
<pdfrwt beam="1">  1        2 0.52207363E-01 0.10722330E+04</pdfrwt>
<pdfrwt beam="2">  1       -2 0.13030465E+00 0.10722330E+04</pdfrwt>
<totfact> 0.41044465E+01</totfact>
</mgrwt>
</event>
<event>
 6    1  0.8968082E-007  0.3501516E+04  0.7818608E-02  0.8113431E-01
          2   -1    0    0  501    0  0.00000000000E+00  0.00000000000E+00  0.31197982266E+04  0.31197982266E+04  0.00000000000E+00 0. -1.
         -2   -1    0    0    0  501 -0.00000000000E+00 -0.00000000000E+00 -0.98248465149E+03  0.98248465149E+03  0.00000000000E+00 0.  1.
         23    2    1    2    0    0 -0.73382796386E+03  0.11671041850E+04 -0.19255084999E+03  0.13950880387E+04  0.92515655664E+02 0.  0.
         13    1    3    3    0    0 -0.37401157225E+03  0.60938245239E+03 -0.53827509517E+02  0.71702791455E+03  0.00000000000E+00 0.  1.
        -13    1    3    3    0    0 -0.35981639161E+03  0.55772173263E+03 -0.13872334048E+03  0.67806012411E+03  0.00000000000E+00 0. -1.
         22    1    1    2    0    0  0.73382796386E+03 -0.11671041850E+04  0.23298644251E+04  0.27071948394E+04  0.00000000000E+00 0. -1.
<mgrwt>
<rscale>  0 0.35015162E+04</rscale>
<asrwt>0</asrwt>
<pdfrwt beam="1">  1        2 0.47996895E+00 0.35015162E+04</pdfrwt>
<pdfrwt beam="2">  1       -2 0.15115149E+00 0.35015162E+04</pdfrwt>
<totfact> 0.35222452E-01</totfact>
</mgrwt>
</event>
<event>
 6    1  0.8968082E-007  0.1051966E+04  0.7818608E-02  0.9253317E-01
          1   -1    0    0  501    0  0.00000000000E+00  0.00000000000E+00  0.47428837360E+03  0.47428837360E+03  0.00000000000E+00 0. -1.
         -1   -1    0    0    0  501 -0.00000000000E+00 -0.00000000000E+00 -0.58331186712E+03  0.58331186712E+03  0.00000000000E+00 0.  1.
         23    2    1    2    0    0 -0.13092363443E+03  0.32606287006E+02  0.45229557451E+03  0.48029333436E+03  0.88916996709E+02 0.  0.
         11    1    3    3    0    0 -0.71753184453E+02  0.41453405278E+01  0.10757773085E+03  0.12937801784E+03  0.00000000000E+00 0.  1.
        -11    1    3    3    0    0 -0.59170449980E+02  0.28460946479E+02  0.34471784366E+03  0.35091531651E+03  0.00000000000E+00 0. -1.
         22    1    1    2    0    0  0.13092363443E+03 -0.32606287006E+02 -0.56131906803E+03  0.57730690637E+03  0.00000000000E+00 0.  1.
<mgrwt>
<rscale>  0 0.10519658E+04</rscale>
<asrwt>0</asrwt>
<pdfrwt beam="1">  1        1 0.72967442E-01 0.10519658E+04</pdfrwt>
<pdfrwt beam="2">  1       -1 0.89740287E-01 0.10519658E+04</pdfrwt>
<totfact> 0.57950804E+01</totfact>
</mgrwt>
</event>
<event>
 6    1  0.8968082E-007  0.1897538E+04  0.7818608E-02  0.8656083E-01
          1   -1    0    0  501    0  0.00000000000E+00  0.00000000000E+00  0.76879641373E+03  0.76879641373E+03  0.00000000000E+00 0. -1.
         -1   -1    0    0    0  501 -0.00000000000E+00 -0.00000000000E+00 -0.11708721764E+04  0.11708721764E+04  0.00000000000E+00 0.  1.
         23    2    1    2    0    0 -0.26206055333E+03 -0.75027839987E+03  0.32396664868E+03  0.86322491114E+03  0.92787104876E+02 0.  0.
         13    1    3    3    0    0 -0.12748280956E+03 -0.23624669683E+03  0.12034671108E+03  0.29418990357E+03  0.00000000000E+00 0. -1.
        -13    1    3    3    0    0 -0.13457774377E+03 -0.51403170304E+03  0.20361993761E+03  0.56903500757E+03  0.00000000000E+00 0.  1.
         22    1    1    2    0    0  0.26206055333E+03  0.75027839987E+03 -0.72604241134E+03  0.10764436790E+04  0.00000000000E+00 0.  1.
<mgrwt>
<rscale>  0 0.18975377E+04</rscale>
<asrwt>0</asrwt>
<pdfrwt beam="1">  1        1 0.11827637E+00 0.18975377E+04</pdfrwt>
<pdfrwt beam="2">  1       -1 0.18013418E+00 0.18975377E+04</pdfrwt>
<totfact> 0.45774773E+00</totfact>
</mgrwt>
</event>
<event>
 6    1  0.8968082E-007  0.1805852E+04  0.7818608E-02  0.8703194E-01
          2   -1    0    0  501    0  0.00000000000E+00  0.00000000000E+00  0.36045894387E+04  0.36045894387E+04  0.00000000000E+00 0. -1.
         -2   -1    0    0    0  501 -0.00000000000E+00 -0.00000000000E+00 -0.22617697140E+03  0.22617697140E+03  0.00000000000E+00 0.  1.
         23    2    1    2    0    0 -0.56094934878E+02  0.41475406566E+03  0.33851916895E+04  0.34121812520E+04  0.91052430676E+02 0.  0.
         11    1    3    3    0    0 -0.56276471597E+02  0.26519768040E+03  0.18562989581E+04  0.18759911175E+04  0.00000000000E+00 0. -1.
        -11    1    3    3    0    0  0.18153671808E+00  0.14955638526E+03  0.15288927314E+04  0.15361901345E+04  0.00000000000E+00 0.  1.
         22    1    1    2    0    0  0.56094934878E+02 -0.41475406566E+03 -0.67792222309E+01  0.41858515807E+03  0.00000000000E+00 0.  1.
<mgrwt>
<rscale>  0 0.18058517E+04</rscale>
<asrwt>0</asrwt>
<pdfrwt beam="1">  1        2 0.55455218E+00 0.18058517E+04</pdfrwt>
<pdfrwt beam="2">  1       -2 0.34796460E-01 0.18058517E+04</pdfrwt>
<totfact> 0.50555176E+00</totfact>
</mgrwt>
</event>
<event>
 6    1  0.8968082E-007  0.5159929E+03  0.7818608E-02  0.1009687E+00
          4   -1    0    0  501    0  0.00000000000E+00  0.00000000000E+00  0.16777208792E+03  0.16777208792E+03  0.00000000000E+00 0. -1.
         -4   -1    0    0    0  501 -0.00000000000E+00 -0.00000000000E+00 -0.39674160639E+03  0.39674160639E+03  0.00000000000E+00 0.  1.
         23    2    1    2    0    0 -0.12515985455E+03 -0.14869010548E+03  0.54038719006E+02  0.22119547582E+03  0.90738738775E+02 0.  0.
         11    1    3    3    0    0 -0.44240387522E+02 -0.65536578961E+02  0.68053595604E+02  0.10432423949E+03  0.00000000000E+00 0. -1.
        -11    1    3    3    0    0 -0.80919467032E+02 -0.83153526517E+02 -0.14014876598E+02  0.11687123634E+03  0.00000000000E+00 0.  1.
         22    1    1    2    0    0  0.12515985455E+03  0.14869010548E+03 -0.28300823748E+03  0.34331821848E+03  0.00000000000E+00 0.  1.
<mgrwt>
<rscale>  0 0.51599290E+03</rscale>
<asrwt>0</asrwt>
<pdfrwt beam="1">  1        4 0.25811091E-01 0.51599290E+03</pdfrwt>
<pdfrwt beam="2">  1       -4 0.61037169E-01 0.51599290E+03</pdfrwt>
<totfact> 0.70751627E+01</totfact>
</mgrwt>
</event>
<event>
 6    1  0.8968082E-007  0.7201693E+04  0.7818608E-02  0.7556985E-01
          1   -1    0    0  501    0  0.00000000000E+00  0.00000000000E+00  0.32469147441E+04  0.32469147441E+04  0.00000000000E+00 0. -1.
         -1   -1    0    0    0  501 -0.00000000000E+00 -0.00000000000E+00 -0.39933590808E+04  0.39933590808E+04  0.00000000000E+00 0.  1.
         23    2    1    2    0    0 -0.22883196569E+03 -0.94919921410E+03 -0.38572140341E+04  0.39798702722E+04  0.89017202180E+02 0.  0.
         11    1    3    3    0    0 -0.10237466875E+03 -0.49209653178E+03 -0.18153787130E+04  0.18836771063E+04  0.00000000000E+00 0. -1.
        -11    1    3    3    0    0 -0.12645729694E+03 -0.45710268232E+03 -0.20418353211E+04  0.20961931659E+04  0.00000000000E+00 0.  1.
         22    1    1    2    0    0  0.22883196569E+03  0.94919921410E+03  0.31107696973E+04  0.32604035527E+04  0.00000000000E+00 0. -1.
<mgrwt>
<rscale>  0 0.72016933E+04</rscale>
<asrwt>0</asrwt>
<pdfrwt beam="1">  1        1 0.49952535E+00 0.72016933E+04</pdfrwt>
<pdfrwt beam="2">  1       -1 0.61436294E+00 0.72016933E+04</pdfrwt>
<totfact> 0.95909160E-05</totfact>
</mgrwt>
</event>
<event>
 6    1  0.8968082E-007  0.4987582E+04  0.7818608E-02  0.7830426E-01
         -1   -1    0    0    0  501 -0.00000000000E+00  0.00000000000E+00  0.21008719172E+04  0.21008719172E+04  0.00000000000E+00 0.  1.
          1   -1    0    0  501    0  0.00000000000E+00 -0.00000000000E+00 -0.29601958397E+04  0.29601958397E+04  0.00000000000E+00 0. -1.
         23    2    1    2    0    0 -0.18450425454E+04 -0.11169915678E+04 -0.16983625001E+04  0.27467994294E+04  0.92842699407E+02 0.  0.
         13    1    3    3    0    0 -0.61703808372E+03 -0.41991370586E+03 -0.56266682087E+03  0.93469645791E+03  0.00000000000E+00 0.  1.
        -13    1    3    3    0    0 -0.12280044616E+04 -0.69707786196E+03 -0.11356956792E+04  0.18121029715E+04  0.00000000000E+00 0. -1.
         22    1    1    2    0    0  0.18450425454E+04  0.11169915678E+04  0.83903857759E+03  0.23142683275E+04  0.00000000000E+00 0.  1.
<mgrwt>
<rscale>  0 0.49875815E+04</rscale>
<asrwt>0</asrwt>
<pdfrwt beam="1">  1        1 0.45541474E+00 0.49875815E+04</pdfrwt>
<pdfrwt beam="2">  1       -1 0.32321107E+00 0.49875815E+04</pdfrwt>
<totfact> 0.10768954E-02</totfact>
</mgrwt>
</event>
<event>
 6    1  0.8968082E-007  0.1834518E+04  0.7818608E-02  0.8688155E-01
         -2   -1    0    0    0  501 -0.00000000000E+00  0.00000000000E+00  0.42574733011E+03  0.42574733011E+03  0.00000000000E+00 0.  1.
          2   -1    0    0  501    0  0.00000000000E+00 -0.00000000000E+00 -0.19762054601E+04  0.19762054601E+04  0.00000000000E+00 0. -1.
         23    2    1    2    0    0 -0.57493537546E+03 -0.91981307339E+02  0.14678835517E+03  0.60761255541E+03  0.92924428574E+02 0.  0.
         13    1    3    3    0    0 -0.21994214245E+03 -0.80731151672E+02  0.51571148986E+02  0.23989924611E+03  0.00000000000E+00 0.  1.
        -13    1    3    3    0    0 -0.35499323300E+03 -0.11250155667E+02  0.95217206183E+02  0.36771330930E+03  0.00000000000E+00 0. -1.
         22    1    1    2    0    0  0.57493537546E+03  0.91981307339E+02 -0.16972464852E+04  0.17943402348E+04  0.00000000000E+00 0. -1.
<mgrwt>
<rscale>  0 0.18345181E+04</rscale>
<asrwt>0</asrwt>
<pdfrwt beam="1">  1        2 0.30403161E+00 0.18345181E+04</pdfrwt>
<pdfrwt beam="2">  1       -2 0.65499589E-01 0.18345181E+04</pdfrwt>
<totfact> 0.13925094E+01</totfact>
</mgrwt>
</event>
<event>
 6    1  0.8968082E-007  0.3179963E+04  0.7818608E-02  0.8194129E-01
          2   -1    0    0  501    0  0.00000000000E+00  0.00000000000E+00  0.19504895386E+04  0.19504895386E+04  0.00000000000E+00 0. -1.
         -2   -1    0    0    0  501 -0.00000000000E+00 -0.00000000000E+00 -0.12961063360E+04  0.12961063360E+04  0.00000000000E+00 0.  1.
         23    2    1    2    0    0 -0.74047850582E+03 -0.46484735477E+03  0.16817502271E+04  0.18975686385E+04  0.89952379848E+02 0.  0.
         13    1    3    3    0    0 -0.12479871139E+03 -0.11528911530E+03  0.29058225556E+03  0.33660710883E+03  0.00000000000E+00 0. -1.
        -13    1    3    3    0    0 -0.61567979443E+03 -0.34955823947E+03  0.13911679715E+04  0.15609615297E+04  0.00000000000E+00 0.  1.
         22    1    1    2    0    0  0.74047850582E+03  0.46484735477E+03 -0.10273670245E+04  0.13490272361E+04  0.00000000000E+00 0.  1.
<mgrwt>
<rscale>  0 0.31799634E+04</rscale>
<asrwt>0</asrwt>
<pdfrwt beam="1">  1        2 0.30007531E+00 0.31799634E+04</pdfrwt>
<pdfrwt beam="2">  1       -2 0.19940097E+00 0.31799634E+04</pdfrwt>
<totfact> 0.80589956E-01</totfact>
</mgrwt>
</event>
<event>
 6    1  0.8968082E-007  0.2510798E+04  0.7818608E-02  0.8399149E-01
          1   -1    0    0  501    0  0.00000000000E+00  0.00000000000E+00  0.25157727526E+04  0.25157727526E+04  0.00000000000E+00 0. -1.
         -1   -1    0    0    0  501 -0.00000000000E+00 -0.00000000000E+00 -0.62645803425E+03  0.62645803425E+03  0.00000000000E+00 0.  1.
         23    2    1    2    0    0 -0.59166119263E+02  0.54589945473E+03 -0.46467625428E+03  0.72504640341E+03  0.90892361988E+02 0.  0.
         11    1    3    3    0    0  0.12845532545E+02  0.20789758758E+03 -0.20977813140E+03  0.29562354277E+03  0.00000000000E+00 0.  1.
        -11    1    3    3    0    0 -0.72011651808E+02  0.33800186715E+03 -0.25489812288E+03  0.42942286064E+03  0.00000000000E+00 0. -1.
         22    1    1    2    0    0  0.59166119263E+02 -0.54589945473E+03  0.23539909726E+04  0.24171843834E+04  0.00000000000E+00 0. -1.
<mgrwt>
<rscale>  0 0.25107975E+04</rscale>
<asrwt>0</asrwt>
<pdfrwt beam="1">  1        1 0.38704196E+00 0.25107975E+04</pdfrwt>
<pdfrwt beam="2">  1       -1 0.96378161E-01 0.25107975E+04</pdfrwt>
<totfact> 0.12149283E+00</totfact>
</mgrwt>
</event>
<event>
 6    1  0.8968082E-007  0.1203552E+04  0.7818608E-02  0.9109753E-01
          1   -1    0    0  501    0  0.00000000000E+00  0.00000000000E+00  0.40900969205E+03  0.40900969205E+03  0.00000000000E+00 0. -1.
         -1   -1    0    0    0  501 -0.00000000000E+00 -0.00000000000E+00 -0.88539328097E+03  0.88539328097E+03  0.00000000000E+00 0.  1.
         23    2    1    2    0    0  0.38650475216E+03  0.29393397688E+03  0.13585790587E+03  0.51297942963E+03  0.94379120728E+02 0.  0.
         11    1    3    3    0    0  0.21185251443E+03  0.18947579649E+03  0.12107571877E+03  0.30893671683E+03  0.00000000000E+00 0.  1.
        -11    1    3    3    0    0  0.17465223772E+03  0.10445818039E+03  0.14782187103E+02  0.20404271280E+03  0.00000000000E+00 0. -1.
         22    1    1    2    0    0 -0.38650475216E+03 -0.29393397688E+03 -0.61224149480E+03  0.78142354339E+03  0.00000000000E+00 0.  1.
<mgrwt>
<rscale>  0 0.12035521E+04</rscale>
<asrwt>0</asrwt>
<pdfrwt beam="1">  1        1 0.62924567E-01 0.12035521E+04</pdfrwt>
<pdfrwt beam="2">  1       -1 0.13621435E+00 0.12035521E+04</pdfrwt>
<totfact> 0.25944455E+01</totfact>
</mgrwt>
</event>
<event>
 6    1  0.8968082E-007  0.1962647E+04  0.7818608E-02  0.8624286E-01
         -1   -1    0    0    0  501 -0.00000000000E+00  0.00000000000E+00  0.69644027815E+03  0.69644027815E+03  0.00000000000E+00 0.  1.
          1   -1    0    0  501    0  0.00000000000E+00 -0.00000000000E+00 -0.13827403134E+04  0.13827403134E+04  0.00000000000E+00 0. -1.
         23    2    1    2    0    0 -0.92912478184E+02  0.64897113129E+03  0.42664031385E+03  0.78750242788E+03  0.91333776153E+02 0.  0.
         13    1    3    3    0    0 -0.29576913235E+02  0.27857587923E+03  0.23515306064E+03  0.36575439330E+03  0.00000000000E+00 0.  1.
        -13    1    3    3    0    0 -0.63335564949E+02  0.37039525206E+03  0.19148725321E+03  0.42174803459E+03  0.00000000000E+00 0. -1.
         22    1    1    2    0    0  0.92912478184E+02 -0.64897113129E+03 -0.11129403491E+04  0.12916781637E+04  0.00000000000E+00 0. -1.
<mgrwt>
<rscale>  0 0.19626472E+04</rscale>
<asrwt>0</asrwt>
<pdfrwt beam="1">  1        1 0.21272928E+00 0.19626472E+04</pdfrwt>
<pdfrwt beam="2">  1       -1 0.10714466E+00 0.19626472E+04</pdfrwt>
<totfact> 0.59706375E+00</totfact>
</mgrwt>
</event>
<event>
 6    1  0.8968082E-007  0.2513245E+04  0.7818608E-02  0.8398282E-01
          1   -1    0    0  501    0  0.00000000000E+00  0.00000000000E+00  0.11703447439E+04  0.11703447439E+04  0.00000000000E+00 0. -1.
         -1   -1    0    0    0  501 -0.00000000000E+00 -0.00000000000E+00 -0.13492610590E+04  0.13492610590E+04  0.00000000000E+00 0.  1.
         23    2    1    2    0    0  0.11062591707E+04  0.55388485118E+03  0.12157148697E+03  0.12464637446E+04  0.91073921451E+02 0.  0.
         11    1    3    3    0    0  0.82035414590E+03  0.36719115222E+03  0.99841794326E+02  0.90431114715E+03  0.00000000000E+00 0. -1.
        -11    1    3    3    0    0  0.28590502479E+03  0.18669369895E+03  0.21729692649E+02  0.34215259750E+03  0.00000000000E+00 0.  1.
         22    1    1    2    0    0 -0.11062591707E+04 -0.55388485118E+03 -0.30048780209E+03  0.12731420582E+04  0.00000000000E+00 0. -1.
<mgrwt>
<rscale>  0 0.25132454E+04</rscale>
<asrwt>0</asrwt>
<pdfrwt beam="1">  1        1 0.18005304E+00 0.25132454E+04</pdfrwt>
<pdfrwt beam="2">  1       -1 0.20757862E+00 0.25132454E+04</pdfrwt>
<totfact> 0.13313533E+00</totfact>
</mgrwt>
</event>
<event>
 6    1  0.8968082E-007  0.9286475E+03  0.7818608E-02  0.9390463E-01
         -2   -1    0    0    0  501 -0.00000000000E+00  0.00000000000E+00  0.19889039246E+03  0.19889039246E+03  0.00000000000E+00 0.  1.
          2   -1    0    0  501    0  0.00000000000E+00 -0.00000000000E+00 -0.10839967496E+04  0.10839967496E+04  0.00000000000E+00 0. -1.
         23    2    1    2    0    0  0.14582205783E+03 -0.43639320463E+03 -0.47135120298E+03  0.66410088720E+03  0.84586820609E+02 0.  0.
         13    1    3    3    0    0  0.12254113368E+03 -0.27665144037E+03 -0.26584277315E+03  0.40277131097E+03  0.00000000000E+00 0. -1.
        -13    1    3    3    0    0  0.23280924150E+02 -0.15974176426E+03 -0.20550842983E+03  0.26132957623E+03  0.00000000000E+00 0.  1.
         22    1    1    2    0    0 -0.14582205783E+03  0.43639320463E+03 -0.41375515415E+03  0.61878625484E+03  0.00000000000E+00 0.  1.
<mgrwt>
<rscale>  0 0.92864749E+03</rscale>
<asrwt>0</asrwt>
<pdfrwt beam="1">  1        2 0.16676873E+00 0.92864749E+03</pdfrwt>
<pdfrwt beam="2">  1       -2 0.30598523E-01 0.92864749E+03</pdfrwt>
<totfact> 0.22028054E+02</totfact>
</mgrwt>
</event>
<event>
 6    1  0.8968082E-007  0.5232777E+04  0.7818608E-02  0.7793569E-01
         -2   -1    0    0    0  501 -0.00000000000E+00  0.00000000000E+00  0.23304525659E+04  0.23304525659E+04  0.00000000000E+00 0.  1.
          2   -1    0    0  501    0  0.00000000000E+00 -0.00000000000E+00 -0.29374069772E+04  0.29374069772E+04  0.00000000000E+00 0. -1.
         23    2    1    2    0    0 -0.18470640749E+03  0.15093184857E+04  0.18387005068E+04  0.23880354638E+04  0.98666479957E+02 0.  0.
         13    1    3    3    0    0 -0.15327596582E+03  0.11565031116E+04  0.13457541097E+04  0.17810241696E+04  0.00000000000E+00 0.  1.
        -13    1    3    3    0    0 -0.31430441667E+02  0.35281537414E+03  0.49294639713E+03  0.60701129424E+03  0.00000000000E+00 0. -1.
         22    1    1    2    0    0  0.18470640749E+03 -0.15093184857E+04 -0.24456549182E+04  0.28798240792E+04  0.00000000000E+00 0. -1.
<mgrwt>
<rscale>  0 0.52327766E+04</rscale>
<asrwt>0</asrwt>
<pdfrwt beam="1">  1        2 0.45190876E+00 0.52327766E+04</pdfrwt>
<pdfrwt beam="2">  1       -2 0.35853116E+00 0.52327766E+04</pdfrwt>
<totfact> 0.18703032E-02</totfact>
</mgrwt>
</event>
<event>
 6    1  0.8968082E-007  0.2470349E+04  0.7818608E-02  0.8413625E-01
          2   -1    0    0  501    0  0.00000000000E+00  0.00000000000E+00  0.17942151215E+04  0.17942151215E+04  0.00000000000E+00 0. -1.
         -2   -1    0    0    0  501 -0.00000000000E+00 -0.00000000000E+00 -0.85031970439E+03  0.85031970439E+03  0.00000000000E+00 0.  1.
         23    2    1    2    0    0 -0.82356903796E+03  0.27897607437E+01 -0.51127234390E+03  0.97247413449E+03  0.77671034167E+02 0.  0.
         13    1    3    3    0    0 -0.28294233209E+03  0.16977039862E+02 -0.13730452193E+03  0.31495573485E+03  0.00000000000E+00 0. -1.
        -13    1    3    3    0    0 -0.54062670587E+03 -0.14187279119E+02 -0.37396782197E+03  0.65751839964E+03  0.00000000000E+00 0.  1.
         22    1    1    2    0    0  0.82356903796E+03 -0.27897607437E+01  0.14551677610E+04  0.16720606914E+04  0.00000000000E+00 0. -1.
<mgrwt>
<rscale>  0 0.24703493E+04</rscale>
<asrwt>0</asrwt>
<pdfrwt beam="1">  1        2 0.27603310E+00 0.24703493E+04</pdfrwt>
<pdfrwt beam="2">  1       -2 0.13081842E+00 0.24703493E+04</pdfrwt>
<totfact> 0.33224051E+00</totfact>
</mgrwt>
</event>
<event>
 6    1  0.8968082E-007  0.2862082E+04  0.7818608E-02  0.8284249E-01
          2   -1    0    0  501    0  0.00000000000E+00  0.00000000000E+00  0.23849781902E+04  0.23849781902E+04  0.00000000000E+00 0. -1.
         -2   -1    0    0    0  501 -0.00000000000E+00 -0.00000000000E+00 -0.85865722250E+03  0.85865722250E+03  0.00000000000E+00 0.  1.
         23    2    1    2    0    0  0.77828855892E+03  0.91902481596E+02 -0.59115874782E+03  0.98578256259E+03  0.90107982503E+02 0.  0.
         11    1    3    3    0    0  0.24861867465E+03  0.16468966274E+02 -0.13913655455E+03  0.28537948953E+03  0.00000000000E+00 0.  1.
        -11    1    3    3    0    0  0.52966988427E+03  0.75433515322E+02 -0.45202219327E+03  0.70040307306E+03  0.00000000000E+00 0. -1.
         22    1    1    2    0    0 -0.77828855892E+03 -0.91902481596E+02  0.21174797156E+04  0.22578528501E+04  0.00000000000E+00 0. -1.
<mgrwt>
<rscale>  0 0.28620823E+04</rscale>
<asrwt>0</asrwt>
<pdfrwt beam="1">  1        2 0.36691972E+00 0.28620823E+04</pdfrwt>
<pdfrwt beam="2">  1       -2 0.13210111E+00 0.28620823E+04</pdfrwt>
<totfact> 0.14636364E+00</totfact>
</mgrwt>
</event>
<event>
 6    1  0.8968082E-007  0.1839670E+04  0.7818608E-02  0.8685483E-01
          2   -1    0    0  501    0  0.00000000000E+00  0.00000000000E+00  0.35193502049E+04  0.35193502049E+04  0.00000000000E+00 0. -1.
         -2   -1    0    0    0  501 -0.00000000000E+00 -0.00000000000E+00 -0.24041272670E+03  0.24041272670E+03  0.00000000000E+00 0.  1.
         23    2    1    2    0    0 -0.46879780493E+03 -0.67188844265E+02  0.32497392186E+04  0.32852755650E+04  0.89133755175E+02 0.  0.
         13    1    3    3    0    0 -0.28214933279E+03 -0.82511415092E+02  0.20679250287E+04  0.20887149887E+04  0.00000000000E+00 0.  1.
        -13    1    3    3    0    0 -0.18664847214E+03  0.15322570827E+02  0.11818141899E+04  0.11965605763E+04  0.00000000000E+00 0. -1.
         22    1    1    2    0    0  0.46879780493E+03  0.67188844265E+02  0.29198259597E+02  0.47448736660E+03  0.00000000000E+00 0.  1.
<mgrwt>
<rscale>  0 0.18396702E+04</rscale>
<asrwt>0</asrwt>
<pdfrwt beam="1">  1        2 0.54143846E+00 0.18396702E+04</pdfrwt>
<pdfrwt beam="2">  1       -2 0.36986576E-01 0.18396702E+04</pdfrwt>
<totfact> 0.51480287E+00</totfact>
</mgrwt>
</event>
<event>
 6    1  0.8968082E-007  0.1187125E+04  0.7818608E-02  0.9124201E-01
         -1   -1    0    0    0  501 -0.00000000000E+00  0.00000000000E+00  0.18844905669E+04  0.18844905669E+04  0.00000000000E+00 0.  1.
          1   -1    0    0  501    0  0.00000000000E+00 -0.00000000000E+00 -0.18695576395E+03  0.18695576395E+03  0.00000000000E+00 0. -1.
         23    2    1    2    0    0  0.10572768425E+03 -0.40179954916E+03  0.12233633268E+03  0.44237560138E+03  0.90048728336E+02 0.  0.
         13    1    3    3    0    0 -0.84218855218E+01 -0.18874190612E+02 -0.78750361809E+01  0.22117400883E+02  0.00000000000E+00 0. -1.
        -13    1    3    3    0    0  0.11414956977E+03 -0.38292535855E+03  0.13021136886E+03  0.42025820049E+03  0.00000000000E+00 0.  1.
         22    1    1    2    0    0 -0.10572768425E+03  0.40179954916E+03  0.15751984703E+04  0.16290707295E+04  0.00000000000E+00 0.  1.
<mgrwt>
<rscale>  0 0.11871249E+04</rscale>
<asrwt>0</asrwt>
<pdfrwt beam="1">  1        1 0.28762426E-01 0.11871249E+04</pdfrwt>
<pdfrwt beam="2">  1       -1 0.28992161E+00 0.11871249E+04</pdfrwt>
<totfact> 0.62152894E+00</totfact>
</mgrwt>
</event>
<event>
 6    1  0.8968082E-007  0.2687538E+04  0.7818608E-02  0.8339060E-01
         -1   -1    0    0    0  501 -0.00000000000E+00  0.00000000000E+00  0.76612416748E+03  0.76612416748E+03  0.00000000000E+00 0.  1.
          1   -1    0    0  501    0  0.00000000000E+00 -0.00000000000E+00 -0.23569486243E+04  0.23569486243E+04  0.00000000000E+00 0. -1.
         23    2    1    2    0    0  0.49977565547E+02 -0.11425386616E+04 -0.16128514103E+04  0.19792294734E+04  0.90373038486E+02 0.  0.
         11    1    3    3    0    0  0.63580491239E+02 -0.11030778156E+04 -0.15649178410E+04  0.19156698555E+04  0.00000000000E+00 0.  1.
        -11    1    3    3    0    0 -0.13602925692E+02 -0.39460846013E+02 -0.47933569262E+02  0.63559617822E+02  0.00000000000E+00 0. -1.
         22    1    1    2    0    0 -0.49977565547E+02  0.11425386616E+04  0.22026953478E+02  0.11438433184E+04  0.00000000000E+00 0.  1.
<mgrwt>
<rscale>  0 0.26875381E+04</rscale>
<asrwt>0</asrwt>
<pdfrwt beam="1">  1        1 0.36260748E+00 0.26875381E+04</pdfrwt>
<pdfrwt beam="2">  1       -1 0.11786526E+00 0.26875381E+04</pdfrwt>
<totfact> 0.96132914E-01</totfact>
</mgrwt>
</event>
<event>
 6    1  0.8968082E-007  0.2501487E+04  0.7818608E-02  0.8402456E-01
          3   -1    0    0  501    0  0.00000000000E+00  0.00000000000E+00  0.11384429801E+04  0.11384429801E+04  0.00000000000E+00 0. -1.
         -3   -1    0    0    0  501 -0.00000000000E+00 -0.00000000000E+00 -0.13741216731E+04  0.13741216731E+04  0.00000000000E+00 0.  1.
         23    2    1    2    0    0 -0.13869113109E+03 -0.77691958162E+03 -0.10905527018E+04  0.13491004995E+04  0.89037612287E+02 0.  0.
         13    1    3    3    0    0 -0.37987017902E+02 -0.44319997167E+03 -0.58123160983E+03  0.73191489442E+03  0.00000000000E+00 0. -1.
        -13    1    3    3    0    0 -0.10070411319E+03 -0.33371960996E+03 -0.50932109194E+03  0.61718560512E+03  0.00000000000E+00 0.  1.
         22    1    1    2    0    0  0.13869113109E+03  0.77691958162E+03  0.85487400873E+03  0.11634641537E+04  0.00000000000E+00 0. -1.
<mgrwt>
<rscale>  0 0.25014869E+04</rscale>
<asrwt>0</asrwt>
<pdfrwt beam="1">  1        3 0.17514507E+00 0.25014869E+04</pdfrwt>
<pdfrwt beam="2">  1       -3 0.21140333E+00 0.25014869E+04</pdfrwt>
<totfact> 0.61793432E-02</totfact>
</mgrwt>
</event>
<event>
 6    1  0.8968082E-007  0.1467002E+04  0.7818608E-02  0.8906698E-01
          1   -1    0    0  501    0  0.00000000000E+00  0.00000000000E+00  0.51519831609E+03  0.51519831609E+03  0.00000000000E+00 0. -1.
         -1   -1    0    0    0  501 -0.00000000000E+00 -0.00000000000E+00 -0.10443036032E+04  0.10443036032E+04  0.00000000000E+00 0.  1.
         23    2    1    2    0    0  0.69064011995E+03 -0.22590279522E+03 -0.18401555180E+03  0.75507493467E+03  0.90887763189E+02 0.  0.
         13    1    3    3    0    0  0.43631214454E+03 -0.17665648775E+03 -0.88441374799E+02  0.47895477753E+03  0.00000000000E+00 0.  1.
        -13    1    3    3    0    0  0.25432797540E+03 -0.49246307474E+02 -0.95574177004E+02  0.27612015715E+03  0.00000000000E+00 0. -1.
         22    1    1    2    0    0 -0.69064011995E+03  0.22590279522E+03 -0.34508973530E+03  0.80442698461E+03  0.00000000000E+00 0. -1.
<mgrwt>
<rscale>  0 0.14670016E+04</rscale>
<asrwt>0</asrwt>
<pdfrwt beam="1">  1        1 0.79261281E-01 0.14670016E+04</pdfrwt>
<pdfrwt beam="2">  1       -1 0.16066209E+00 0.14670016E+04</pdfrwt>
<totfact> 0.11912978E+01</totfact>
</mgrwt>
</event>
<event>
 6    1  0.8968082E-007  0.1444279E+04  0.7818608E-02  0.8922376E-01
         -3   -1    0    0    0  501 -0.00000000000E+00  0.00000000000E+00  0.22020497357E+03  0.22020497357E+03  0.00000000000E+00 0.  1.
          3   -1    0    0  501    0  0.00000000000E+00 -0.00000000000E+00 -0.23681815743E+04  0.23681815743E+04  0.00000000000E+00 0. -1.
         23    2    1    2    0    0  0.44648781866E+03  0.23228426075E+03 -0.15781546057E+03  0.53557172090E+03  0.92865486776E+02 0.  0.
         11    1    3    3    0    0  0.14052973703E+03  0.34376164807E+02 -0.20256863943E+02  0.14608445582E+03  0.00000000000E+00 0. -1.
        -11    1    3    3    0    0  0.30595808163E+03  0.19790809594E+03 -0.13755859663E+03  0.38948726508E+03  0.00000000000E+00 0.  1.
         22    1    1    2    0    0 -0.44648781866E+03 -0.23228426075E+03 -0.19901611402E+04  0.20528148270E+04  0.00000000000E+00 0. -1.
<mgrwt>
<rscale>  0 0.14442789E+04</rscale>
<asrwt>0</asrwt>
<pdfrwt beam="1">  1        3 0.36433563E+00 0.14442789E+04</pdfrwt>
<pdfrwt beam="2">  1       -3 0.33877688E-01 0.14442789E+04</pdfrwt>
<totfact> 0.38079802E-01</totfact>
</mgrwt>
</event>
<event>
 6    1  0.8968082E-007  0.8765169E+03  0.7818608E-02  0.9455422E-01
         -2   -1    0    0    0  501 -0.00000000000E+00  0.00000000000E+00  0.86080739978E+02  0.86080739978E+02  0.00000000000E+00 0.  1.
          2   -1    0    0  501    0  0.00000000000E+00 -0.00000000000E+00 -0.22312826494E+04  0.22312826494E+04  0.00000000000E+00 0. -1.
         23    2    1    2    0    0 -0.17809222542E+03  0.20281340526E+03 -0.19821468923E+04  0.20020269711E+04  0.79721841673E+02 0.  0.
         13    1    3    3    0    0  0.46283089974E+01 -0.22210625260E+01 -0.78932761640E+02  0.79099527325E+02  0.00000000000E+00 0.  1.
        -13    1    3    3    0    0 -0.18272053442E+03  0.20503446779E+03 -0.19032141307E+04  0.19229274438E+04  0.00000000000E+00 0. -1.
         22    1    1    2    0    0  0.17809222542E+03 -0.20281340526E+03 -0.16305501710E+03  0.31533641831E+03  0.00000000000E+00 0.  1.
<mgrwt>
<rscale>  0 0.87651688E+03</rscale>
<asrwt>0</asrwt>
<pdfrwt beam="1">  1        2 0.34327423E+00 0.87651688E+03</pdfrwt>
<pdfrwt beam="2">  1       -2 0.13243192E-01 0.87651688E+03</pdfrwt>
<totfact> 0.21820610E+02</totfact>
</mgrwt>
</event>
<event>
 6    1  0.8968082E-007  0.5835151E+03  0.7818608E-02  0.9940210E-01
          3   -1    0    0  501    0  0.00000000000E+00  0.00000000000E+00  0.10834645992E+03  0.10834645992E+03  0.00000000000E+00 0. -1.
         -3   -1    0    0    0  501 -0.00000000000E+00 -0.00000000000E+00 -0.78565054753E+03  0.78565054753E+03  0.00000000000E+00 0.  1.
         23    2    1    2    0    0 -0.17341142992E+03 -0.12870708350E+03 -0.63070686873E+02  0.24290584029E+03  0.91587653826E+02 0.  0.
         11    1    3    3    0    0  0.10359942260E+02 -0.11683618330E+02 -0.10400404914E+02  0.18761763331E+02  0.00000000000E+00 0. -1.
        -11    1    3    3    0    0 -0.18377137218E+03 -0.11702346517E+03 -0.52670281959E+02  0.22414407696E+03  0.00000000000E+00 0.  1.
         22    1    1    2    0    0  0.17341142992E+03  0.12870708350E+03 -0.61423340074E+03  0.65109116716E+03  0.00000000000E+00 0.  1.
<mgrwt>
<rscale>  0 0.58351506E+03</rscale>
<asrwt>0</asrwt>
<pdfrwt beam="1">  1        3 0.16668686E-01 0.58351506E+03</pdfrwt>
<pdfrwt beam="2">  1       -3 0.12086932E+00 0.58351506E+03</pdfrwt>
<totfact> 0.46463865E+01</totfact>
</mgrwt>
</event>
<event>
 6    1  0.8968082E-007  0.2730180E+04  0.7818608E-02  0.8325279E-01
         -2   -1    0    0    0  501 -0.00000000000E+00  0.00000000000E+00  0.73422692212E+03  0.73422692212E+03  0.00000000000E+00 0.  1.
          2   -1    0    0  501    0  0.00000000000E+00 -0.00000000000E+00 -0.25380031534E+04  0.25380031534E+04  0.00000000000E+00 0. -1.
         23    2    1    2    0    0 -0.61267570398E+03 -0.44481222485E+03 -0.22622198509E+04  0.23871312188E+04  0.86760408440E+02 0.  0.
         11    1    3    3    0    0 -0.32087763183E+03 -0.27371764735E+03 -0.13417153863E+04  0.14064437362E+04  0.00000000000E+00 0. -1.
        -11    1    3    3    0    0 -0.29179807215E+03 -0.17109457751E+03 -0.92050446456E+03  0.98068748265E+03  0.00000000000E+00 0.  1.
         22    1    1    2    0    0  0.61267570398E+03  0.44481222485E+03  0.45844361967E+03  0.88509885665E+03  0.00000000000E+00 0.  1.
<mgrwt>
<rscale>  0 0.27301797E+04</rscale>
<asrwt>0</asrwt>
<pdfrwt beam="1">  1        2 0.39046203E+00 0.27301797E+04</pdfrwt>
<pdfrwt beam="2">  1       -2 0.11295799E+00 0.27301797E+04</pdfrwt>
<totfact> 0.17830402E+00</totfact>
</mgrwt>
</event>
<event>
 6    1  0.8968082E-007  0.1258787E+04  0.7818608E-02  0.9062901E-01
         -2   -1    0    0    0  501 -0.00000000000E+00  0.00000000000E+00  0.10360792215E+03  0.10360792215E+03  0.00000000000E+00 0.  1.
          2   -1    0    0  501    0  0.00000000000E+00 -0.00000000000E+00 -0.38234189100E+04  0.38234189100E+04  0.00000000000E+00 0. -1.
         23    2    1    2    0    0  0.13571567395E+02 -0.55887425129E+03 -0.99053852632E+03  0.11410884291E+04  0.91605757145E+02 0.  0.
         11    1    3    3    0    0 -0.24279915373E+02 -0.30394567521E+03 -0.60248317906E+03  0.67524696876E+03  0.00000000000E+00 0. -1.
        -11    1    3    3    0    0  0.37851482768E+02 -0.25492857608E+03 -0.38805534726E+03  0.46584146036E+03  0.00000000000E+00 0.  1.
         22    1    1    2    0    0 -0.13571567395E+02  0.55887425129E+03 -0.27292724615E+04  0.27859384030E+04  0.00000000000E+00 0. -1.
<mgrwt>
<rscale>  0 0.12587875E+04</rscale>
<asrwt>0</asrwt>
<pdfrwt beam="1">  1        2 0.58821825E+00 0.12587875E+04</pdfrwt>
<pdfrwt beam="2">  1       -2 0.15939682E-01 0.12587875E+04</pdfrwt>
<totfact> 0.15131486E+01</totfact>
</mgrwt>
</event>
<event>
 6    1  0.8968082E-007  0.1525936E+04  0.7818608E-02  0.8867387E-01
          2   -1    0    0  501    0  0.00000000000E+00  0.00000000000E+00  0.13089609202E+04  0.13089609202E+04  0.00000000000E+00 0. -1.
         -2   -1    0    0    0  501 -0.00000000000E+00 -0.00000000000E+00 -0.44471921488E+03  0.44471921488E+03  0.00000000000E+00 0.  1.
         23    2    1    2    0    0  0.23956265001E+03 -0.67986779834E+03  0.71171212262E+03  0.10168791035E+04  0.88873388692E+02 0.  0.
         13    1    3    3    0    0  0.12532720591E+03 -0.41923274168E+03  0.37724885008E+03  0.57773670051E+03  0.00000000000E+00 0.  1.
        -13    1    3    3    0    0  0.11423544410E+03 -0.26063505667E+03  0.33446327254E+03  0.43914240302E+03  0.00000000000E+00 0. -1.
         22    1    1    2    0    0 -0.23956265001E+03  0.67986779834E+03  0.15252958272E+03  0.73680103156E+03  0.00000000000E+00 0.  1.
<mgrwt>
<rscale>  0 0.15259359E+04</rscale>
<asrwt>0</asrwt>
<pdfrwt beam="1">  1        2 0.20137860E+00 0.15259359E+04</pdfrwt>
<pdfrwt beam="2">  1       -2 0.68418341E-01 0.15259359E+04</pdfrwt>
<totfact> 0.30776171E+01</totfact>
</mgrwt>
</event>
<event>
 6    1  0.8968082E-007  0.4710894E+03  0.7818608E-02  0.1021613E+00
         -2   -1    0    0    0  501 -0.00000000000E+00  0.00000000000E+00  0.25699316552E+03  0.25699316552E+03  0.00000000000E+00 0.  1.
          2   -1    0    0  501    0  0.00000000000E+00 -0.00000000000E+00 -0.21588630839E+03  0.21588630839E+03  0.00000000000E+00 0. -1.
         23    2    1    2    0    0 -0.20778287150E+03 -0.60830033242E+02 -0.47991792340E+02  0.23875859920E+03  0.88478482841E+02 0.  0.
         11    1    3    3    0    0 -0.12909123111E+03 -0.11538547275E+02 -0.63979521115E+02  0.14453741088E+03  0.00000000000E+00 0. -1.
        -11    1    3    3    0    0 -0.78691640394E+02 -0.49291485966E+02  0.15987728775E+02  0.94221188318E+02  0.00000000000E+00 0.  1.
         22    1    1    2    0    0  0.20778287150E+03  0.60830033242E+02  0.89098649469E+02  0.23412087470E+03  0.00000000000E+00 0. -1.
<mgrwt>
<rscale>  0 0.47108940E+03</rscale>
<asrwt>0</asrwt>
<pdfrwt beam="1">  1        2 0.33213278E-01 0.47108940E+03</pdfrwt>
<pdfrwt beam="2">  1       -2 0.39537410E-01 0.47108940E+03</pdfrwt>
<totfact> 0.96131556E+02</totfact>
</mgrwt>
</event>
<event>
 6    1  0.8968082E-007  0.1975667E+04  0.7818608E-02  0.8618082E-01
          1   -1    0    0  501    0  0.00000000000E+00  0.00000000000E+00  0.96999408855E+03  0.96999408855E+03  0.00000000000E+00 0. -1.
         -1   -1    0    0    0  501 -0.00000000000E+00 -0.00000000000E+00 -0.10060012199E+04  0.10060012199E+04  0.00000000000E+00 0.  1.
         23    2    1    2    0    0  0.22801344814E+03  0.11556450956E+03 -0.97023934675E+03  0.10074215526E+04  0.90490365610E+02 0.  0.
         13    1    3    3    0    0  0.52564354458E+02 -0.44583558035E+01 -0.12134047935E+03  0.13231175392E+03  0.00000000000E+00 0.  1.
        -13    1    3    3    0    0  0.17544909368E+03  0.12002286536E+03 -0.84889886740E+03  0.87510979869E+03  0.00000000000E+00 0. -1.
         22    1    1    2    0    0 -0.22801344814E+03 -0.11556450956E+03  0.93423221536E+03  0.96857375590E+03  0.00000000000E+00 0. -1.
<mgrwt>
<rscale>  0 0.19756672E+04</rscale>
<asrwt>0</asrwt>
<pdfrwt beam="1">  1        1 0.14922986E+00 0.19756672E+04</pdfrwt>
<pdfrwt beam="2">  1       -1 0.15476942E+00 0.19756672E+04</pdfrwt>
<totfact> 0.47595504E+00</totfact>
</mgrwt>
</event>
<event>
 6    1  0.8968082E-007  0.1861139E+04  0.7818608E-02  0.8674445E-01
          2   -1    0    0  501    0  0.00000000000E+00  0.00000000000E+00  0.10688259305E+04  0.10688259305E+04  0.00000000000E+00 0. -1.
         -2   -1    0    0    0  501 -0.00000000000E+00 -0.00000000000E+00 -0.81019726561E+03  0.81019726561E+03  0.00000000000E+00 0.  1.
         23    2    1    2    0    0  0.76914467806E+03  0.37664320878E+03 -0.23192839150E+03  0.89206328404E+03  0.92425545368E+02 0.  0.
         13    1    3    3    0    0  0.39525838403E+03  0.23907626554E+03 -0.10247999927E+03  0.47316889283E+03  0.00000000000E+00 0.  1.
        -13    1    3    3    0    0  0.37388629403E+03  0.13756694324E+03 -0.12944839223E+03  0.41889439121E+03  0.00000000000E+00 0. -1.
         22    1    1    2    0    0 -0.76914467806E+03 -0.37664320878E+03  0.49055705643E+03  0.98695991212E+03  0.00000000000E+00 0.  1.
<mgrwt>
<rscale>  0 0.18611393E+04</rscale>
<asrwt>0</asrwt>
<pdfrwt beam="1">  1        2 0.16443476E+00 0.18611393E+04</pdfrwt>
<pdfrwt beam="2">  1       -2 0.12464573E+00 0.18611393E+04</pdfrwt>
<totfact> 0.10335856E+01</totfact>
</mgrwt>
</event>
<event>
 6    1  0.8968082E-007  0.1812991E+04  0.7818608E-02  0.8699422E-01
          2   -1    0    0  501    0  0.00000000000E+00  0.00000000000E+00  0.32200212002E+04  0.32200212002E+04  0.00000000000E+00 0. -1.
         -2   -1    0    0    0  501 -0.00000000000E+00 -0.00000000000E+00 -0.25519516393E+03  0.25519516393E+03  0.00000000000E+00 0.  1.
         23    2    1    2    0    0 -0.98698614951E+02  0.11114045604E+03  0.31957647227E+04  0.32005778846E+04  0.93236337716E+02 0.  0.
         11    1    3    3    0    0 -0.19661700289E+02  0.87984714605E+02  0.19594747696E+04  0.19615476708E+04  0.00000000000E+00 0. -1.
        -11    1    3    3    0    0 -0.79036914662E+02  0.23155741437E+02  0.12362899532E+04  0.12390302137E+04  0.00000000000E+00 0.  1.
         22    1    1    2    0    0  0.98698614951E+02 -0.11114045604E+03 -0.23093868644E+03  0.27463847956E+03  0.00000000000E+00 0.  1.
<mgrwt>
<rscale>  0 0.18129907E+04</rscale>
<asrwt>0</asrwt>
<pdfrwt beam="1">  1        2 0.49538785E+00 0.18129907E+04</pdfrwt>
<pdfrwt beam="2">  1       -2 0.39260797E-01 0.18129907E+04</pdfrwt>
<totfact> 0.73184262E+00</totfact>
</mgrwt>
</event>
<event>
 6    1  0.8968082E-007  0.2186596E+04  0.7818608E-02  0.8524028E-01
         -2   -1    0    0    0  501 -0.00000000000E+00  0.00000000000E+00  0.50362920464E+03  0.50362920464E+03  0.00000000000E+00 0.  1.
          2   -1    0    0  501    0  0.00000000000E+00 -0.00000000000E+00 -0.23733745061E+04  0.23733745061E+04  0.00000000000E+00 0. -1.
         23    2    1    2    0    0  0.25015470721E+03 -0.60347312930E+03 -0.20868220602E+04  0.21886146387E+04  0.91926767497E+02 0.  0.
         11    1    3    3    0    0  0.82648616239E+02 -0.23303456084E+03 -0.93537466517E+03  0.96750279822E+03  0.00000000000E+00 0.  1.
        -11    1    3    3    0    0  0.16750609097E+03 -0.37043856846E+03 -0.11514473950E+04  0.12211118405E+04  0.00000000000E+00 0. -1.
         22    1    1    2    0    0 -0.25015470721E+03  0.60347312930E+03  0.21707675871E+03  0.68838907204E+03  0.00000000000E+00 0.  1.
<mgrwt>
<rscale>  0 0.21865962E+04</rscale>
<asrwt>0</asrwt>
<pdfrwt beam="1">  1        2 0.36513454E+00 0.21865962E+04</pdfrwt>
<pdfrwt beam="2">  1       -2 0.77481416E-01 0.21865962E+04</pdfrwt>
<totfact> 0.55955242E+00</totfact>
</mgrwt>
</event>
<event>
 6    1  0.8968082E-007  0.3119897E+04  0.7818608E-02  0.8210299E-01
          2   -1    0    0  501    0  0.00000000000E+00  0.00000000000E+00  0.21282152309E+04  0.21282152309E+04  0.00000000000E+00 0. -1.
         -2   -1    0    0    0  501 -0.00000000000E+00 -0.00000000000E+00 -0.11434176166E+04  0.11434176166E+04  0.00000000000E+00 0.  1.
         23    2    1    2    0    0  0.47752906194E+03 -0.36046438328E+03 -0.10164298132E+04  0.11828820741E+04  0.90065861767E+02 0.  0.
         11    1    3    3    0    0  0.10764919329E+03 -0.10553386155E+03 -0.19313156150E+03  0.24500111182E+03  0.00000000000E+00 0. -1.
        -11    1    3    3    0    0  0.36987986866E+03 -0.25493052173E+03 -0.82329825169E+03  0.93788096227E+03  0.00000000000E+00 0.  1.
         22    1    1    2    0    0 -0.47752906194E+03  0.36046438328E+03  0.20012274275E+04  0.20887507734E+04  0.00000000000E+00 0. -1.
<mgrwt>
<rscale>  0 0.31198967E+04</rscale>
<asrwt>0</asrwt>
<pdfrwt beam="1">  1        2 0.32741773E+00 0.31198967E+04</pdfrwt>
<pdfrwt beam="2">  1       -2 0.17591040E+00 0.31198967E+04</pdfrwt>
<totfact> 0.92988423E-01</totfact>
</mgrwt>
</event>
<event>
 6    1  0.8968082E-007  0.1227778E+04  0.7818608E-02  0.9088884E-01
          1   -1    0    0  501    0  0.00000000000E+00  0.00000000000E+00  0.51645052925E+03  0.51645052925E+03  0.00000000000E+00 0. -1.
         -1   -1    0    0    0  501 -0.00000000000E+00 -0.00000000000E+00 -0.72971123649E+03  0.72971123649E+03  0.00000000000E+00 0.  1.
         23    2    1    2    0    0 -0.52536192080E+03  0.61651665548E+00 -0.42256963848E+03  0.68063921392E+03  0.93269031509E+02 0.  0.
         11    1    3    3    0    0 -0.24883711771E+03  0.36570241055E+02 -0.23777564435E+03  0.34611349400E+03  0.00000000000E+00 0.  1.
        -11    1    3    3    0    0 -0.27652480309E+03 -0.35953724400E+02 -0.18479399413E+03  0.33452571992E+03  0.00000000000E+00 0. -1.
         22    1    1    2    0    0  0.52536192080E+03 -0.61651665548E+00  0.20930893123E+03  0.56552255182E+03  0.00000000000E+00 0. -1.
<mgrwt>
<rscale>  0 0.12277781E+04</rscale>
<asrwt>0</asrwt>
<pdfrwt beam="1">  1        1 0.79453928E-01 0.12277781E+04</pdfrwt>
<pdfrwt beam="2">  1       -1 0.11226327E+00 0.12277781E+04</pdfrwt>
<totfact> 0.30448860E+01</totfact>
</mgrwt>
</event>
<event>
 6    1  0.8968082E-007  0.1679234E+04  0.7818608E-02  0.8773297E-01
         -1   -1    0    0    0  501 -0.00000000000E+00  0.00000000000E+00  0.28154161094E+03  0.28154161094E+03  0.00000000000E+00 0.  1.
          1   -1    0    0  501    0  0.00000000000E+00 -0.00000000000E+00 -0.25039165581E+04  0.25039165581E+04  0.00000000000E+00 0. -1.
         23    2    1    2    0    0  0.79319013322E+03 -0.26331984773E+03 -0.10436527284E+04  0.13405104196E+04  0.96276881280E+02 0.  0.
         11    1    3    3    0    0  0.11451151817E+03 -0.17227488583E+02 -0.19020261543E+03  0.22268073350E+03  0.00000000000E+00 0.  1.
        -11    1    3    3    0    0  0.67867861506E+03 -0.24609235915E+03 -0.85345011299E+03  0.11178296861E+04  0.00000000000E+00 0. -1.
         22    1    1    2    0    0 -0.79319013322E+03  0.26331984773E+03 -0.11787222188E+04  0.14449477495E+04  0.00000000000E+00 0.  1.
<mgrwt>
<rscale>  0 0.16792340E+04</rscale>
<asrwt>0</asrwt>
<pdfrwt beam="1">  1        1 0.38521794E+00 0.16792340E+04</pdfrwt>
<pdfrwt beam="2">  1       -1 0.43314093E-01 0.16792340E+04</pdfrwt>
<totfact> 0.67599834E+00</totfact>
</mgrwt>
</event>
<event>
 6    1  0.8968082E-007  0.1567773E+04  0.7818608E-02  0.8840595E-01
         -2   -1    0    0    0  501 -0.00000000000E+00  0.00000000000E+00  0.91503327988E+03  0.91503327988E+03  0.00000000000E+00 0.  1.
          2   -1    0    0  501    0  0.00000000000E+00 -0.00000000000E+00 -0.67153605557E+03  0.67153605557E+03  0.00000000000E+00 0. -1.
         23    2    1    2    0    0 -0.63187877303E+03 -0.28237624817E+03 -0.24504263312E+03  0.73941036475E+03  0.87605171745E+02 0.  0.
         13    1    3    3    0    0 -0.36304197449E+03 -0.16747082081E+03 -0.18683544347E+03  0.44130877399E+03  0.00000000000E+00 0. -1.
        -13    1    3    3    0    0 -0.26883679854E+03 -0.11490542735E+03 -0.58207189648E+02  0.29810159076E+03  0.00000000000E+00 0.  1.
         22    1    1    2    0    0  0.63187877303E+03  0.28237624817E+03  0.48853985744E+03  0.84715897070E+03  0.00000000000E+00 0.  1.
<mgrwt>
<rscale>  0 0.15677727E+04</rscale>
<asrwt>0</asrwt>
<pdfrwt beam="1">  1        2 0.10331324E+00 0.15677727E+04</pdfrwt>
<pdfrwt beam="2">  1       -2 0.14077435E+00 0.15677727E+04</pdfrwt>
<totfact> 0.14686114E+01</totfact>
</mgrwt>
</event>
<event>
 6    1  0.8968082E-007  0.1940043E+04  0.7818608E-02  0.8635177E-01
         -2   -1    0    0    0  501 -0.00000000000E+00  0.00000000000E+00  0.31192905141E+03  0.31192905141E+03  0.00000000000E+00 0.  1.
          2   -1    0    0  501    0  0.00000000000E+00 -0.00000000000E+00 -0.30165260884E+04  0.30165260884E+04  0.00000000000E+00 0. -1.
         23    2    1    2    0    0 -0.47186155583E+03 -0.95197112428E+02 -0.27958483119E+04  0.28385137012E+04  0.93147360477E+02 0.  0.
         11    1    3    3    0    0 -0.15637965090E+03  0.12554046174E+02 -0.91166469866E+03  0.92506471237E+03  0.00000000000E+00 0.  1.
        -11    1    3    3    0    0 -0.31548190492E+03 -0.10775115860E+03 -0.18841836133E+04  0.19134489889E+04  0.00000000000E+00 0. -1.
         22    1    1    2    0    0  0.47186155583E+03  0.95197112428E+02  0.91251274899E+02  0.48994143860E+03  0.00000000000E+00 0.  1.
<mgrwt>
<rscale>  0 0.19400434E+04</rscale>
<asrwt>0</asrwt>
<pdfrwt beam="1">  1        2 0.46408092E+00 0.19400434E+04</pdfrwt>
<pdfrwt beam="2">  1       -2 0.47989087E-01 0.19400434E+04</pdfrwt>
<totfact> 0.65480186E+00</totfact>
</mgrwt>
</event>
<event>
 6    1  0.8968082E-007  0.1948335E+04  0.7818608E-02  0.8631164E-01
         -1   -1    0    0    0  501 -0.00000000000E+00  0.00000000000E+00  0.81284108341E+03  0.81284108341E+03  0.00000000000E+00 0.  1.
          1   -1    0    0  501    0  0.00000000000E+00 -0.00000000000E+00 -0.11675132347E+04  0.11675132347E+04  0.00000000000E+00 0. -1.
         23    2    1    2    0    0  0.58295215905E+03  0.52885832752E+03  0.40192173181E+03  0.88858572803E+03  0.92299334912E+02 0.  0.
         11    1    3    3    0    0  0.43796498490E+03  0.36138356656E+03  0.32409788776E+03  0.65379725530E+03  0.00000000000E+00 0.  1.
        -11    1    3    3    0    0  0.14498717414E+03  0.16747476096E+03  0.77823844053E+02  0.23478847273E+03  0.00000000000E+00 0. -1.
         22    1    1    2    0    0 -0.58295215905E+03 -0.52885832752E+03 -0.75659388308E+03  0.10917685901E+04  0.00000000000E+00 0. -1.
<mgrwt>
<rscale>  0 0.19483354E+04</rscale>
<asrwt>0</asrwt>
<pdfrwt beam="1">  1        1 0.17961742E+00 0.19483354E+04</pdfrwt>
<pdfrwt beam="2">  1       -1 0.12505247E+00 0.19483354E+04</pdfrwt>
<totfact> 0.58815870E+00</totfact>
</mgrwt>
</event>
<event>
 6    1  0.8968082E-007  0.1209728E+04  0.7818608E-02  0.9104384E-01
          1   -1    0    0  501    0  0.00000000000E+00  0.00000000000E+00  0.34708184187E+03  0.34708184187E+03  0.00000000000E+00 0. -1.
         -1   -1    0    0    0  501 -0.00000000000E+00 -0.00000000000E+00 -0.10541043845E+04  0.10541043845E+04  0.00000000000E+00 0.  1.
         23    2    1    2    0    0  0.50437884870E+03 -0.26070178359E+03 -0.12535331026E+03  0.58835011812E+03  0.89883069139E+02 0.  0.
         11    1    3    3    0    0  0.31713790181E+03 -0.16850302264E+03 -0.12307563528E+03  0.37962788281E+03  0.00000000000E+00 0. -1.
        -11    1    3    3    0    0  0.18724094689E+03 -0.92198760944E+02 -0.22776749842E+01  0.20872223532E+03  0.00000000000E+00 0.  1.
         22    1    1    2    0    0 -0.50437884870E+03  0.26070178359E+03 -0.58166923235E+03  0.81283610824E+03  0.00000000000E+00 0.  1.
<mgrwt>
<rscale>  0 0.12097281E+04</rscale>
<asrwt>0</asrwt>
<pdfrwt beam="1">  1        1 0.53397207E-01 0.12097281E+04</pdfrwt>
<pdfrwt beam="2">  1       -1 0.16216990E+00 0.12097281E+04</pdfrwt>
<totfact> 0.20154587E+01</totfact>
</mgrwt>
</event>
<event>
 6    1  0.1041447E-006  0.2410286E+04  0.7818608E-02  0.8435663E-01
         -2   -1    0    0    0  501 -0.00000000000E+00  0.00000000000E+00  0.64853934571E+03  0.64853934571E+03  0.00000000000E+00 0.  1.
          2   -1    0    0  501    0  0.00000000000E+00 -0.00000000000E+00 -0.22394469446E+04  0.22394469446E+04  0.00000000000E+00 0. -1.
         23    2    1    2    0    0  0.63247524037E+03  0.14433355359E+03 -0.20110776972E+04  0.21150697257E+04  0.90715689518E+02 0.  0.
         13    1    3    3    0    0  0.32149576332E+03  0.11448633383E+03 -0.98155257364E+03  0.10391881934E+04  0.00000000000E+00 0. -1.
        -13    1    3    3    0    0  0.31097947705E+03  0.29847219765E+02 -0.10295251235E+04  0.10758815323E+04  0.00000000000E+00 0.  1.
         22    1    1    2    0    0 -0.63247524037E+03 -0.14433355359E+03  0.42017009825E+03  0.77291656460E+03  0.00000000000E+00 0.  1.
<mgrwt>
<rscale>  0 0.24102858E+04</rscale>
<asrwt>0</asrwt>
<pdfrwt beam="1">  1        2 0.34453030E+00 0.24102858E+04</pdfrwt>
<pdfrwt beam="2">  1       -2 0.99775283E-01 0.24102858E+04</pdfrwt>
<totfact> 0.36599809E+00</totfact>
</mgrwt>
</event>
<event>
 6    1  0.8968082E-007  0.2723046E+04  0.7818608E-02  0.8327566E-01
          2   -1    0    0  501    0  0.00000000000E+00  0.00000000000E+00  0.36572333286E+04  0.36572333286E+04  0.00000000000E+00 0. -1.
         -2   -1    0    0    0  501 -0.00000000000E+00 -0.00000000000E+00 -0.50687065194E+03  0.50687065194E+03  0.00000000000E+00 0.  1.
         23    2    1    2    0    0 -0.37036038245E+03  0.83240311621E+03  0.31211144808E+04  0.32525573730E+04  0.87818573981E+02 0.  0.
         13    1    3    3    0    0 -0.66939466718E+02  0.91810999950E+02  0.44957987627E+03  0.46371566403E+03  0.00000000000E+00 0.  1.
        -13    1    3    3    0    0 -0.30342091573E+03  0.74059211626E+03  0.26715346045E+04  0.27888417090E+04  0.00000000000E+00 0. -1.
         22    1    1    2    0    0  0.37036038245E+03 -0.83240311621E+03  0.29248195911E+02  0.91154660755E+03  0.00000000000E+00 0.  1.
<mgrwt>
<rscale>  0 0.27230455E+04</rscale>
<asrwt>0</asrwt>
<pdfrwt beam="1">  1        2 0.56265127E+00 0.27230455E+04</pdfrwt>
<pdfrwt beam="2">  1       -2 0.77980102E-01 0.27230455E+04</pdfrwt>
<totfact> 0.80473600E-01</totfact>
</mgrwt>
</event>
<event>
 6    1  0.8968082E-007  0.1360568E+04  0.7818608E-02  0.8982867E-01
         -1   -1    0    0    0  501 -0.00000000000E+00  0.00000000000E+00  0.29351970632E+03  0.29351970632E+03  0.00000000000E+00 0.  1.
          1   -1    0    0  501    0  0.00000000000E+00 -0.00000000000E+00 -0.15766791204E+04  0.15766791204E+04  0.00000000000E+00 0. -1.
         23    2    1    2    0    0 -0.58159916914E+01 -0.66939510703E+03 -0.78516980893E+03  0.10358623946E+04  0.91627706931E+02 0.  0.
         11    1    3    3    0    0  0.26800270720E+02 -0.77113756408E+02 -0.78813077617E+02  0.11347372886E+03  0.00000000000E+00 0. -1.
        -11    1    3    3    0    0 -0.32616262411E+02 -0.59228135063E+03 -0.70635673132E+03  0.92238866577E+03  0.00000000000E+00 0.  1.
         22    1    1    2    0    0  0.58159916914E+01  0.66939510703E+03 -0.49798960514E+03  0.83433643209E+03  0.00000000000E+00 0.  1.
<mgrwt>
<rscale>  0 0.13605681E+04</rscale>
<asrwt>0</asrwt>
<pdfrwt beam="1">  1        1 0.24256601E+00 0.13605681E+04</pdfrwt>
<pdfrwt beam="2">  1       -1 0.45156879E-01 0.13605681E+04</pdfrwt>
<totfact> 0.27553092E+01</totfact>
</mgrwt>
</event>
<event>
 6    1  0.8968082E-007  0.1180373E+04  0.7818608E-02  0.9130211E-01
          1   -1    0    0  501    0  0.00000000000E+00  0.00000000000E+00  0.12117371664E+04  0.12117371664E+04  0.00000000000E+00 0. -1.
         -1   -1    0    0    0  501 -0.00000000000E+00 -0.00000000000E+00 -0.28745522774E+03  0.28745522774E+03  0.00000000000E+00 0.  1.
         23    2    1    2    0    0  0.34288286469E+03 -0.46560560857E+02 -0.13782832678E+03  0.38213610161E+03  0.85409646803E+02 0.  0.
         13    1    3    3    0    0  0.21132935099E+03 -0.10930231787E+02 -0.12369442089E+03  0.24511196282E+03  0.00000000000E+00 0. -1.
        -13    1    3    3    0    0  0.13155351370E+03 -0.35630329070E+02 -0.14133905886E+02  0.13702413879E+03  0.00000000000E+00 0.  1.
         22    1    1    2    0    0 -0.34288286469E+03  0.46560560857E+02  0.10621102655E+04  0.11170562925E+04  0.00000000000E+00 0. -1.
<mgrwt>
<rscale>  0 0.11803731E+04</rscale>
<asrwt>0</asrwt>
<pdfrwt beam="1">  1        1 0.18642110E+00 0.11803731E+04</pdfrwt>
<pdfrwt beam="2">  1       -1 0.44223882E-01 0.11803731E+04</pdfrwt>
<totfact> 0.52506701E+01</totfact>
</mgrwt>
</event>
<event>
 6    1  0.8968082E-007  0.2060663E+04  0.7818608E-02  0.8578772E-01
         -2   -1    0    0    0  501 -0.00000000000E+00  0.00000000000E+00  0.47763279592E+03  0.47763279592E+03  0.00000000000E+00 0.  1.
          2   -1    0    0  501    0  0.00000000000E+00 -0.00000000000E+00 -0.22225931157E+04  0.22225931157E+04  0.00000000000E+00 0. -1.
         23    2    1    2    0    0  0.47194218321E+03  0.75166575720E+03 -0.19376541619E+03  0.91306714314E+03  0.91737323552E+02 0.  0.
         11    1    3    3    0    0  0.33835719672E+03  0.52850026229E+03 -0.94175834538E+02  0.63456064141E+03  0.00000000000E+00 0. -1.
        -11    1    3    3    0    0  0.13358498649E+03  0.22316549491E+03 -0.99589581653E+02  0.27850650173E+03  0.00000000000E+00 0.  1.
         22    1    1    2    0    0 -0.47194218321E+03 -0.75166575720E+03 -0.15511949035E+04  0.17871587684E+04  0.00000000000E+00 0. -1.
<mgrwt>
<rscale>  0 0.20606634E+04</rscale>
<asrwt>0</asrwt>
<pdfrwt beam="1">  1        2 0.34193740E+00 0.20606634E+04</pdfrwt>
<pdfrwt beam="2">  1       -2 0.73481968E-01 0.20606634E+04</pdfrwt>
<totfact> 0.77457706E+00</totfact>
</mgrwt>
</event>
<event>
 6    1  0.8968082E-007  0.2546290E+04  0.7818608E-02  0.8386677E-01
         -1   -1    0    0    0  501 -0.00000000000E+00  0.00000000000E+00  0.16389033373E+04  0.16389033373E+04  0.00000000000E+00 0.  1.
          1   -1    0    0  501    0  0.00000000000E+00 -0.00000000000E+00 -0.98901427297E+03  0.98901427297E+03  0.00000000000E+00 0. -1.
         23    2    1    2    0    0 -0.22808431125E+03  0.12302310661E+04  0.91992592419E+02  0.12579762238E+04  0.92469527464E+02 0.  0.
         11    1    3    3    0    0 -0.59421992338E+02  0.31714192286E+03 -0.16745988585E+02  0.32309503330E+03  0.00000000000E+00 0.  1.
        -11    1    3    3    0    0 -0.16866231891E+03  0.91308914323E+03  0.10873858100E+03  0.93488119047E+03  0.00000000000E+00 0. -1.
         22    1    1    2    0    0  0.22808431125E+03 -0.12302310661E+04  0.55789647187E+03  0.13699413865E+04  0.00000000000E+00 0.  1.
<mgrwt>
<rscale>  0 0.25462905E+04</rscale>
<asrwt>0</asrwt>
<pdfrwt beam="1">  1        1 0.15215604E+00 0.25462905E+04</pdfrwt>
<pdfrwt beam="2">  1       -1 0.25213898E+00 0.25462905E+04</pdfrwt>
<totfact> 0.92196404E-01</totfact>
</mgrwt>
</event>
<event>
 6    1  0.8968082E-007  0.1688981E+04  0.7818608E-02  0.8767674E-01
         -2   -1    0    0    0  501 -0.00000000000E+00  0.00000000000E+00  0.73731614621E+03  0.73731614621E+03  0.00000000000E+00 0.  1.
          2   -1    0    0  501    0  0.00000000000E+00 -0.00000000000E+00 -0.96724290099E+03  0.96724290099E+03  0.00000000000E+00 0. -1.
         23    2    1    2    0    0  0.22383031366E+03 -0.66383417167E+03  0.35617486270E+03  0.79116377525E+03  0.91125022174E+02 0.  0.
         11    1    3    3    0    0  0.55836920835E+02 -0.14588407784E+03  0.12302978447E+03  0.19883725446E+03  0.00000000000E+00 0. -1.
        -11    1    3    3    0    0  0.16799339282E+03 -0.51795009383E+03  0.23314507823E+03  0.59232652080E+03  0.00000000000E+00 0.  1.
         22    1    1    2    0    0 -0.22383031366E+03  0.66383417167E+03 -0.58610161748E+03  0.91339527194E+03  0.00000000000E+00 0. -1.
<mgrwt>
<rscale>  0 0.16889805E+04</rscale>
<asrwt>0</asrwt>
<pdfrwt beam="1">  1        2 0.14880660E+00 0.16889805E+04</pdfrwt>
<pdfrwt beam="2">  1       -2 0.11343325E+00 0.16889805E+04</pdfrwt>
<totfact> 0.15361346E+01</totfact>
</mgrwt>
</event>
<event>
 6    1  0.8968082E-007  0.1433899E+04  0.7818608E-02  0.8929640E-01
         -1   -1    0    0    0  501 -0.00000000000E+00  0.00000000000E+00  0.67909751081E+03  0.67909751081E+03  0.00000000000E+00 0.  1.
          1   -1    0    0  501    0  0.00000000000E+00 -0.00000000000E+00 -0.75691118073E+03  0.75691118073E+03  0.00000000000E+00 0. -1.
         23    2    1    2    0    0 -0.34121393622E+03 -0.13837281050E+03  0.57385237395E+03  0.68751512597E+03  0.88297884429E+02 0.  0.
         11    1    3    3    0    0 -0.72811731761E+02 -0.70926240487E+01  0.17067017304E+03  0.18568834526E+03  0.00000000000E+00 0.  1.
        -11    1    3    3    0    0 -0.26840220446E+03 -0.13128018645E+03  0.40318220090E+03  0.50182678071E+03  0.00000000000E+00 0. -1.
         22    1    1    2    0    0  0.34121393622E+03  0.13837281050E+03 -0.65166604387E+03  0.74849356556E+03  0.00000000000E+00 0. -1.
<mgrwt>
<rscale>  0 0.14338989E+04</rscale>
<asrwt>0</asrwt>
<pdfrwt beam="1">  1        1 0.11644787E+00 0.14338989E+04</pdfrwt>
<pdfrwt beam="2">  1       -1 0.10447654E+00 0.14338989E+04</pdfrwt>
<totfact> 0.20231084E+01</totfact>
</mgrwt>
</event>
<event>
 6    1  0.8968082E-007  0.2041368E+04  0.7818608E-02  0.8587520E-01
         -2   -1    0    0    0  501 -0.00000000000E+00  0.00000000000E+00  0.40944695265E+03  0.40944695265E+03  0.00000000000E+00 0.  1.
          2   -1    0    0  501    0  0.00000000000E+00 -0.00000000000E+00 -0.25443983825E+04  0.25443983825E+04  0.00000000000E+00 0. -1.
         23    2    1    2    0    0 -0.41445945461E+03 -0.34469387058E+03  0.18131864856E+03  0.57567427737E+03  0.89072539988E+02 0.  0.
         13    1    3    3    0    0 -0.11167079047E+03 -0.12501968485E+03  0.91427088703E+02  0.19094292234E+03  0.00000000000E+00 0. -1.
        -13    1    3    3    0    0 -0.30278866415E+03 -0.21967418573E+03  0.89891559860E+02  0.38473135504E+03  0.00000000000E+00 0.  1.
         22    1    1    2    0    0  0.41445945461E+03  0.34469387058E+03 -0.23162700784E+04  0.23781710578E+04  0.00000000000E+00 0. -1.
<mgrwt>
<rscale>  0 0.20413683E+04</rscale>
<asrwt>0</asrwt>
<pdfrwt beam="1">  1        2 0.39144591E+00 0.20413683E+04</pdfrwt>
<pdfrwt beam="2">  1       -2 0.62991839E-01 0.20413683E+04</pdfrwt>
<totfact> 0.70964536E+00</totfact>
</mgrwt>
</event>
<event>
 6    1  0.8968082E-007  0.1521633E+04  0.7818608E-02  0.8870193E-01
         -2   -1    0    0    0  501 -0.00000000000E+00  0.00000000000E+00  0.21565319537E+03  0.21565319537E+03  0.00000000000E+00 0.  1.
          2   -1    0    0  501    0  0.00000000000E+00 -0.00000000000E+00 -0.26841324741E+04  0.26841324741E+04  0.00000000000E+00 0. -1.
         23    2    1    2    0    0 -0.73683894805E+03 -0.17617563001E+03 -0.12920810778E+04  0.15005422256E+04  0.90465304534E+02 0.  0.
         11    1    3    3    0    0 -0.27431786282E+03 -0.74295007609E+02 -0.40220656212E+03  0.49248366128E+03  0.00000000000E+00 0. -1.
        -11    1    3    3    0    0 -0.46252108523E+03 -0.10188062240E+03 -0.88987451565E+03  0.10080585643E+04  0.00000000000E+00 0.  1.
         22    1    1    2    0    0  0.73683894805E+03  0.17617563001E+03 -0.11763982010E+04  0.13992434439E+04  0.00000000000E+00 0. -1.
<mgrwt>
<rscale>  0 0.15216330E+04</rscale>
<asrwt>0</asrwt>
<pdfrwt beam="1">  1        2 0.41294345E+00 0.15216330E+04</pdfrwt>
<pdfrwt beam="2">  1       -2 0.33177415E-01 0.15216330E+04</pdfrwt>
<totfact> 0.22297636E+01</totfact>
</mgrwt>
</event>
<event>
 6    1  0.1007826E-006  0.2703457E+04  0.7818608E-02  0.8333884E-01
         -2   -1    0    0    0  501 -0.00000000000E+00  0.00000000000E+00  0.89041939674E+03  0.89041939674E+03  0.00000000000E+00 0.  1.
          2   -1    0    0  501    0  0.00000000000E+00 -0.00000000000E+00 -0.20520323659E+04  0.20520323659E+04  0.00000000000E+00 0. -1.
         23    2    1    2    0    0 -0.75961576080E+03  0.53022424615E+03  0.48814258304E+03  0.10504033390E+04  0.83127239929E+02 0.  0.
         11    1    3    3    0    0 -0.32960225507E+03  0.27500590537E+03  0.20409485126E+03  0.47531105904E+03  0.00000000000E+00 0. -1.
        -11    1    3    3    0    0 -0.43001350573E+03  0.25521834079E+03  0.28404773178E+03  0.57509228000E+03  0.00000000000E+00 0.  1.
         22    1    1    2    0    0  0.75961576080E+03 -0.53022424615E+03 -0.16497555522E+04  0.18920484236E+04  0.00000000000E+00 0. -1.
<mgrwt>
<rscale>  0 0.27034566E+04</rscale>
<asrwt>0</asrwt>
<pdfrwt beam="1">  1        2 0.31569728E+00 0.27034566E+04</pdfrwt>
<pdfrwt beam="2">  1       -2 0.13698760E+00 0.27034566E+04</pdfrwt>
<totfact> 0.20829603E+00</totfact>
</mgrwt>
</event>
<event>
 6    1  0.8968082E-007  0.2360568E+04  0.7818608E-02  0.8454416E-01
          2   -1    0    0  501    0  0.00000000000E+00  0.00000000000E+00  0.16714328330E+04  0.16714328330E+04  0.00000000000E+00 0. -1.
         -2   -1    0    0    0  501 -0.00000000000E+00 -0.00000000000E+00 -0.83345886727E+03  0.83345886727E+03  0.00000000000E+00 0.  1.
         23    2    1    2    0    0 -0.82835073653E+03 -0.10513803015E+03 -0.46289246794E+03  0.95909985582E+03  0.91564995812E+02 0.  0.
         11    1    3    3    0    0 -0.10740396717E+03 -0.21004450412E+01 -0.28599789439E+02  0.11116641574E+03  0.00000000000E+00 0. -1.
        -11    1    3    3    0    0 -0.72094676936E+03 -0.10303758511E+03 -0.43429267850E+03  0.84793344008E+03  0.00000000000E+00 0.  1.
         22    1    1    2    0    0  0.82835073653E+03  0.10513803015E+03  0.13008664337E+04  0.15457918445E+04  0.00000000000E+00 0. -1.
<mgrwt>
<rscale>  0 0.23605682E+04</rscale>
<asrwt>0</asrwt>
<pdfrwt beam="1">  1        2 0.25714351E+00 0.23605682E+04</pdfrwt>
<pdfrwt beam="2">  1       -2 0.12822444E+00 0.23605682E+04</pdfrwt>
<totfact> 0.41274859E+00</totfact>
</mgrwt>
</event>
<event>
 6    1  0.8968082E-007  0.8344781E+03  0.7818608E-02  0.9511410E-01
         -2   -1    0    0    0  501 -0.00000000000E+00  0.00000000000E+00  0.58462229447E+03  0.58462229447E+03  0.00000000000E+00 0.  1.
          2   -1    0    0  501    0  0.00000000000E+00 -0.00000000000E+00 -0.29777927882E+03  0.29777927882E+03  0.00000000000E+00 0. -1.
         23    2    1    2    0    0  0.34446706987E+03  0.23641658228E+02 -0.92107789677E+02  0.36974164402E+03  0.94913371930E+02 0.  0.
         13    1    3    3    0    0  0.10678742954E+02 -0.13940381230E+02 -0.19206557097E+02  0.26024250526E+02  0.00000000000E+00 0. -1.
        -13    1    3    3    0    0  0.33378832692E+03  0.37582039458E+02 -0.72901232580E+02  0.34371739349E+03  0.00000000000E+00 0.  1.
         22    1    1    2    0    0 -0.34446706987E+03 -0.23641658228E+02  0.37895080533E+03  0.51265992928E+03  0.00000000000E+00 0.  1.
<mgrwt>
<rscale>  0 0.83447805E+03</rscale>
<asrwt>0</asrwt>
<pdfrwt beam="1">  1        2 0.45812197E-01 0.83447805E+03</pdfrwt>
<pdfrwt beam="2">  1       -2 0.89941891E-01 0.83447805E+03</pdfrwt>
<totfact> 0.11790004E+02</totfact>
</mgrwt>
</event>
<event>
 6    1  0.8968082E-007  0.3234953E+04  0.7818608E-02  0.8179647E-01
          1   -1    0    0  501    0  0.00000000000E+00  0.00000000000E+00  0.14334504840E+04  0.14334504840E+04  0.00000000000E+00 0. -1.
         -1   -1    0    0    0  501 -0.00000000000E+00 -0.00000000000E+00 -0.18251274249E+04  0.18251274249E+04  0.00000000000E+00 0.  1.
         23    2    1    2    0    0  0.18844390552E+03  0.15545093330E+04 -0.59907129779E+03  0.16790137946E+04  0.90501551898E+02 0.  0.
         11    1    3    3    0    0  0.15463055460E+03  0.90757197288E+03 -0.34637573918E+03  0.98365321484E+03  0.00000000000E+00 0.  1.
        -11    1    3    3    0    0  0.33813350915E+02  0.64693736009E+03 -0.25269555861E+03  0.69536057978E+03  0.00000000000E+00 0. -1.
         22    1    1    2    0    0 -0.18844390552E+03 -0.15545093330E+04  0.20739435695E+03  0.15795641143E+04  0.00000000000E+00 0.  1.
<mgrwt>
<rscale>  0 0.32349527E+04</rscale>
<asrwt>0</asrwt>
<pdfrwt beam="1">  1        1 0.22053084E+00 0.32349527E+04</pdfrwt>
<pdfrwt beam="2">  1       -1 0.28078883E+00 0.32349527E+04</pdfrwt>
<totfact> 0.26705106E-01</totfact>
</mgrwt>
</event>
<event>
 6    1  0.8968082E-007  0.2744628E+04  0.7818608E-02  0.8320668E-01
          1   -1    0    0  501    0  0.00000000000E+00  0.00000000000E+00  0.30201329187E+04  0.30201329187E+04  0.00000000000E+00 0. -1.
         -1   -1    0    0    0  501 -0.00000000000E+00 -0.00000000000E+00 -0.62356373551E+03  0.62356373551E+03  0.00000000000E+00 0.  1.
         23    2    1    2    0    0  0.10187380534E+04  0.91406944189E+03  0.12998882812E+04  0.18898268852E+04  0.91574811690E+02 0.  0.
         13    1    3    3    0    0  0.29214170720E+03  0.25466645594E+03  0.42564120139E+03  0.57564938390E+03  0.00000000000E+00 0.  1.
        -13    1    3    3    0    0  0.72659634621E+03  0.65940298595E+03  0.87424707984E+03  0.13141775013E+04  0.00000000000E+00 0. -1.
         22    1    1    2    0    0 -0.10187380534E+04 -0.91406944189E+03  0.10966809020E+04  0.17538697690E+04  0.00000000000E+00 0.  1.
<mgrwt>
<rscale>  0 0.27446277E+04</rscale>
<asrwt>0</asrwt>
<pdfrwt beam="1">  1        1 0.46463583E+00 0.27446277E+04</pdfrwt>
<pdfrwt beam="2">  1       -1 0.95932884E-01 0.27446277E+04</pdfrwt>
<totfact> 0.52617944E-01</totfact>
</mgrwt>
</event>
<event>
 6    1  0.8968082E-007  0.2172062E+04  0.7818608E-02  0.8530148E-01
         -2   -1    0    0    0  501 -0.00000000000E+00  0.00000000000E+00  0.71009871918E+03  0.71009871918E+03  0.00000000000E+00 0.  1.
          2   -1    0    0  501    0  0.00000000000E+00 -0.00000000000E+00 -0.16609842557E+04  0.16609842557E+04  0.00000000000E+00 0. -1.
         23    2    1    2    0    0 -0.34051667745E+03 -0.71646527818E+03  0.33028521962E+03  0.86420786100E+03  0.92156379320E+02 0.  0.
         11    1    3    3    0    0 -0.12059490197E+03 -0.31853639135E+03  0.18076294414E+03  0.38559539023E+03  0.00000000000E+00 0.  1.
        -11    1    3    3    0    0 -0.21992177549E+03 -0.39792888683E+03  0.14952227548E+03  0.47861247077E+03  0.00000000000E+00 0. -1.
         22    1    1    2    0    0  0.34051667745E+03  0.71646527818E+03 -0.12811707561E+04  0.15068751138E+04  0.00000000000E+00 0.  1.
<mgrwt>
<rscale>  0 0.21720615E+04</rscale>
<asrwt>0</asrwt>
<pdfrwt beam="1">  1        2 0.25553603E+00 0.21720615E+04</pdfrwt>
<pdfrwt beam="2">  1       -2 0.10924596E+00 0.21720615E+04</pdfrwt>
<totfact> 0.63108310E+00</totfact>
</mgrwt>
</event>
<event>
 6    1  0.8968082E-007  0.3103758E+04  0.7818608E-02  0.8214707E-01
         -1   -1    0    0    0  501 -0.00000000000E+00  0.00000000000E+00  0.16883052135E+04  0.16883052135E+04  0.00000000000E+00 0.  1.
          1   -1    0    0  501    0  0.00000000000E+00 -0.00000000000E+00 -0.14264767109E+04  0.14264767109E+04  0.00000000000E+00 0. -1.
         23    2    1    2    0    0 -0.88010386098E+03  0.33373706317E+03  0.13676590625E+04  0.16626027134E+04  0.88279318465E+02 0.  0.
         13    1    3    3    0    0 -0.35319650897E+03  0.94746233418E+02  0.56959605670E+03  0.67687834247E+03  0.00000000000E+00 0.  1.
        -13    1    3    3    0    0 -0.52690735200E+03  0.23899082975E+03  0.79806300577E+03  0.98572437095E+03  0.00000000000E+00 0. -1.
         22    1    1    2    0    0  0.88010386098E+03 -0.33373706317E+03 -0.11058305599E+04  0.14521792109E+04  0.00000000000E+00 0. -1.
<mgrwt>
<rscale>  0 0.31037578E+04</rscale>
<asrwt>0</asrwt>
<pdfrwt beam="1">  1        1 0.21945796E+00 0.31037578E+04</pdfrwt>
<pdfrwt beam="2">  1       -1 0.25973926E+00 0.31037578E+04</pdfrwt>
<totfact> 0.37402295E-01</totfact>
</mgrwt>
</event>
<event>
 6    1  0.8968082E-007  0.1721376E+04  0.7818608E-02  0.8749266E-01
          2   -1    0    0  501    0  0.00000000000E+00  0.00000000000E+00  0.10459893786E+04  0.10459893786E+04  0.00000000000E+00 0. -1.
         -2   -1    0    0    0  501 -0.00000000000E+00 -0.00000000000E+00 -0.70821375402E+03  0.70821375402E+03  0.00000000000E+00 0.  1.
         23    2    1    2    0    0 -0.41448998461E+03 -0.34692780382E+03 -0.50996203553E+03  0.74880769360E+03  0.92145731905E+02 0.  0.
         11    1    3    3    0    0 -0.26153441032E+03 -0.20374742891E+03 -0.37021911894E+03  0.49696625499E+03  0.00000000000E+00 0.  1.
        -11    1    3    3    0    0 -0.15295557429E+03 -0.14318037490E+03 -0.13974291659E+03  0.25184143861E+03  0.00000000000E+00 0. -1.
         22    1    1    2    0    0  0.41448998461E+03  0.34692780382E+03  0.84773766008E+03  0.10053954390E+04  0.00000000000E+00 0. -1.
<mgrwt>
<rscale>  0 0.17213763E+04</rscale>
<asrwt>0</asrwt>
<pdfrwt beam="1">  1        2 0.16092144E+00 0.17213763E+04</pdfrwt>
<pdfrwt beam="2">  1       -2 0.10895596E+00 0.17213763E+04</pdfrwt>
<totfact> 0.15041020E+01</totfact>
</mgrwt>
</event>
<event>
 6    1  0.8968082E-007  0.2109277E+04  0.7818608E-02  0.8557168E-01
          2   -1    0    0  501    0  0.00000000000E+00  0.00000000000E+00  0.40754656987E+04  0.40754656987E+04  0.00000000000E+00 0. -1.
         -2   -1    0    0    0  501 -0.00000000000E+00 -0.00000000000E+00 -0.27291667833E+03  0.27291667833E+03  0.00000000000E+00 0.  1.
         23    2    1    2    0    0  0.54341715389E+03 -0.49522647232E+02  0.37607078522E+04  0.38011115308E+04  0.88151142621E+02 0.  0.
         13    1    3    3    0    0  0.88126576341E+02 -0.25836736859E+02  0.84498331634E+03  0.84995919626E+03  0.00000000000E+00 0. -1.
        -13    1    3    3    0    0  0.45529057755E+03 -0.23685910373E+02  0.29157245359E+04  0.29511523345E+04  0.00000000000E+00 0.  1.
         22    1    1    2    0    0 -0.54341715389E+03  0.49522647232E+02  0.41841168082E+02  0.54727084618E+03  0.00000000000E+00 0.  1.
<mgrwt>
<rscale>  0 0.21092772E+04</rscale>
<asrwt>0</asrwt>
<pdfrwt beam="1">  1        2 0.62699468E+00 0.21092772E+04</pdfrwt>
<pdfrwt beam="2">  1       -2 0.41987184E-01 0.21092772E+04</pdfrwt>
<totfact> 0.14823742E+00</totfact>
</mgrwt>
</event>
<event>
 6    1  0.8968082E-007  0.1389707E+04  0.7818608E-02  0.8961303E-01
          2   -1    0    0  501    0  0.00000000000E+00  0.00000000000E+00  0.74910474626E+03  0.74910474626E+03  0.00000000000E+00 0. -1.
         -2   -1    0    0    0  501 -0.00000000000E+00 -0.00000000000E+00 -0.64453131455E+03  0.64453131455E+03  0.00000000000E+00 0.  1.
         23    2    1    2    0    0 -0.13702690192E+03  0.61824460963E+03  0.33235142861E+03  0.72066831637E+03  0.88896461863E+02 0.  0.
         13    1    3    3    0    0 -0.42419228908E+01  0.28907556552E+02  0.40003165974E+02  0.49536794643E+02  0.00000000000E+00 0. -1.
        -13    1    3    3    0    0 -0.13278497903E+03  0.58933705308E+03  0.29234826264E+03  0.67113152173E+03  0.00000000000E+00 0.  1.
         22    1    1    2    0    0  0.13702690192E+03 -0.61824460963E+03 -0.22777799691E+03  0.67296774444E+03  0.00000000000E+00 0.  1.
<mgrwt>
<rscale>  0 0.13897071E+04</rscale>
<asrwt>0</asrwt>
<pdfrwt beam="1">  1        2 0.11524688E+00 0.13897071E+04</pdfrwt>
<pdfrwt beam="2">  1       -2 0.99158664E-01 0.13897071E+04</pdfrwt>
<totfact> 0.30835479E+01</totfact>
</mgrwt>
</event>
<event>
 6    1  0.8968082E-007  0.1146986E+04  0.7818608E-02  0.9160569E-01
          2   -1    0    0  501    0  0.00000000000E+00  0.00000000000E+00  0.82832353017E+03  0.82832353017E+03  0.00000000000E+00 0. -1.
         -2   -1    0    0    0  501 -0.00000000000E+00 -0.00000000000E+00 -0.39706002600E+03  0.39706002600E+03  0.00000000000E+00 0.  1.
         23    2    1    2    0    0  0.17366789258E+03  0.48612894535E+03 -0.41055909318E+02  0.52569254096E+03  0.90471937673E+02 0.  0.
         13    1    3    3    0    0  0.29697704225E+02  0.21164435510E+03 -0.64346295146E+01  0.21381461863E+03  0.00000000000E+00 0.  1.
        -13    1    3    3    0    0  0.14397018836E+03  0.27448459024E+03 -0.34621279804E+02  0.31187792232E+03  0.00000000000E+00 0. -1.
         22    1    1    2    0    0 -0.17366789258E+03 -0.48612894535E+03  0.47231941348E+03  0.69969101521E+03  0.00000000000E+00 0. -1.
<mgrwt>
<rscale>  0 0.11469859E+04</rscale>
<asrwt>0</asrwt>
<pdfrwt beam="1">  1        2 0.12743439E+00 0.11469859E+04</pdfrwt>
<pdfrwt beam="2">  1       -2 0.61086158E-01 0.11469859E+04</pdfrwt>
<totfact> 0.81173187E+01</totfact>
</mgrwt>
</event>
<event>
 6    1  0.8968082E-007  0.3908126E+04  0.7818608E-02  0.8023341E-01
          2   -1    0    0  501    0  0.00000000000E+00  0.00000000000E+00  0.33089962892E+04  0.33089962892E+04  0.00000000000E+00 0. -1.
         -2   -1    0    0    0  501 -0.00000000000E+00 -0.00000000000E+00 -0.11539338269E+04  0.11539338269E+04  0.00000000000E+00 0.  1.
         23    2    1    2    0    0  0.67524582403E+03  0.59554445565E+03 -0.90100304715E+03  0.12769975180E+04  0.91027735045E+02 0.  0.
         13    1    3    3    0    0  0.41623261687E+03  0.32395247484E+03 -0.48221383489E+03  0.71465025002E+03  0.00000000000E+00 0.  1.
        -13    1    3    3    0    0  0.25901320716E+03  0.27159198081E+03 -0.41878921227E+03  0.56234726801E+03  0.00000000000E+00 0. -1.
         22    1    1    2    0    0 -0.67524582403E+03 -0.59554445565E+03  0.30560655094E+04  0.31859325981E+04  0.00000000000E+00 0. -1.
<mgrwt>
<rscale>  0 0.39081263E+04</rscale>
<asrwt>0</asrwt>
<pdfrwt beam="1">  1        2 0.50907635E+00 0.39081263E+04</pdfrwt>
<pdfrwt beam="2">  1       -2 0.17752828E+00 0.39081263E+04</pdfrwt>
<totfact> 0.16447751E-01</totfact>
</mgrwt>
</event>
<event>
 6    1  0.8968082E-007  0.1469339E+04  0.7818608E-02  0.8905102E-01
         -2   -1    0    0    0  501 -0.00000000000E+00  0.00000000000E+00  0.47993454014E+03  0.47993454014E+03  0.00000000000E+00 0.  1.
          2   -1    0    0  501    0  0.00000000000E+00 -0.00000000000E+00 -0.11246103650E+04  0.11246103650E+04  0.00000000000E+00 0. -1.
         23    2    1    2    0    0  0.64323204315E+03 -0.34892514772E+03 -0.32548971028E+03  0.80618659224E+03  0.92179444371E+02 0.  0.
         13    1    3    3    0    0  0.11514581142E+03 -0.89794864538E+02 -0.96096396436E+02  0.17480329800E+03  0.00000000000E+00 0.  1.
        -13    1    3    3    0    0  0.52808623173E+03 -0.25913028318E+03 -0.22939331385E+03  0.63138329424E+03  0.00000000000E+00 0. -1.
         22    1    1    2    0    0 -0.64323204315E+03  0.34892514772E+03 -0.31918611460E+03  0.79835831292E+03  0.00000000000E+00 0.  1.
<mgrwt>
<rscale>  0 0.14693391E+04</rscale>
<asrwt>0</asrwt>
<pdfrwt beam="1">  1        2 0.17301698E+00 0.14693391E+04</pdfrwt>
<pdfrwt beam="2">  1       -2 0.73836083E-01 0.14693391E+04</pdfrwt>
<totfact> 0.33687063E+01</totfact>
</mgrwt>
</event>
<event>
 6    1  0.8968082E-007  0.2028625E+04  0.7818608E-02  0.8593353E-01
         -1   -1    0    0    0  501 -0.00000000000E+00  0.00000000000E+00  0.43909792236E+03  0.43909792236E+03  0.00000000000E+00 0.  1.
          1   -1    0    0  501    0  0.00000000000E+00 -0.00000000000E+00 -0.23430529013E+04  0.23430529013E+04  0.00000000000E+00 0. -1.
         23    2    1    2    0    0 -0.42606700621E+03  0.86026301789E+03 -0.13941498037E+04  0.16951886024E+04  0.91788718076E+02 0.  0.
         11    1    3    3    0    0 -0.13302253570E+03  0.20200085701E+03 -0.39866348114E+03  0.46629594941E+03  0.00000000000E+00 0. -1.
        -11    1    3    3    0    0 -0.29304447051E+03  0.65826216088E+03 -0.99548632260E+03  0.12288926530E+04  0.00000000000E+00 0.  1.
         22    1    1    2    0    0  0.42606700621E+03 -0.86026301789E+03 -0.50980517520E+03  0.10869622212E+04  0.00000000000E+00 0.  1.
<mgrwt>
<rscale>  0 0.20286248E+04</rscale>
<asrwt>0</asrwt>
<pdfrwt beam="1">  1        1 0.36046967E+00 0.20286248E+04</pdfrwt>
<pdfrwt beam="2">  1       -1 0.67553527E-01 0.20286248E+04</pdfrwt>
<totfact> 0.35712454E+00</totfact>
</mgrwt>
</event>
<event>
 6    1  0.8968082E-007  0.2699559E+04  0.7818608E-02  0.8335148E-01
         -1   -1    0    0    0  501 -0.00000000000E+00  0.00000000000E+00  0.30466148932E+04  0.30466148932E+04  0.00000000000E+00 0.  1.
          1   -1    0    0  501    0  0.00000000000E+00 -0.00000000000E+00 -0.59800970958E+03  0.59800970958E+03  0.00000000000E+00 0. -1.
         23    2    1    2    0    0  0.54225136828E+03  0.22715208728E+03  0.28637719933E+04  0.29249037562E+04  0.90759771346E+02 0.  0.
         13    1    3    3    0    0  0.23673833054E+03  0.90327450323E+02  0.14556070361E+04  0.14774965072E+04  0.00000000000E+00 0. -1.
        -13    1    3    3    0    0  0.30551303774E+03  0.13682463696E+03  0.14081649573E+04  0.14474072490E+04  0.00000000000E+00 0.  1.
         22    1    1    2    0    0 -0.54225136828E+03 -0.22715208728E+03 -0.41516680969E+03  0.71972084660E+03  0.00000000000E+00 0. -1.
<mgrwt>
<rscale>  0 0.26995594E+04</rscale>
<asrwt>0</asrwt>
<pdfrwt beam="1">  1        1 0.92001495E-01 0.26995594E+04</pdfrwt>
<pdfrwt beam="2">  1       -1 0.46870998E+00 0.26995594E+04</pdfrwt>
<totfact> 0.72233636E-02</totfact>
</mgrwt>
</event>
<event>
 6    1  0.8968082E-007  0.1756926E+04  0.7818608E-02  0.8729547E-01
         -2   -1    0    0    0  501 -0.00000000000E+00  0.00000000000E+00  0.85112376429E+03  0.85112376429E+03  0.00000000000E+00 0.  1.
          2   -1    0    0  501    0  0.00000000000E+00 -0.00000000000E+00 -0.90668090698E+03  0.90668090698E+03  0.00000000000E+00 0. -1.
         23    2    1    2    0    0  0.54404213902E+03  0.55755598072E+02  0.65728943407E+03  0.85933888018E+03  0.85693495124E+02 0.  0.
         11    1    3    3    0    0  0.47302226866E+03  0.21561967521E+02  0.54238748000E+03  0.71999941914E+03  0.00000000000E+00 0.  1.
        -11    1    3    3    0    0  0.71019870359E+02  0.34193630551E+02  0.11490195406E+03  0.13933946104E+03  0.00000000000E+00 0. -1.
         22    1    1    2    0    0 -0.54404213902E+03 -0.55755598072E+02 -0.71284657676E+03  0.89846579108E+03  0.00000000000E+00 0. -1.
<mgrwt>
<rscale>  0 0.17569265E+04</rscale>
<asrwt>0</asrwt>
<pdfrwt beam="1">  1        2 0.13948937E+00 0.17569265E+04</pdfrwt>
<pdfrwt beam="2">  1       -2 0.13094212E+00 0.17569265E+04</pdfrwt>
<totfact> 0.11720707E+01</totfact>
</mgrwt>
</event>
<event>
 6    1  0.8968082E-007  0.2139273E+04  0.7818608E-02  0.8544138E-01
          1   -1    0    0  501    0  0.00000000000E+00  0.00000000000E+00  0.10193031600E+04  0.10193031600E+04  0.00000000000E+00 0. -1.
         -1   -1    0    0    0  501 -0.00000000000E+00 -0.00000000000E+00 -0.11224553411E+04  0.11224553411E+04  0.00000000000E+00 0.  1.
         23    2    1    2    0    0  0.67123895067E+03 -0.14991585151E+02 -0.88300690515E+03  0.11127007442E+04  0.87265543076E+02 0.  0.
         13    1    3    3    0    0  0.45309854768E+03  0.13551896438E+02 -0.53788245896E+03  0.70341985149E+03  0.00000000000E+00 0. -1.
        -13    1    3    3    0    0  0.21814040299E+03 -0.28543481589E+02 -0.34512444619E+03  0.40928089268E+03  0.00000000000E+00 0.  1.
         22    1    1    2    0    0 -0.67123895067E+03  0.14991585151E+02  0.77985472401E+03  0.10290577569E+04  0.00000000000E+00 0. -1.
<mgrwt>
<rscale>  0 0.21392730E+04</rscale>
<asrwt>0</asrwt>
<pdfrwt beam="1">  1        1 0.15681587E+00 0.21392730E+04</pdfrwt>
<pdfrwt beam="2">  1       -1 0.17268544E+00 0.21392730E+04</pdfrwt>
<totfact> 0.31502213E+00</totfact>
</mgrwt>
</event>
<event>
 6    1  0.8968082E-007  0.3068667E+04  0.7818608E-02  0.8224390E-01
          2   -1    0    0  501    0  0.00000000000E+00  0.00000000000E+00  0.35960557097E+04  0.35960557097E+04  0.00000000000E+00 0. -1.
         -2   -1    0    0    0  501 -0.00000000000E+00 -0.00000000000E+00 -0.65465615295E+03  0.65465615295E+03  0.00000000000E+00 0.  1.
         23    2    1    2    0    0  0.13700621036E+04 -0.67312892522E+03  0.16664969569E+04  0.22618555690E+04  0.92767397606E+02 0.  0.
         13    1    3    3    0    0  0.76000774844E+03 -0.32389525456E+03  0.91925790798E+03  0.12359429659E+04  0.00000000000E+00 0. -1.
        -13    1    3    3    0    0  0.61005435515E+03 -0.34923367067E+03  0.74723904888E+03  0.10259126031E+04  0.00000000000E+00 0.  1.
         22    1    1    2    0    0 -0.13700621036E+04  0.67312892522E+03  0.12749025999E+04  0.19888562937E+04  0.00000000000E+00 0. -1.
<mgrwt>
<rscale>  0 0.30686675E+04</rscale>
<asrwt>0</asrwt>
<pdfrwt beam="1">  1        2 0.55323933E+00 0.30686675E+04</pdfrwt>
<pdfrwt beam="2">  1       -2 0.10071633E+00 0.30686675E+04</pdfrwt>
<totfact> 0.47989364E-01</totfact>
</mgrwt>
</event>
<event>
 6    1  0.8968082E-007  0.3112250E+04  0.7818608E-02  0.8212384E-01
          1   -1    0    0  501    0  0.00000000000E+00  0.00000000000E+00  0.13343293761E+04  0.13343293761E+04  0.00000000000E+00 0. -1.
         -1   -1    0    0    0  501 -0.00000000000E+00 -0.00000000000E+00 -0.18147882678E+04  0.18147882678E+04  0.00000000000E+00 0.  1.
         23    2    1    2    0    0 -0.82320604795E+03 -0.10660119766E+02  0.10935719264E+04  0.13727857910E+04  0.10420860889E+03 0.  0.
         13    1    3    3    0    0 -0.68739408685E+03  0.28249267428E+02  0.88721258715E+03  0.11226997936E+04  0.00000000000E+00 0. -1.
        -13    1    3    3    0    0 -0.13581196110E+03 -0.38909387195E+02  0.20635933927E+03  0.25008599740E+03  0.00000000000E+00 0.  1.
         22    1    1    2    0    0  0.82320604795E+03  0.10660119766E+02 -0.15740308180E+04  0.17763318529E+04  0.00000000000E+00 0.  1.
<mgrwt>
<rscale>  0 0.31122502E+04</rscale>
<asrwt>0</asrwt>
<pdfrwt beam="1">  1        1 0.20528144E+00 0.31122502E+04</pdfrwt>
<pdfrwt beam="2">  1       -1 0.27919819E+00 0.31122502E+04</pdfrwt>
<totfact> 0.32458796E-01</totfact>
</mgrwt>
</event>
<event>
 6    1  0.8968082E-007  0.1258684E+04  0.7818608E-02  0.9062986E-01
         -1   -1    0    0    0  501 -0.00000000000E+00  0.00000000000E+00  0.60869312774E+03  0.60869312774E+03  0.00000000000E+00 0.  1.
          1   -1    0    0  501    0  0.00000000000E+00 -0.00000000000E+00 -0.65069171053E+03  0.65069171053E+03  0.00000000000E+00 0. -1.
         23    2    1    2    0    0 -0.59364735380E+03 -0.12053671205E+03 -0.17949645128E+03  0.63821501973E+03  0.90294826891E+02 0.  0.
         11    1    3    3    0    0 -0.48402217763E+03 -0.72713404017E+02 -0.11689031386E+03  0.50321769944E+03  0.00000000000E+00 0. -1.
        -11    1    3    3    0    0 -0.10962517617E+03 -0.47823308031E+02 -0.62606137422E+02  0.13499732028E+03  0.00000000000E+00 0.  1.
         22    1    1    2    0    0  0.59364735380E+03  0.12053671205E+03  0.13749786849E+03  0.62116981854E+03  0.00000000000E+00 0.  1.
<mgrwt>
<rscale>  0 0.12586843E+04</rscale>
<asrwt>0</asrwt>
<pdfrwt beam="1">  1        1 0.10010642E+00 0.12586843E+04</pdfrwt>
<pdfrwt beam="2">  1       -1 0.93645097E-01 0.12586843E+04</pdfrwt>
<totfact> 0.33158010E+01</totfact>
</mgrwt>
</event>
<event>
 6    1  0.9186606E-007  0.3067922E+04  0.7818608E-02  0.8224597E-01
          2   -1    0    0  501    0  0.00000000000E+00  0.00000000000E+00  0.15353330765E+04  0.15353330765E+04  0.00000000000E+00 0. -1.
         -2   -1    0    0    0  501 -0.00000000000E+00 -0.00000000000E+00 -0.15325906150E+04  0.15325906150E+04  0.00000000000E+00 0.  1.
         23    2    1    2    0    0  0.15690128394E+03  0.72563059344E+03 -0.13394073852E+04  0.15341297086E+04  0.91564447831E+02 0.  0.
         13    1    3    3    0    0  0.13590343467E+03  0.41527633587E+03 -0.78682699033E+03  0.90001160626E+03  0.00000000000E+00 0. -1.
        -13    1    3    3    0    0  0.20997849268E+02  0.31035425757E+03 -0.55258039491E+03  0.63411810233E+03  0.00000000000E+00 0.  1.
         22    1    1    2    0    0 -0.15690128394E+03 -0.72563059344E+03  0.13421498467E+04  0.15337939829E+04  0.00000000000E+00 0. -1.
<mgrwt>
<rscale>  0 0.30679225E+04</rscale>
<asrwt>0</asrwt>
<pdfrwt beam="1">  1        2 0.23620509E+00 0.30679225E+04</pdfrwt>
<pdfrwt beam="2">  1       -2 0.23578317E+00 0.30679225E+04</pdfrwt>
<totfact> 0.81207903E-01</totfact>
</mgrwt>
</event>
<event>
 6    1  0.8968082E-007  0.1468588E+04  0.7818608E-02  0.8905615E-01
         -1   -1    0    0    0  501 -0.00000000000E+00  0.00000000000E+00  0.15572716125E+03  0.15572716125E+03  0.00000000000E+00 0.  1.
          1   -1    0    0  501    0  0.00000000000E+00 -0.00000000000E+00 -0.34623857627E+04  0.34623857627E+04  0.00000000000E+00 0. -1.
         23    2    1    2    0    0 -0.70367886753E+03 -0.68189900397E+02 -0.11897708828E+04  0.13862913754E+04  0.80219778413E+02 0.  0.
         13    1    3    3    0    0 -0.98614744936E+02  0.14785420908E+02 -0.14186412130E+03  0.17340387972E+03  0.00000000000E+00 0. -1.
        -13    1    3    3    0    0 -0.60506412259E+03 -0.82975321305E+02 -0.10479067615E+04  0.12128874957E+04  0.00000000000E+00 0.  1.
         22    1    1    2    0    0  0.70367886753E+03  0.68189900397E+02 -0.21168877186E+04  0.22318215485E+04  0.00000000000E+00 0. -1.
<mgrwt>
<rscale>  0 0.14685878E+04</rscale>
<asrwt>0</asrwt>
<pdfrwt beam="1">  1        1 0.53267472E+00 0.14685878E+04</pdfrwt>
<pdfrwt beam="2">  1       -1 0.23958026E-01 0.14685878E+04</pdfrwt>
<totfact> 0.39561631E+00</totfact>
</mgrwt>
</event>
<event>
 6    1  0.8968082E-007  0.1852925E+04  0.7818608E-02  0.8678650E-01
         -2   -1    0    0    0  501 -0.00000000000E+00  0.00000000000E+00  0.42652648399E+03  0.42652648399E+03  0.00000000000E+00 0.  1.
          2   -1    0    0  501    0  0.00000000000E+00 -0.00000000000E+00 -0.20123793246E+04  0.20123793246E+04  0.00000000000E+00 0. -1.
         23    2    1    2    0    0 -0.70422480367E+03  0.16172197104E+03 -0.36024660024E+02  0.72891927081E+03  0.89100826126E+02 0.  0.
         11    1    3    3    0    0 -0.48243114977E+03  0.81755196769E+02 -0.54983819433E+02  0.49238901984E+03  0.00000000000E+00 0. -1.
        -11    1    3    3    0    0 -0.22179365390E+03  0.79966774275E+02  0.18959159409E+02  0.23653025097E+03  0.00000000000E+00 0.  1.
         22    1    1    2    0    0  0.70422480367E+03 -0.16172197104E+03 -0.15498281806E+04  0.17099865378E+04  0.00000000000E+00 0. -1.
<mgrwt>
<rscale>  0 0.18529253E+04</rscale>
<asrwt>0</asrwt>
<pdfrwt beam="1">  1        2 0.30959682E+00 0.18529253E+04</pdfrwt>
<pdfrwt beam="2">  1       -2 0.65619459E-01 0.18529253E+04</pdfrwt>
<totfact> 0.13222821E+01</totfact>
</mgrwt>
</event>
<event>
 6    1  0.8968082E-007  0.2594251E+04  0.7818608E-02  0.8370157E-01
          1   -1    0    0  501    0  0.00000000000E+00  0.00000000000E+00  0.23743487259E+04  0.23743487259E+04  0.00000000000E+00 0. -1.
         -1   -1    0    0    0  501 -0.00000000000E+00 -0.00000000000E+00 -0.70862988495E+03  0.70862988495E+03  0.00000000000E+00 0.  1.
         23    2    1    2    0    0 -0.13616490152E+03  0.48500842571E+03 -0.58425048566E+03  0.77730386708E+03  0.95281784016E+02 0.  0.
         13    1    3    3    0    0 -0.10915566142E+03  0.25453782401E+03 -0.27117464749E+03  0.38760824516E+03  0.00000000000E+00 0. -1.
        -13    1    3    3    0    0 -0.27009240095E+02  0.23047060170E+03 -0.31307583817E+03  0.38969562192E+03  0.00000000000E+00 0.  1.
         22    1    1    2    0    0  0.13616490152E+03 -0.48500842571E+03  0.22499693267E+04  0.23056747438E+04  0.00000000000E+00 0. -1.
<mgrwt>
<rscale>  0 0.25942509E+04</rscale>
<asrwt>0</asrwt>
<pdfrwt beam="1">  1        1 0.36528442E+00 0.25942509E+04</pdfrwt>
<pdfrwt beam="2">  1       -1 0.10901998E+00 0.25942509E+04</pdfrwt>
<totfact> 0.11361612E+00</totfact>
</mgrwt>
</event>
<event>
 6    1  0.8968082E-007  0.3624520E+04  0.7818608E-02  0.8084898E-01
          2   -1    0    0  501    0  0.00000000000E+00  0.00000000000E+00  0.17116204467E+04  0.17116204467E+04  0.00000000000E+00 0. -1.
         -2   -1    0    0    0  501 -0.00000000000E+00 -0.00000000000E+00 -0.19188174256E+04  0.19188174256E+04  0.00000000000E+00 0.  1.
         23    2    1    2    0    0 -0.12659966242E+03  0.14941603165E+04  0.91364428625E+03  0.17583193750E+04  0.91643967223E+02 0.  0.
         13    1    3    3    0    0 -0.10656343213E+03  0.72676969352E+03  0.43568494764E+03  0.85403239171E+03  0.00000000000E+00 0. -1.
        -13    1    3    3    0    0 -0.20036230283E+02  0.76739062301E+03  0.47795933861E+03  0.90428698330E+03  0.00000000000E+00 0.  1.
         22    1    1    2    0    0  0.12659966242E+03 -0.14941603165E+04 -0.11208412652E+04  0.18721184973E+04  0.00000000000E+00 0.  1.
<mgrwt>
<rscale>  0 0.36245205E+04</rscale>
<asrwt>0</asrwt>
<pdfrwt beam="1">  1        2 0.26332622E+00 0.36245205E+04</pdfrwt>
<pdfrwt beam="2">  1       -2 0.29520268E+00 0.36245205E+04</pdfrwt>
<totfact> 0.26724337E-01</totfact>
</mgrwt>
</event>
<event>
 6    1  0.8968082E-007  0.9879561E+03  0.7818608E-02  0.9321854E-01
         -2   -1    0    0    0  501 -0.00000000000E+00  0.00000000000E+00  0.13006204851E+03  0.13006204851E+03  0.00000000000E+00 0.  1.
          2   -1    0    0  501    0  0.00000000000E+00 -0.00000000000E+00 -0.18761376241E+04  0.18761376241E+04  0.00000000000E+00 0. -1.
         23    2    1    2    0    0  0.10766031346E+02 -0.42389964093E+03 -0.38324080069E+03  0.57892064009E+03  0.92025991964E+02 0.  0.
         11    1    3    3    0    0  0.40202536106E+02 -0.37123000527E+03 -0.33542093208E+03  0.50193143197E+03  0.00000000000E+00 0.  1.
        -11    1    3    3    0    0 -0.29436504760E+02 -0.52669635662E+02 -0.47819868606E+02  0.76989208119E+02  0.00000000000E+00 0. -1.
         22    1    1    2    0    0 -0.10766031346E+02  0.42389964093E+03 -0.13628347749E+04  0.14272790325E+04  0.00000000000E+00 0. -1.
<mgrwt>
<rscale>  0 0.98795608E+03</rscale>
<asrwt>0</asrwt>
<pdfrwt beam="1">  1        2 0.28863654E+00 0.98795608E+03</pdfrwt>
<pdfrwt beam="2">  1       -2 0.20009547E-01 0.98795608E+03</pdfrwt>
<totfact> 0.16742372E+02</totfact>
</mgrwt>
</event>
<event>
 6    1  0.8968082E-007  0.3448511E+04  0.7818608E-02  0.8126102E-01
          2   -1    0    0  501    0  0.00000000000E+00  0.00000000000E+00  0.10535537013E+04  0.10535537013E+04  0.00000000000E+00 0. -1.
         -2   -1    0    0    0  501 -0.00000000000E+00 -0.00000000000E+00 -0.28219321944E+04  0.28219321944E+04  0.00000000000E+00 0.  1.
         23    2    1    2    0    0  0.10715478813E+04 -0.12600723219E+04 -0.14270857181E+04  0.21865578699E+04  0.92003006115E+02 0.  0.
         11    1    3    3    0    0  0.12189823393E+03 -0.11189736420E+03 -0.11888539007E+03  0.20374968840E+03  0.00000000000E+00 0.  1.
        -11    1    3    3    0    0  0.94964964734E+03 -0.11481749577E+04 -0.13082003281E+04  0.19828081815E+04  0.00000000000E+00 0. -1.
         22    1    1    2    0    0 -0.10715478813E+04  0.12600723219E+04 -0.34129277503E+03  0.16889280258E+04  0.00000000000E+00 0. -1.
<mgrwt>
<rscale>  0 0.34485110E+04</rscale>
<asrwt>0</asrwt>
<pdfrwt beam="1">  1        2 0.16208519E+00 0.34485110E+04</pdfrwt>
<pdfrwt beam="2">  1       -2 0.43414341E+00 0.34485110E+04</pdfrwt>
<totfact> 0.84845817E-02</totfact>
</mgrwt>
</event>
<event>
 6    1  0.8968082E-007  0.8845727E+03  0.7818608E-02  0.9445074E-01
         -2   -1    0    0    0  501 -0.00000000000E+00  0.00000000000E+00  0.87839449610E+03  0.87839449610E+03  0.00000000000E+00 0.  1.
          2   -1    0    0  501    0  0.00000000000E+00 -0.00000000000E+00 -0.22269857021E+03  0.22269857021E+03  0.00000000000E+00 0. -1.
         23    2    1    2    0    0 -0.19692319329E+03  0.38524003190E+03  0.41248579833E+03  0.60476677004E+03  0.91704340617E+02 0.  0.
         11    1    3    3    0    0 -0.12358711438E+03  0.30997885858E+03  0.27963784365E+03  0.43538258028E+03  0.00000000000E+00 0. -1.
        -11    1    3    3    0    0 -0.73336078906E+02  0.75261173313E+02  0.13284795467E+03  0.16938418975E+03  0.00000000000E+00 0.  1.
         22    1    1    2    0    0  0.19692319329E+03 -0.38524003190E+03  0.24321012757E+03  0.49632629628E+03  0.00000000000E+00 0.  1.
<mgrwt>
<rscale>  0 0.88457266E+03</rscale>
<asrwt>0</asrwt>
<pdfrwt beam="1">  1        2 0.34261319E-01 0.88457266E+03</pdfrwt>
<pdfrwt beam="2">  1       -2 0.13513761E+00 0.88457266E+03</pdfrwt>
<totfact> 0.60500063E+01</totfact>
</mgrwt>
</event>
<event>
 6    1  0.8968082E-007  0.2312512E+04  0.7818608E-02  0.8473004E-01
         -2   -1    0    0    0  501 -0.00000000000E+00  0.00000000000E+00  0.53370079844E+03  0.53370079844E+03  0.00000000000E+00 0.  1.
          2   -1    0    0  501    0  0.00000000000E+00 -0.00000000000E+00 -0.25050137855E+04  0.25050137855E+04  0.00000000000E+00 0. -1.
         23    2    1    2    0    0  0.34362253611E+03  0.66801197029E+03 -0.21390991902E+04  0.22689947325E+04  0.90968735631E+02 0.  0.
         13    1    3    3    0    0  0.13482386935E+03  0.27436679633E+03 -0.74025891224E+03  0.80089816571E+03  0.00000000000E+00 0. -1.
        -13    1    3    3    0    0  0.20879866676E+03  0.39364517396E+03 -0.13988402780E+04  0.14680965668E+04  0.00000000000E+00 0.  1.
         22    1    1    2    0    0 -0.34362253611E+03 -0.66801197029E+03  0.16778620311E+03  0.76971985146E+03  0.00000000000E+00 0.  1.
<mgrwt>
<rscale>  0 0.23125119E+04</rscale>
<asrwt>0</asrwt>
<pdfrwt beam="1">  1        2 0.38538674E+00 0.23125119E+04</pdfrwt>
<pdfrwt beam="2">  1       -2 0.82107814E-01 0.23125119E+04</pdfrwt>
<totfact> 0.40820357E+00</totfact>
</mgrwt>
</event>
<event>
 6    1  0.8968082E-007  0.4487805E+03  0.7818608E-02  0.1028086E+00
          1   -1    0    0  501    0  0.00000000000E+00  0.00000000000E+00  0.95522669044E+03  0.95522669044E+03  0.00000000000E+00 0. -1.
         -1   -1    0    0    0  501 -0.00000000000E+00 -0.00000000000E+00 -0.52711027621E+02  0.52711027621E+02  0.00000000000E+00 0.  1.
         23    2    1    2    0    0 -0.46371954277E+02  0.16623760888E+03  0.18335688121E+03  0.26836036990E+03  0.92802163205E+02 0.  0.
         13    1    3    3    0    0 -0.19690655359E+02  0.84191707322E+02  0.28406670909E+02  0.91010463367E+02  0.00000000000E+00 0.  1.
        -13    1    3    3    0    0 -0.26681298918E+02  0.82045901556E+02  0.15495021030E+03  0.17734990653E+03  0.00000000000E+00 0. -1.
         22    1    1    2    0    0  0.46371954277E+02 -0.16623760888E+03  0.71915878161E+03  0.73957734816E+03  0.00000000000E+00 0. -1.
<mgrwt>
<rscale>  0 0.44878048E+03</rscale>
<asrwt>0</asrwt>
<pdfrwt beam="1">  1        1 0.14695794E+00 0.44878048E+03</pdfrwt>
<pdfrwt beam="2">  1       -1 0.81093895E-02 0.44878048E+03</pdfrwt>
<totfact> 0.14567770E+03</totfact>
</mgrwt>
</event>
<event>
 6    1  0.8968082E-007  0.1141876E+04  0.7818608E-02  0.9165311E-01
          1   -1    0    0  501    0  0.00000000000E+00  0.00000000000E+00  0.49005480256E+03  0.49005480256E+03  0.00000000000E+00 0. -1.
         -1   -1    0    0    0  501 -0.00000000000E+00 -0.00000000000E+00 -0.66517148145E+03  0.66517148145E+03  0.00000000000E+00 0.  1.
         23    2    1    2    0    0 -0.30038857487E+03  0.43627940313E+03 -0.29316043957E+03  0.61254097653E+03  0.93222267127E+02 0.  0.
         11    1    3    3    0    0 -0.11195123517E+03  0.20174854929E+03 -0.17384629180E+03  0.28889113758E+03  0.00000000000E+00 0.  1.
        -11    1    3    3    0    0 -0.18843733970E+03  0.23453085384E+03 -0.11931414778E+03  0.32364983895E+03  0.00000000000E+00 0. -1.
         22    1    1    2    0    0  0.30038857487E+03 -0.43627940313E+03  0.11804376069E+03  0.54268530747E+03  0.00000000000E+00 0. -1.
<mgrwt>
<rscale>  0 0.11418765E+04</rscale>
<asrwt>0</asrwt>
<pdfrwt beam="1">  1        1 0.75393047E-01 0.11418765E+04</pdfrwt>
<pdfrwt beam="2">  1       -1 0.10233407E+00 0.11418765E+04</pdfrwt>
<totfact> 0.40948367E+01</totfact>
</mgrwt>
</event>
<event>
 6    1  0.8968082E-007  0.1433408E+04  0.7818608E-02  0.8929985E-01
          2   -1    0    0  501    0  0.00000000000E+00  0.00000000000E+00  0.39600820564E+03  0.39600820564E+03  0.00000000000E+00 0. -1.
         -2   -1    0    0    0  501 -0.00000000000E+00 -0.00000000000E+00 -0.12971052430E+04  0.12971052430E+04  0.00000000000E+00 0.  1.
         23    2    1    2    0    0 -0.15000952231E+03  0.16109038093E+03 -0.12543896584E+04  0.12768579458E+04  0.91759638623E+02 0.  0.
         11    1    3    3    0    0 -0.12694752989E+03  0.15095872544E+03 -0.88979550177E+03  0.91139467142E+03  0.00000000000E+00 0. -1.
        -11    1    3    3    0    0 -0.23061992423E+02  0.10131655486E+02 -0.36459415658E+03  0.36546327442E+03  0.00000000000E+00 0.  1.
         22    1    1    2    0    0  0.15000952231E+03 -0.16109038093E+03  0.35329262095E+03  0.41625550282E+03  0.00000000000E+00 0. -1.
<mgrwt>
<rscale>  0 0.14334076E+04</rscale>
<asrwt>0</asrwt>
<pdfrwt beam="1">  1        2 0.60924341E-01 0.14334076E+04</pdfrwt>
<pdfrwt beam="2">  1       -2 0.19955465E+00 0.14334076E+04</pdfrwt>
<totfact> 0.10445735E+01</totfact>
</mgrwt>
</event>
<event>
 6    1  0.8968082E-007  0.1071159E+04  0.7818608E-02  0.9233767E-01
          2   -1    0    0  501    0  0.00000000000E+00  0.00000000000E+00  0.74543655118E+03  0.74543655118E+03  0.00000000000E+00 0. -1.
         -2   -1    0    0    0  501 -0.00000000000E+00 -0.00000000000E+00 -0.38480190801E+03  0.38480190801E+03  0.00000000000E+00 0.  1.
         23    2    1    2    0    0 -0.10740155137E+03 -0.19630955586E+03  0.69078358872E+03  0.73140157373E+03  0.87714084714E+02 0.  0.
         11    1    3    3    0    0 -0.89372074685E+02 -0.72338531209E+02  0.34069506884E+03  0.35957385996E+03  0.00000000000E+00 0.  1.
        -11    1    3    3    0    0 -0.18029476683E+02 -0.12397102465E+03  0.35008851988E+03  0.37182771377E+03  0.00000000000E+00 0. -1.
         22    1    1    2    0    0  0.10740155137E+03  0.19630955586E+03 -0.33014894555E+03  0.39883688546E+03  0.00000000000E+00 0.  1.
<mgrwt>
<rscale>  0 0.10711590E+04</rscale>
<asrwt>0</asrwt>
<pdfrwt beam="1">  1        2 0.11468255E+00 0.10711590E+04</pdfrwt>
<pdfrwt beam="2">  1       -2 0.59200294E-01 0.10711590E+04</pdfrwt>
<totfact> 0.10020128E+02</totfact>
</mgrwt>
</event>
<event>
 6    1  0.8968082E-007  0.2143005E+04  0.7818608E-02  0.8542532E-01
         -1   -1    0    0    0  501 -0.00000000000E+00  0.00000000000E+00  0.17204513058E+04  0.17204513058E+04  0.00000000000E+00 0.  1.
          1   -1    0    0  501    0  0.00000000000E+00 -0.00000000000E+00 -0.66733528758E+03  0.66733528758E+03  0.00000000000E+00 0. -1.
         23    2    1    2    0    0 -0.39928493103E+03  0.85975615803E+03 -0.24791744636E+02  0.95234441319E+03  0.87955348357E+02 0.  0.
         11    1    3    3    0    0 -0.23775390229E+03  0.58258246307E+03  0.12672189512E+02  0.62935667846E+03  0.00000000000E+00 0. -1.
        -11    1    3    3    0    0 -0.16153102874E+03  0.27717369497E+03 -0.37463934149E+02  0.32298773473E+03  0.00000000000E+00 0.  1.
         22    1    1    2    0    0  0.39928493103E+03 -0.85975615803E+03  0.10779077628E+04  0.14354421802E+04  0.00000000000E+00 0.  1.
<mgrwt>
<rscale>  0 0.21430052E+04</rscale>
<asrwt>0</asrwt>
<pdfrwt beam="1">  1        1 0.10266697E+00 0.21430052E+04</pdfrwt>
<pdfrwt beam="2">  1       -1 0.26468481E+00 0.21430052E+04</pdfrwt>
<totfact> 0.15010714E+00</totfact>
</mgrwt>
</event>
<event>
 6    1  0.8968082E-007  0.1318584E+04  0.7818608E-02  0.9014957E-01
          2   -1    0    0  501    0  0.00000000000E+00  0.00000000000E+00  0.10606241008E+04  0.10606241008E+04  0.00000000000E+00 0. -1.
         -2   -1    0    0    0  501 -0.00000000000E+00 -0.00000000000E+00 -0.40982062827E+03  0.40982062827E+03  0.00000000000E+00 0.  1.
         23    2    1    2    0    0 -0.35847748732E+03  0.32720046549E+03  0.81601922867E+03  0.95774354941E+03  0.12577388976E+03 0.  0.
         11    1    3    3    0    0 -0.10129320764E+03  0.17484313577E+03  0.31066447652E+03  0.37059796682E+03  0.00000000000E+00 0. -1.
        -11    1    3    3    0    0 -0.25718427967E+03  0.15235732972E+03  0.50535475215E+03  0.58714558258E+03  0.00000000000E+00 0.  1.
         22    1    1    2    0    0  0.35847748732E+03 -0.32720046549E+03 -0.16521575615E+03  0.51270117965E+03  0.00000000000E+00 0.  1.
<mgrwt>
<rscale>  0 0.13185835E+04</rscale>
<asrwt>0</asrwt>
<pdfrwt beam="1">  1        2 0.16317294E+00 0.13185835E+04</pdfrwt>
<pdfrwt beam="2">  1       -2 0.63049328E-01 0.13185835E+04</pdfrwt>
<totfact> 0.52598172E+01</totfact>
</mgrwt>
</event>
<event>
 6    1  0.8968082E-007  0.4926647E+03  0.7818608E-02  0.1015711E+00
         -2   -1    0    0    0  501 -0.00000000000E+00  0.00000000000E+00  0.57243784908E+02  0.57243784908E+02  0.00000000000E+00 0.  1.
          2   -1    0    0  501    0  0.00000000000E+00 -0.00000000000E+00 -0.10600212983E+04  0.10600212983E+04  0.00000000000E+00 0. -1.
         23    2    1    2    0    0 -0.13243553548E+03  0.19786959990E+03 -0.52632120535E+03  0.58462809323E+03  0.89913550525E+02 0.  0.
         13    1    3    3    0    0 -0.54266214419E+02  0.14024565031E+03 -0.25004694587E+03  0.29178269242E+03  0.00000000000E+00 0. -1.
        -13    1    3    3    0    0 -0.78169321060E+02  0.57623949587E+02 -0.27627425948E+03  0.29284540081E+03  0.00000000000E+00 0.  1.
         22    1    1    2    0    0  0.13243553548E+03 -0.19786959990E+03 -0.47645630803E+03  0.53263698997E+03  0.00000000000E+00 0.  1.
<mgrwt>
<rscale>  0 0.49266472E+03</rscale>
<asrwt>0</asrwt>
<pdfrwt beam="1">  1        2 0.16308019E+00 0.49266472E+03</pdfrwt>
<pdfrwt beam="2">  1       -2 0.88067367E-02 0.49266472E+03</pdfrwt>
<totfact> 0.19597839E+03</totfact>
</mgrwt>
</event>
<event>
 6    1  0.8968082E-007  0.4256807E+04  0.7818608E-02  0.7954653E-01
          1   -1    0    0  501    0  0.00000000000E+00  0.00000000000E+00  0.25202948935E+04  0.25202948935E+04  0.00000000000E+00 0. -1.
         -1   -1    0    0    0  501 -0.00000000000E+00 -0.00000000000E+00 -0.17974489689E+04  0.17974489689E+04  0.00000000000E+00 0.  1.
         23    2    1    2    0    0  0.11022987386E+04 -0.12208014421E+04  0.17302457201E+04  0.23889429348E+04  0.88766117961E+02 0.  0.
         13    1    3    3    0    0  0.12578559014E+03 -0.17969980867E+03  0.25001734396E+03  0.33259992213E+03  0.00000000000E+00 0.  1.
        -13    1    3    3    0    0  0.97651314848E+03 -0.10411016334E+04  0.14802283761E+04  0.20563430127E+04  0.00000000000E+00 0. -1.
         22    1    1    2    0    0 -0.11022987386E+04  0.12208014421E+04 -0.10073997955E+04  0.19288009275E+04  0.00000000000E+00 0.  1.
<mgrwt>
<rscale>  0 0.42568070E+04</rscale>
<asrwt>0</asrwt>
<pdfrwt beam="1">  1        1 0.38773768E+00 0.42568070E+04</pdfrwt>
<pdfrwt beam="2">  1       -1 0.27653061E+00 0.42568070E+04</pdfrwt>
<totfact> 0.47113154E-02</totfact>
</mgrwt>
</event>
<event>
 6    1  0.8968082E-007  0.1595902E+04  0.7818608E-02  0.8823070E-01
         -1   -1    0    0    0  501 -0.00000000000E+00  0.00000000000E+00  0.28879325762E+03  0.28879325762E+03  0.00000000000E+00 0.  1.
          1   -1    0    0  501    0  0.00000000000E+00 -0.00000000000E+00 -0.22047798309E+04  0.22047798309E+04  0.00000000000E+00 0. -1.
         23    2    1    2    0    0 -0.16909508172E+02  0.71654741129E+03 -0.42232278490E+03  0.83684207934E+03  0.90675283411E+02 0.  0.
         13    1    3    3    0    0  0.33322819985E+02  0.31103975181E+03 -0.16103416957E+03  0.35183538950E+03  0.00000000000E+00 0.  1.
        -13    1    3    3    0    0 -0.50232328157E+02  0.40550765948E+03 -0.26128861534E+03  0.48500668984E+03  0.00000000000E+00 0. -1.
         22    1    1    2    0    0  0.16909508172E+02 -0.71654741129E+03 -0.14936637884E+04  0.16567310092E+04  0.00000000000E+00 0. -1.
<mgrwt>
<rscale>  0 0.15959017E+04</rscale>
<asrwt>0</asrwt>
<pdfrwt beam="1">  1        1 0.33919689E+00 0.15959017E+04</pdfrwt>
<pdfrwt beam="2">  1       -1 0.44429732E-01 0.15959017E+04</pdfrwt>
<totfact> 0.10419247E+01</totfact>
</mgrwt>
</event>
<event>
 6    1  0.8968082E-007  0.2842316E+04  0.7818608E-02  0.8290250E-01
         -2   -1    0    0    0  501 -0.00000000000E+00  0.00000000000E+00  0.12024721284E+04  0.12024721284E+04  0.00000000000E+00 0.  1.
          2   -1    0    0  501    0  0.00000000000E+00 -0.00000000000E+00 -0.16796154138E+04  0.16796154138E+04  0.00000000000E+00 0. -1.
         23    2    1    2    0    0 -0.48737849582E+03 -0.11825701060E+04 -0.86351712977E+03  0.15459383733E+04  0.90850244597E+02 0.  0.
         11    1    3    3    0    0 -0.14794820949E+03 -0.32756354627E+03 -0.19637712182E+03  0.40957358742E+03  0.00000000000E+00 0. -1.
        -11    1    3    3    0    0 -0.33943028634E+03 -0.85500655974E+03 -0.66714000795E+03  0.11363647859E+04  0.00000000000E+00 0.  1.
         22    1    1    2    0    0  0.48737849582E+03  0.11825701060E+04  0.38637384433E+03  0.13361491688E+04  0.00000000000E+00 0.  1.
<mgrwt>
<rscale>  0 0.28423165E+04</rscale>
<asrwt>0</asrwt>
<pdfrwt beam="1">  1        2 0.25840237E+00 0.28423165E+04</pdfrwt>
<pdfrwt beam="2">  1       -2 0.18499571E+00 0.28423165E+04</pdfrwt>
<totfact> 0.14629169E+00</totfact>
</mgrwt>
</event>
<event>
 6    1  0.8968082E-007  0.3743969E+04  0.7818608E-02  0.8058287E-01
         -2   -1    0    0    0  501 -0.00000000000E+00  0.00000000000E+00  0.10240034814E+04  0.10240034814E+04  0.00000000000E+00 0.  1.
          2   -1    0    0  501    0  0.00000000000E+00 -0.00000000000E+00 -0.34221810541E+04  0.34221810541E+04  0.00000000000E+00 0. -1.
         23    2    1    2    0    0  0.81313172425E+03  0.68980635221E+03  0.62582818526E+03  0.12396869403E+04  0.90259558435E+02 0.  0.
         13    1    3    3    0    0  0.69130439994E+03  0.62239554073E+03  0.52911082776E+03  0.10701571149E+04  0.00000000000E+00 0. -1.
        -13    1    3    3    0    0  0.12182732432E+03  0.67410811483E+02  0.96717357499E+02  0.16952982539E+03  0.00000000000E+00 0.  1.
         22    1    1    2    0    0 -0.81313172425E+03 -0.68980635221E+03 -0.30240057579E+04  0.32064975952E+04  0.00000000000E+00 0. -1.
<mgrwt>
<rscale>  0 0.37439687E+04</rscale>
<asrwt>0</asrwt>
<pdfrwt beam="1">  1        2 0.52648939E+00 0.37439687E+04</pdfrwt>
<pdfrwt beam="2">  1       -2 0.15753900E+00 0.37439687E+04</pdfrwt>
<totfact> 0.19452557E-01</totfact>
</mgrwt>
</event>
<event>
 6    1  0.1528853E-006  0.3273011E+04  0.7818608E-02  0.8169797E-01
         -2   -1    0    0    0  501 -0.00000000000E+00  0.00000000000E+00  0.11485521174E+04  0.11485521174E+04  0.00000000000E+00 0.  1.
          2   -1    0    0  501    0  0.00000000000E+00 -0.00000000000E+00 -0.23317616872E+04  0.23317616872E+04  0.00000000000E+00 0. -1.
         23    2    1    2    0    0 -0.14656309086E+04  0.18290561203E+03 -0.13383025293E+04  0.19951935235E+04  0.90637262426E+02 0.  0.
         13    1    3    3    0    0 -0.33423437918E+03  0.35228137634E+02 -0.25530489315E+03  0.42205951046E+03  0.00000000000E+00 0. -1.
        -13    1    3    3    0    0 -0.11313965294E+04  0.14767747439E+03 -0.10829976362E+04  0.15731340131E+04  0.00000000000E+00 0.  1.
         22    1    1    2    0    0  0.14656309086E+04 -0.18290561203E+03  0.15509295956E+03  0.14851202810E+04  0.00000000000E+00 0.  1.
<mgrwt>
<rscale>  0 0.32730107E+04</rscale>
<asrwt>0</asrwt>
<pdfrwt beam="1">  1        2 0.35873257E+00 0.32730107E+04</pdfrwt>
<pdfrwt beam="2">  1       -2 0.17670033E+00 0.32730107E+04</pdfrwt>
<totfact> 0.69583900E-01</totfact>
</mgrwt>
</event>
<event>
 6    1  0.8968082E-007  0.1691782E+04  0.7818608E-02  0.8766065E-01
          2   -1    0    0  501    0  0.00000000000E+00  0.00000000000E+00  0.30896997302E+04  0.30896997302E+04  0.00000000000E+00 0. -1.
         -2   -1    0    0    0  501 -0.00000000000E+00 -0.00000000000E+00 -0.23158623525E+03  0.23158623525E+03  0.00000000000E+00 0.  1.
         23    2    1    2    0    0 -0.40357660610E+03  0.55234509000E+03  0.24019638220E+04  0.24990744966E+04  0.89353016477E+02 0.  0.
         13    1    3    3    0    0 -0.18993147677E+03  0.29592442793E+03  0.10895483927E+04  0.11448846811E+04  0.00000000000E+00 0. -1.
        -13    1    3    3    0    0 -0.21364512933E+03  0.25642066207E+03  0.13124154293E+04  0.13541898154E+04  0.00000000000E+00 0.  1.
         22    1    1    2    0    0  0.40357660610E+03 -0.55234509000E+03  0.45614967287E+03  0.82221146885E+03  0.00000000000E+00 0.  1.
<mgrwt>
<rscale>  0 0.16917824E+04</rscale>
<asrwt>0</asrwt>
<pdfrwt beam="1">  1        2 0.47533839E+00 0.16917824E+04</pdfrwt>
<pdfrwt beam="2">  1       -2 0.35628654E-01 0.16917824E+04</pdfrwt>
<totfact> 0.10832019E+01</totfact>
</mgrwt>
</event>
<event>
 6    1  0.8968082E-007  0.3273016E+04  0.7818608E-02  0.8169796E-01
          2   -1    0    0  501    0  0.00000000000E+00  0.00000000000E+00  0.33681123542E+04  0.33681123542E+04  0.00000000000E+00 0. -1.
         -2   -1    0    0    0  501 -0.00000000000E+00 -0.00000000000E+00 -0.79515094905E+03  0.79515094905E+03  0.00000000000E+00 0.  1.
         23    2    1    2    0    0 -0.45567320091E+03 -0.11068374372E+04  0.27045060471E+04  0.29590909023E+04  0.95597233160E+02 0.  0.
         13    1    3    3    0    0 -0.40707903802E+03 -0.10326447530E+04  0.25463843375E+04  0.27777943990E+04  0.00000000000E+00 0. -1.
        -13    1    3    3    0    0 -0.48594162881E+02 -0.74192684152E+02  0.15812170965E+03  0.18129650330E+03  0.00000000000E+00 0.  1.
         22    1    1    2    0    0  0.45567320091E+03  0.11068374372E+04 -0.13154464194E+03  0.12041724009E+04  0.00000000000E+00 0.  1.
<mgrwt>
<rscale>  0 0.32730156E+04</rscale>
<asrwt>0</asrwt>
<pdfrwt beam="1">  1        2 0.51817113E+00 0.32730156E+04</pdfrwt>
<pdfrwt beam="2">  1       -2 0.12233092E+00 0.32730156E+04</pdfrwt>
<totfact> 0.42410204E-01</totfact>
</mgrwt>
</event>
<event>
 6    1  0.8968082E-007  0.2426897E+04  0.7818608E-02  0.8429502E-01
         -1   -1    0    0    0  501 -0.00000000000E+00  0.00000000000E+00  0.22122739097E+04  0.22122739097E+04  0.00000000000E+00 0.  1.
          1   -1    0    0  501    0  0.00000000000E+00 -0.00000000000E+00 -0.66558561097E+03  0.66558561097E+03  0.00000000000E+00 0. -1.
         23    2    1    2    0    0  0.10014745363E+04 -0.25816739179E+03  0.15232994016E+04  0.18433796081E+04  0.89474373845E+02 0.  0.
         11    1    3    3    0    0  0.76242533581E+03 -0.18086488171E+03  0.12136437727E+04  0.14446230322E+04  0.00000000000E+00 0.  1.
        -11    1    3    3    0    0  0.23904920048E+03 -0.77302510078E+02  0.30965562898E+03  0.39875657596E+03  0.00000000000E+00 0. -1.
         22    1    1    2    0    0 -0.10014745363E+04  0.25816739179E+03  0.23388897119E+02  0.10344799126E+04  0.00000000000E+00 0. -1.
<mgrwt>
<rscale>  0 0.24268973E+04</rscale>
<asrwt>0</asrwt>
<pdfrwt beam="1">  1        1 0.10239779E+00 0.24268973E+04</pdfrwt>
<pdfrwt beam="2">  1       -1 0.34034983E+00 0.24268973E+04</pdfrwt>
<totfact> 0.47323882E-01</totfact>
</mgrwt>
</event>
<event>
 6    1  0.8968082E-007  0.2671092E+04  0.7818608E-02  0.8344446E-01
         -2   -1    0    0    0  501 -0.00000000000E+00  0.00000000000E+00  0.63964794842E+03  0.63964794842E+03  0.00000000000E+00 0.  1.
          2   -1    0    0  501    0  0.00000000000E+00 -0.00000000000E+00 -0.27885389869E+04  0.27885389869E+04  0.00000000000E+00 0. -1.
         23    2    1    2    0    0 -0.87754551920E+03 -0.96728214008E+03 -0.72648019655E+03  0.14971319180E+04  0.88936084339E+02 0.  0.
         11    1    3    3    0    0 -0.55798524048E+03 -0.67718871043E+03 -0.48906222994E+03  0.10045466355E+04  0.00000000000E+00 0.  1.
        -11    1    3    3    0    0 -0.31956027873E+03 -0.29009342964E+03 -0.23741796662E+03  0.49258528250E+03  0.00000000000E+00 0. -1.
         22    1    1    2    0    0  0.87754551920E+03  0.96728214008E+03 -0.14224108420E+04  0.19310550174E+04  0.00000000000E+00 0.  1.
<mgrwt>
<rscale>  0 0.26710921E+04</rscale>
<asrwt>0</asrwt>
<pdfrwt beam="1">  1        2 0.42900599E+00 0.26710921E+04</pdfrwt>
<pdfrwt beam="2">  1       -2 0.98407378E-01 0.26710921E+04</pdfrwt>
<totfact> 0.17722356E+00</totfact>
</mgrwt>
</event>
<event>
 6    1  0.8968082E-007  0.1070908E+04  0.7818608E-02  0.9234020E-01
          1   -1    0    0  501    0  0.00000000000E+00  0.00000000000E+00  0.63988678239E+03  0.63988678239E+03  0.00000000000E+00 0. -1.
         -1   -1    0    0    0  501 -0.00000000000E+00 -0.00000000000E+00 -0.44806510949E+03  0.44806510949E+03  0.00000000000E+00 0.  1.
         23    2    1    2    0    0 -0.16204008693E+03  0.23864489928E+03 -0.35677680707E+03  0.46813847646E+03  0.93035290947E+02 0.  0.
         11    1    3    3    0    0 -0.10160661133E+03  0.20389968638E+03 -0.23163259758E+03  0.32488866683E+03  0.00000000000E+00 0. -1.
        -11    1    3    3    0    0 -0.60433475597E+02  0.34745212893E+02 -0.12514420948E+03  0.14324980963E+03  0.00000000000E+00 0.  1.
         22    1    1    2    0    0  0.16204008693E+03 -0.23864489928E+03  0.54859847996E+03  0.61981341542E+03  0.00000000000E+00 0. -1.
<mgrwt>
<rscale>  0 0.10709079E+04</rscale>
<asrwt>0</asrwt>
<pdfrwt beam="1">  1        1 0.98444120E-01 0.10709079E+04</pdfrwt>
<pdfrwt beam="2">  1       -1 0.68933094E-01 0.10709079E+04</pdfrwt>
<totfact> 0.66291097E+01</totfact>
</mgrwt>
</event>
<event>
 6    1  0.8968082E-007  0.3327748E+04  0.7818608E-02  0.8155871E-01
         -2   -1    0    0    0  501 -0.00000000000E+00  0.00000000000E+00  0.13358994299E+04  0.13358994299E+04  0.00000000000E+00 0.  1.
          2   -1    0    0  501    0  0.00000000000E+00 -0.00000000000E+00 -0.20723688242E+04  0.20723688242E+04  0.00000000000E+00 0. -1.
         23    2    1    2    0    0 -0.13454461299E+04 -0.13293729121E+03 -0.13596233713E+04  0.19195713437E+04  0.90999011373E+02 0.  0.
         11    1    3    3    0    0 -0.45562988614E+03 -0.45354282961E+02 -0.40043200499E+03  0.60827739951E+03  0.00000000000E+00 0. -1.
        -11    1    3    3    0    0 -0.88981624375E+03 -0.87583008244E+02 -0.95919136626E+03  0.13112939442E+04  0.00000000000E+00 0.  1.
         22    1    1    2    0    0  0.13454461299E+04  0.13293729121E+03  0.62315397699E+03  0.14886969103E+04  0.00000000000E+00 0.  1.
<mgrwt>
<rscale>  0 0.33277478E+04</rscale>
<asrwt>0</asrwt>
<pdfrwt beam="1">  1        2 0.31882597E+00 0.33277478E+04</pdfrwt>
<pdfrwt beam="2">  1       -2 0.20552299E+00 0.33277478E+04</pdfrwt>
<totfact> 0.62105233E-01</totfact>
</mgrwt>
</event>
<event>
 6    1  0.8968082E-007  0.4478521E+04  0.7818608E-02  0.7914408E-01
          1   -1    0    0  501    0  0.00000000000E+00  0.00000000000E+00  0.14220872620E+04  0.14220872620E+04  0.00000000000E+00 0. -1.
         -1   -1    0    0    0  501 -0.00000000000E+00 -0.00000000000E+00 -0.35260059324E+04  0.35260059324E+04  0.00000000000E+00 0.  1.
         23    2    1    2    0    0 -0.11678054737E+03  0.15302487051E+04  0.74784004843E+03  0.17096017885E+04  0.90414277835E+02 0.  0.
         13    1    3    3    0    0 -0.54384179353E+02  0.76729629559E+03  0.42488226700E+03  0.87876400985E+03  0.00000000000E+00 0. -1.
        -13    1    3    3    0    0 -0.62396368022E+02  0.76295240946E+03  0.32295778143E+03  0.83083777864E+03  0.00000000000E+00 0.  1.
         22    1    1    2    0    0  0.11678054737E+03 -0.15302487051E+04 -0.28517587189E+04  0.32384914059E+04  0.00000000000E+00 0.  1.
<mgrwt>
<rscale>  0 0.44785212E+04</rscale>
<asrwt>0</asrwt>
<pdfrwt beam="1">  1        1 0.21878266E+00 0.44785212E+04</pdfrwt>
<pdfrwt beam="2">  1       -1 0.54246245E+00 0.44785212E+04</pdfrwt>
<totfact> 0.46291896E-03</totfact>
</mgrwt>
</event>
<event>
 6    1  0.8968082E-007  0.5748617E+03  0.7818608E-02  0.9958978E-01
         -1   -1    0    0    0  501 -0.00000000000E+00  0.00000000000E+00  0.21845385957E+03  0.21845385957E+03  0.00000000000E+00 0.  1.
          1   -1    0    0  501    0  0.00000000000E+00 -0.00000000000E+00 -0.37818742830E+03  0.37818742830E+03  0.00000000000E+00 0. -1.
         23    2    1    2    0    0 -0.22818539487E+03 -0.22942507026E+02 -0.24966406955E+03  0.35030325176E+03  0.88234276311E+02 0.  0.
         13    1    3    3    0    0 -0.98361014330E+02  0.26863840892E+02 -0.14008998524E+03  0.17326788235E+03  0.00000000000E+00 0.  1.
        -13    1    3    3    0    0 -0.12982438053E+03 -0.49806347917E+02 -0.10957408430E+03  0.17703536942E+03  0.00000000000E+00 0. -1.
         22    1    1    2    0    0  0.22818539487E+03  0.22942507026E+02  0.89930500814E+02  0.24633803611E+03  0.00000000000E+00 0.  1.
<mgrwt>
<rscale>  0 0.57486173E+03</rscale>
<asrwt>0</asrwt>
<pdfrwt beam="1">  1        1 0.58182680E-01 0.57486173E+03</pdfrwt>
<pdfrwt beam="2">  1       -1 0.33608287E-01 0.57486173E+03</pdfrwt>
<totfact> 0.54489732E+02</totfact>
</mgrwt>
</event>
<event>
 6    1  0.8968082E-007  0.1689560E+04  0.7818608E-02  0.8767341E-01
          1   -1    0    0  501    0  0.00000000000E+00  0.00000000000E+00  0.36844997437E+03  0.36844997437E+03  0.00000000000E+00 0. -1.
         -1   -1    0    0    0  501 -0.00000000000E+00 -0.00000000000E+00 -0.19369073791E+04  0.19369073791E+04  0.00000000000E+00 0.  1.
         23    2    1    2    0    0  0.24071222741E+03  0.65391954630E+03 -0.14069978271E+03  0.71663302977E+03  0.90627374726E+02 0.  0.
         11    1    3    3    0    0  0.12570876332E+03  0.26206150875E+03 -0.94569486463E+02  0.30565064259E+03  0.00000000000E+00 0. -1.
        -11    1    3    3    0    0  0.11500346408E+03  0.39185803755E+03 -0.46130296242E+02  0.41098238718E+03  0.00000000000E+00 0.  1.
         22    1    1    2    0    0 -0.24071222741E+03 -0.65391954630E+03 -0.14277576221E+04  0.15887243237E+04  0.00000000000E+00 0.  1.
<mgrwt>
<rscale>  0 0.16895603E+04</rscale>
<asrwt>0</asrwt>
<pdfrwt beam="1">  1        1 0.56684612E-01 0.16895603E+04</pdfrwt>
<pdfrwt beam="2">  1       -1 0.29798575E+00 0.16895603E+04</pdfrwt>
<totfact> 0.21724422E+00</totfact>
</mgrwt>
</event>
<event>
 6    1  0.8968082E-007  0.3384445E+04  0.7818608E-02  0.8141735E-01
         -2   -1    0    0    0  501 -0.00000000000E+00  0.00000000000E+00  0.98269153308E+03  0.98269153308E+03  0.00000000000E+00 0.  1.
          2   -1    0    0  501    0  0.00000000000E+00 -0.00000000000E+00 -0.29140543710E+04  0.29140543710E+04  0.00000000000E+00 0. -1.
         23    2    1    2    0    0  0.90122357876E+03 -0.13385786582E+04 -0.15481902311E+04  0.22381868881E+04  0.92686521686E+02 0.  0.
         11    1    3    3    0    0  0.62487901893E+03 -0.84934942295E+03 -0.10147768080E+04  0.14634343855E+04  0.00000000000E+00 0.  1.
        -11    1    3    3    0    0  0.27634455982E+03 -0.48922923522E+03 -0.53341342306E+03  0.77475250257E+03  0.00000000000E+00 0. -1.
         22    1    1    2    0    0 -0.90122357876E+03  0.13385786582E+04 -0.38317260686E+03  0.16585590160E+04  0.00000000000E+00 0. -1.
<mgrwt>
<rscale>  0 0.33844447E+04</rscale>
<asrwt>0</asrwt>
<pdfrwt beam="1">  1        2 0.44831605E+00 0.33844447E+04</pdfrwt>
<pdfrwt beam="2">  1       -2 0.15118331E+00 0.33844447E+04</pdfrwt>
<totfact> 0.47904117E-01</totfact>
</mgrwt>
</event>
<event>
 6    1  0.8968082E-007  0.3328339E+04  0.7818608E-02  0.8155722E-01
         -2   -1    0    0    0  501 -0.00000000000E+00  0.00000000000E+00  0.92289658816E+03  0.92289658816E+03  0.00000000000E+00 0.  1.
          2   -1    0    0  501    0  0.00000000000E+00 -0.00000000000E+00 -0.30008348244E+04  0.30008348244E+04  0.00000000000E+00 0. -1.
         23    2    1    2    0    0 -0.96875186653E+03 -0.12961842303E+04 -0.58821473749E+03  0.17242201395E+04  0.91459139147E+02 0.  0.
         13    1    3    3    0    0 -0.60075422055E+03 -0.86867361746E+03 -0.36236789459E+03  0.11166064563E+04  0.00000000000E+00 0. -1.
        -13    1    3    3    0    0 -0.36799764597E+03 -0.42751061284E+03 -0.22584684290E+03  0.60761368318E+03  0.00000000000E+00 0.  1.
         22    1    1    2    0    0  0.96875186653E+03  0.12961842303E+04 -0.14897234988E+04  0.21995112731E+04  0.00000000000E+00 0. -1.
<mgrwt>
<rscale>  0 0.33283391E+04</rscale>
<asrwt>0</asrwt>
<pdfrwt beam="1">  1        2 0.46166690E+00 0.33283391E+04</pdfrwt>
<pdfrwt beam="2">  1       -2 0.14198409E+00 0.33283391E+04</pdfrwt>
<totfact> 0.50135915E-01</totfact>
</mgrwt>
</event>
<event>
 6    1  0.1091025E-006  0.1316203E+04  0.7818608E-02  0.9016814E-01
         -2   -1    0    0    0  501 -0.00000000000E+00  0.00000000000E+00  0.28391277552E+03  0.28391277552E+03  0.00000000000E+00 0.  1.
          2   -1    0    0  501    0  0.00000000000E+00 -0.00000000000E+00 -0.15254607983E+04  0.15254607983E+04  0.00000000000E+00 0. -1.
         23    2    1    2    0    0  0.38560339288E+03  0.52611376027E+03 -0.70400020088E+03  0.96412607976E+03  0.91853957438E+02 0.  0.
         13    1    3    3    0    0  0.19797919465E+03  0.28117236293E+03 -0.30426388264E+03  0.45916246523E+03  0.00000000000E+00 0. -1.
        -13    1    3    3    0    0  0.18762419823E+03  0.24494139734E+03 -0.39973631823E+03  0.50496361454E+03  0.00000000000E+00 0.  1.
         22    1    1    2    0    0 -0.38560339288E+03 -0.52611376027E+03 -0.53754782186E+03  0.84524749401E+03  0.00000000000E+00 0. -1.
<mgrwt>
<rscale>  0 0.13162033E+04</rscale>
<asrwt>0</asrwt>
<pdfrwt beam="1">  1        2 0.23468627E+00 0.13162033E+04</pdfrwt>
<pdfrwt beam="2">  1       -2 0.43678889E-01 0.13162033E+04</pdfrwt>
<totfact> 0.59742263E+01</totfact>
</mgrwt>
</event>
<event>
 6    1  0.8968082E-007  0.1299826E+04  0.7818608E-02  0.9029703E-01
          2   -1    0    0  501    0  0.00000000000E+00  0.00000000000E+00  0.89315597550E+03  0.89315597550E+03  0.00000000000E+00 0. -1.
         -2   -1    0    0    0  501 -0.00000000000E+00 -0.00000000000E+00 -0.47291531004E+03  0.47291531004E+03  0.00000000000E+00 0.  1.
         23    2    1    2    0    0  0.26304628124E+03  0.53281052386E+03 -0.56946953689E+02  0.60397652484E+03  0.92001557675E+02 0.  0.
         13    1    3    3    0    0  0.10675325388E+03  0.14186728308E+03  0.92019663003E+01  0.17778430585E+03  0.00000000000E+00 0. -1.
        -13    1    3    3    0    0  0.15629302735E+03  0.39094324078E+03 -0.66148919990E+02  0.42619221899E+03  0.00000000000E+00 0.  1.
         22    1    1    2    0    0 -0.26304628124E+03 -0.53281052386E+03  0.47718761915E+03  0.76209476069E+03  0.00000000000E+00 0. -1.
<mgrwt>
<rscale>  0 0.12998264E+04</rscale>
<asrwt>0</asrwt>
<pdfrwt beam="1">  1        2 0.13740861E+00 0.12998264E+04</pdfrwt>
<pdfrwt beam="2">  1       -2 0.72756202E-01 0.12998264E+04</pdfrwt>
<totfact> 0.49628293E+01</totfact>
</mgrwt>
</event>
<event>
 6    1  0.8968082E-007  0.2788679E+04  0.7818608E-02  0.8306792E-01
         -2   -1    0    0    0  501 -0.00000000000E+00  0.00000000000E+00  0.91584916464E+03  0.91584916464E+03  0.00000000000E+00 0.  1.
          2   -1    0    0  501    0  0.00000000000E+00 -0.00000000000E+00 -0.21228190979E+04  0.21228190979E+04  0.00000000000E+00 0. -1.
         23    2    1    2    0    0  0.10289637637E+04 -0.73921103258E+03  0.25839585206E+02  0.12708960242E+04  0.96486489646E+02 0.  0.
         11    1    3    3    0    0  0.43124493314E+03 -0.27929603849E+03 -0.29900002517E+02  0.51465763340E+03  0.00000000000E+00 0.  1.
        -11    1    3    3    0    0  0.59771883052E+03 -0.45991499409E+03  0.55739587723E+02  0.75623839084E+03  0.00000000000E+00 0. -1.
         22    1    1    2    0    0 -0.10289637637E+04  0.73921103258E+03 -0.12328095184E+04  0.17677722382E+04  0.00000000000E+00 0. -1.
<mgrwt>
<rscale>  0 0.27886786E+04</rscale>
<asrwt>0</asrwt>
<pdfrwt beam="1">  1        2 0.32658755E+00 0.27886786E+04</pdfrwt>
<pdfrwt beam="2">  1       -2 0.14089987E+00 0.27886786E+04</pdfrwt>
<totfact> 0.17552769E+00</totfact>
</mgrwt>
</event>
<event>
 6    1  0.8968082E-007  0.1253387E+04  0.7818608E-02  0.9067369E-01
          2   -1    0    0  501    0  0.00000000000E+00  0.00000000000E+00  0.73088099372E+03  0.73088099372E+03  0.00000000000E+00 0. -1.
         -2   -1    0    0    0  501 -0.00000000000E+00 -0.00000000000E+00 -0.53735771321E+03  0.53735771321E+03  0.00000000000E+00 0.  1.
         23    2    1    2    0    0 -0.15306204582E+03 -0.15514221112E+03 -0.49381412200E+03  0.54717712813E+03  0.89740330505E+02 0.  0.
         13    1    3    3    0    0 -0.88723889469E+02 -0.96821253010E+02 -0.39172007485E+03  0.41314755310E+03  0.00000000000E+00 0.  1.
        -13    1    3    3    0    0 -0.64338156355E+02 -0.58320958106E+02 -0.10209404715E+03  0.13402957502E+03  0.00000000000E+00 0. -1.
         22    1    1    2    0    0  0.15306204582E+03  0.15514221112E+03  0.68733740251E+03  0.72106157881E+03  0.00000000000E+00 0. -1.
<mgrwt>
<rscale>  0 0.12533867E+04</rscale>
<asrwt>0</asrwt>
<pdfrwt beam="1">  1        2 0.11244323E+00 0.12533867E+04</pdfrwt>
<pdfrwt beam="2">  1       -2 0.82670417E-01 0.12533867E+04</pdfrwt>
<totfact> 0.48954962E+01</totfact>
</mgrwt>
</event>
<event>
 6    1  0.8968082E-007  0.1311330E+04  0.7818608E-02  0.9020628E-01
         -4   -1    0    0    0  501 -0.00000000000E+00  0.00000000000E+00  0.31215335651E+03  0.31215335651E+03  0.00000000000E+00 0.  1.
          4   -1    0    0  501    0  0.00000000000E+00 -0.00000000000E+00 -0.13771965928E+04  0.13771965928E+04  0.00000000000E+00 0. -1.
         23    2    1    2    0    0  0.40250799730E+03 -0.42890252635E+02  0.12429352954E+03  0.43301631359E+03  0.90564809336E+02 0.  0.
         11    1    3    3    0    0  0.87510831689E+02 -0.38389483385E+02  0.55688393148E+02  0.11060332377E+03  0.00000000000E+00 0. -1.
        -11    1    3    3    0    0  0.31499716561E+03 -0.45007692499E+01  0.68605136388E+02  0.32241298982E+03  0.00000000000E+00 0.  1.
         22    1    1    2    0    0 -0.40250799730E+03  0.42890252635E+02 -0.11893367658E+04  0.12563336357E+04  0.00000000000E+00 0. -1.
<mgrwt>
<rscale>  0 0.13113299E+04</rscale>
<asrwt>0</asrwt>
<pdfrwt beam="1">  1        4 0.21187640E+00 0.13113299E+04</pdfrwt>
<pdfrwt beam="2">  1       -4 0.48023594E-01 0.13113299E+04</pdfrwt>
<totfact> 0.90472005E-01</totfact>
</mgrwt>
</event>
<event>
 6    1  0.8968082E-007  0.2070327E+04  0.7818608E-02  0.8574429E-01
         -1   -1    0    0    0  501 -0.00000000000E+00  0.00000000000E+00  0.77357869627E+03  0.77357869627E+03  0.00000000000E+00 0.  1.
          1   -1    0    0  501    0  0.00000000000E+00 -0.00000000000E+00 -0.13852025387E+04  0.13852025387E+04  0.00000000000E+00 0. -1.
         23    2    1    2    0    0 -0.44436861134E+03 -0.41002136787E+03 -0.11799550058E+04  0.13289732474E+04  0.91077394497E+02 0.  0.
         13    1    3    3    0    0 -0.53948031124E+02 -0.53132098920E+02 -0.22371604304E+03  0.23618272145E+03  0.00000000000E+00 0. -1.
        -13    1    3    3    0    0 -0.39042058021E+03 -0.35688926895E+03 -0.95623896276E+03  0.10927905260E+04  0.00000000000E+00 0.  1.
         22    1    1    2    0    0  0.44436861134E+03  0.41002136787E+03  0.56833116341E+03  0.82980798752E+03  0.00000000000E+00 0.  1.
<mgrwt>
<rscale>  0 0.20703267E+04</rscale>
<asrwt>0</asrwt>
<pdfrwt beam="1">  1        1 0.21310808E+00 0.20703267E+04</pdfrwt>
<pdfrwt beam="2">  1       -1 0.11901211E+00 0.20703267E+04</pdfrwt>
<totfact> 0.45840727E+00</totfact>
</mgrwt>
</event>
<event>
 6    1  0.8968082E-007  0.3195288E+04  0.7818608E-02  0.8190063E-01
         -2   -1    0    0    0  501 -0.00000000000E+00  0.00000000000E+00  0.11519369667E+04  0.11519369667E+04  0.00000000000E+00 0.  1.
          2   -1    0    0  501    0  0.00000000000E+00 -0.00000000000E+00 -0.22158032488E+04  0.22158032488E+04  0.00000000000E+00 0. -1.
         23    2    1    2    0    0  0.15270731035E+04  0.22496121356E+03 -0.10341037501E+03  0.15497645941E+04  0.92286404195E+02 0.  0.
         11    1    3    3    0    0  0.11387510932E+04  0.15435525537E+03 -0.11500906917E+03  0.11549054866E+04  0.00000000000E+00 0.  1.
        -11    1    3    3    0    0  0.38832201030E+03  0.70605958191E+02  0.11598694163E+02  0.39485910743E+03  0.00000000000E+00 0. -1.
         22    1    1    2    0    0 -0.15270731035E+04 -0.22496121356E+03 -0.96045590709E+03  0.18179756215E+04  0.00000000000E+00 0. -1.
<mgrwt>
<rscale>  0 0.31952876E+04</rscale>
<asrwt>0</asrwt>
<pdfrwt beam="1">  1        2 0.34089281E+00 0.31952876E+04</pdfrwt>
<pdfrwt beam="2">  1       -2 0.17722107E+00 0.31952876E+04</pdfrwt>
<totfact> 0.80787513E-01</totfact>
</mgrwt>
</event>
<event>
 6    1  0.8968082E-007  0.1690700E+04  0.7818608E-02  0.8766686E-01
         -1   -1    0    0    0  501 -0.00000000000E+00  0.00000000000E+00  0.11229836159E+04  0.11229836159E+04  0.00000000000E+00 0.  1.
          1   -1    0    0  501    0  0.00000000000E+00 -0.00000000000E+00 -0.63635524628E+03  0.63635524628E+03  0.00000000000E+00 0. -1.
         23    2    1    2    0    0  0.95002596003E+02  0.83562570951E+03  0.18687799059E+03  0.86650846994E+03  0.92831705082E+02 0.  0.
         11    1    3    3    0    0  0.80356028106E+02  0.54224826890E+03  0.80257476190E+02  0.55401402407E+03  0.00000000000E+00 0. -1.
        -11    1    3    3    0    0  0.14646567897E+02  0.29337744060E+03  0.10662051440E+03  0.31249444587E+03  0.00000000000E+00 0.  1.
         22    1    1    2    0    0 -0.95002596003E+02 -0.83562570951E+03  0.29975037907E+03  0.89283039229E+03  0.00000000000E+00 0. -1.
<mgrwt>
<rscale>  0 0.16906999E+04</rscale>
<asrwt>0</asrwt>
<pdfrwt beam="1">  1        1 0.97900807E-01 0.16906999E+04</pdfrwt>
<pdfrwt beam="2">  1       -1 0.17276671E+00 0.16906999E+04</pdfrwt>
<totfact> 0.70280598E+00</totfact>
</mgrwt>
</event>
<event>
 6    1  0.8968082E-007  0.1605912E+04  0.7818608E-02  0.8816924E-01
         -1   -1    0    0    0  501 -0.00000000000E+00  0.00000000000E+00  0.64652536037E+03  0.64652536037E+03  0.00000000000E+00 0.  1.
          1   -1    0    0  501    0  0.00000000000E+00 -0.00000000000E+00 -0.99723649831E+03  0.99723649831E+03  0.00000000000E+00 0. -1.
         23    2    1    2    0    0  0.49412436353E+03 -0.18666482106E+03 -0.79130110715E+03  0.95592309631E+03  0.92891774773E+02 0.  0.
         11    1    3    3    0    0  0.12298194007E+03 -0.89205416344E+02 -0.24622770172E+03  0.28932722821E+03  0.00000000000E+00 0. -1.
        -11    1    3    3    0    0  0.37114242346E+03 -0.97459404716E+02 -0.54507340544E+03  0.66659586810E+03  0.00000000000E+00 0.  1.
         22    1    1    2    0    0 -0.49412436353E+03  0.18666482106E+03  0.44058996921E+03  0.68783876237E+03  0.00000000000E+00 0.  1.
<mgrwt>
<rscale>  0 0.16059124E+04</rscale>
<asrwt>0</asrwt>
<pdfrwt beam="1">  1        1 0.15342100E+00 0.16059124E+04</pdfrwt>
<pdfrwt beam="2">  1       -1 0.99465440E-01 0.16059124E+04</pdfrwt>
<totfact> 0.14075313E+01</totfact>
</mgrwt>
</event>
<event>
 6    1  0.8968082E-007  0.4874688E+04  0.7818608E-02  0.7848134E-01
          2   -1    0    0  501    0  0.00000000000E+00  0.00000000000E+00  0.23812812045E+04  0.23812812045E+04  0.00000000000E+00 0. -1.
         -2   -1    0    0    0  501 -0.00000000000E+00 -0.00000000000E+00 -0.24947269343E+04  0.24947269343E+04  0.00000000000E+00 0.  1.
         23    2    1    2    0    0  0.18230926109E+04  0.31325107622E+03  0.15294350702E+04  0.24019729273E+04  0.92246436031E+02 0.  0.
         11    1    3    3    0    0  0.43760172396E+03  0.45943055326E+02  0.32943660142E+03  0.54966763366E+03  0.00000000000E+00 0.  1.
        -11    1    3    3    0    0  0.13854908869E+04  0.26730802089E+03  0.11999984688E+04  0.18523052937E+04  0.00000000000E+00 0. -1.
         22    1    1    2    0    0 -0.18230926109E+04 -0.31325107622E+03 -0.16428808000E+04  0.24740352115E+04  0.00000000000E+00 0.  1.
<mgrwt>
<rscale>  0 0.48746882E+04</rscale>
<asrwt>0</asrwt>
<pdfrwt beam="1">  1        2 0.36635096E+00 0.48746882E+04</pdfrwt>
<pdfrwt beam="2">  1       -2 0.38380414E+00 0.48746882E+04</pdfrwt>
<totfact> 0.28357230E-02</totfact>
</mgrwt>
</event>
<event>
 6    1  0.8968082E-007  0.9292199E+03  0.7818608E-02  0.9389775E-01
         -2   -1    0    0    0  501 -0.00000000000E+00  0.00000000000E+00  0.35093722214E+03  0.35093722214E+03  0.00000000000E+00 0.  1.
          2   -1    0    0  501    0  0.00000000000E+00 -0.00000000000E+00 -0.61510262425E+03  0.61510262425E+03  0.00000000000E+00 0. -1.
         23    2    1    2    0    0  0.20007441449E+03  0.41375822107E+03 -0.12624421945E+03  0.48619832103E+03  0.96049818295E+02 0.  0.
         13    1    3    3    0    0  0.58794310052E+02  0.23083224321E+03 -0.70952779675E+02  0.24854495035E+03  0.00000000000E+00 0. -1.
        -13    1    3    3    0    0  0.14128010443E+03  0.18292597786E+03 -0.55291439779E+02  0.23765337068E+03  0.00000000000E+00 0.  1.
         22    1    1    2    0    0 -0.20007441449E+03 -0.41375822107E+03 -0.13792118266E+03  0.47984152536E+03  0.00000000000E+00 0.  1.
<mgrwt>
<rscale>  0 0.92921990E+03</rscale>
<asrwt>0</asrwt>
<pdfrwt beam="1">  1        2 0.94631173E-01 0.92921990E+03</pdfrwt>
<pdfrwt beam="2">  1       -2 0.53990342E-01 0.92921990E+03</pdfrwt>
<totfact> 0.15582488E+02</totfact>
</mgrwt>
</event>
<event>
 6    1  0.8968082E-007  0.9800128E+03  0.7818608E-02  0.9330742E-01
         -1   -1    0    0    0  501 -0.00000000000E+00  0.00000000000E+00  0.98219588566E+03  0.98219588566E+03  0.00000000000E+00 0.  1.
          1   -1    0    0  501    0  0.00000000000E+00 -0.00000000000E+00 -0.24445864172E+03  0.24445864172E+03  0.00000000000E+00 0. -1.
         23    2    1    2    0    0  0.39899853098E+03 -0.17033050126E+02  0.71824642600E+03  0.82681725485E+03  0.90878445891E+02 0.  0.
         11    1    3    3    0    0  0.31226550884E+03  0.22206431089E+02  0.57762464184E+03  0.65700312058E+03  0.00000000000E+00 0.  1.
        -11    1    3    3    0    0  0.86733022145E+02 -0.39239481215E+02  0.14062178417E+03  0.16981413427E+03  0.00000000000E+00 0. -1.
         22    1    1    2    0    0 -0.39899853098E+03  0.17033050126E+02  0.19490817939E+02  0.39983727253E+03  0.00000000000E+00 0. -1.
<mgrwt>
<rscale>  0 0.98001280E+03</rscale>
<asrwt>0</asrwt>
<pdfrwt beam="1">  1        1 0.37609022E-01 0.98001280E+03</pdfrwt>
<pdfrwt beam="2">  1       -1 0.15110706E+00 0.98001280E+03</pdfrwt>
<totfact> 0.39328652E+01</totfact>
</mgrwt>
</event>
<event>
 6    1  0.8968082E-007  0.2849657E+04  0.7818608E-02  0.8288016E-01
          2   -1    0    0  501    0  0.00000000000E+00  0.00000000000E+00  0.12603018787E+04  0.12603018787E+04  0.00000000000E+00 0. -1.
         -2   -1    0    0    0  501 -0.00000000000E+00 -0.00000000000E+00 -0.16108334602E+04  0.16108334602E+04  0.00000000000E+00 0.  1.
         23    2    1    2    0    0  0.81834192737E+03  0.46226649853E+03  0.90130403094E+03  0.13057388311E+04  0.96078682163E+02 0.  0.
         11    1    3    3    0    0  0.35249263470E+03  0.15154611909E+03  0.33541925789E+03  0.50963061357E+03  0.00000000000E+00 0.  1.
        -11    1    3    3    0    0  0.46584929266E+03  0.31072037945E+03  0.56588477305E+03  0.79610821755E+03  0.00000000000E+00 0. -1.
         22    1    1    2    0    0 -0.81834192737E+03 -0.46226649853E+03 -0.12518356125E+04  0.15653965077E+04  0.00000000000E+00 0.  1.
<mgrwt>
<rscale>  0 0.28496571E+04</rscale>
<asrwt>0</asrwt>
<pdfrwt beam="1">  1        2 0.19389260E+00 0.28496571E+04</pdfrwt>
<pdfrwt beam="2">  1       -2 0.24782053E+00 0.28496571E+04</pdfrwt>
<totfact> 0.10018512E+00</totfact>
</mgrwt>
</event>
<event>
 6    1  0.8968082E-007  0.2724777E+04  0.7818608E-02  0.8327010E-01
         -2   -1    0    0    0  501 -0.00000000000E+00  0.00000000000E+00  0.59233882151E+03  0.59233882151E+03  0.00000000000E+00 0.  1.
          2   -1    0    0  501    0  0.00000000000E+00 -0.00000000000E+00 -0.31335142630E+04  0.31335142630E+04  0.00000000000E+00 0. -1.
         23    2    1    2    0    0  0.56907728225E+03 -0.17314380937E+03 -0.29456664968E+04  0.30065195419E+04  0.91547329486E+02 0.  0.
         13    1    3    3    0    0  0.24021294039E+03 -0.11858268164E+03 -0.12466253761E+04  0.12750838943E+04  0.00000000000E+00 0.  1.
        -13    1    3    3    0    0  0.32886434186E+03 -0.54561127728E+02 -0.16990411207E+04  0.17314356476E+04  0.00000000000E+00 0. -1.
         22    1    1    2    0    0 -0.56907728225E+03  0.17314380937E+03  0.40449105522E+03  0.71933354269E+03  0.00000000000E+00 0.  1.
<mgrwt>
<rscale>  0 0.27247768E+04</rscale>
<asrwt>0</asrwt>
<pdfrwt beam="1">  1        2 0.48207910E+00 0.27247768E+04</pdfrwt>
<pdfrwt beam="2">  1       -2 0.91129052E-01 0.27247768E+04</pdfrwt>
<totfact> 0.12870877E+00</totfact>
</mgrwt>
</event>
<event>
 6    1  0.8968082E-007  0.1345129E+04  0.7818608E-02  0.8994524E-01
         -1   -1    0    0    0  501 -0.00000000000E+00  0.00000000000E+00  0.36160765497E+03  0.36160765497E+03  0.00000000000E+00 0.  1.
          1   -1    0    0  501    0  0.00000000000E+00 -0.00000000000E+00 -0.12509218110E+04  0.12509218110E+04  0.00000000000E+00 0. -1.
         23    2    1    2    0    0  0.50335634581E+03 -0.35904336616E+03 -0.13931066531E+03  0.64052895889E+03  0.92682986883E+02 0.  0.
         13    1    3    3    0    0  0.68552070127E+02 -0.73845530435E+02  0.49962734387E+01  0.10088365295E+03  0.00000000000E+00 0.  1.
        -13    1    3    3    0    0  0.43480427569E+03 -0.28519783572E+03 -0.14430693875E+03  0.53964530594E+03  0.00000000000E+00 0. -1.
         22    1    1    2    0    0 -0.50335634581E+03  0.35904336616E+03 -0.75000349069E+03  0.97200050705E+03  0.00000000000E+00 0. -1.
<mgrwt>
<rscale>  0 0.13451288E+04</rscale>
<asrwt>0</asrwt>
<pdfrwt beam="1">  1        1 0.19244951E+00 0.13451288E+04</pdfrwt>
<pdfrwt beam="2">  1       -1 0.55631948E-01 0.13451288E+04</pdfrwt>
<totfact> 0.31390452E+01</totfact>
</mgrwt>
</event>
<event>
 6    1  0.8968082E-007  0.2024310E+04  0.7818608E-02  0.8595339E-01
          1   -1    0    0  501    0  0.00000000000E+00  0.00000000000E+00  0.17891532088E+04  0.17891532088E+04  0.00000000000E+00 0. -1.
         -1   -1    0    0    0  501 -0.00000000000E+00 -0.00000000000E+00 -0.57259363158E+03  0.57259363158E+03  0.00000000000E+00 0.  1.
         23    2    1    2    0    0  0.58099966142E+03 -0.69728876883E+03  0.92316395865E+02  0.91686104401E+03  0.91321538394E+02 0.  0.
         13    1    3    3    0    0  0.53275518883E+03 -0.66944298002E+03  0.96584490051E+02  0.86099393635E+03  0.00000000000E+00 0.  1.
        -13    1    3    3    0    0  0.48244472586E+02 -0.27845788809E+02 -0.42680941862E+01  0.55867107653E+02  0.00000000000E+00 0. -1.
         22    1    1    2    0    0 -0.58099966142E+03  0.69728876883E+03  0.11242431813E+04  0.14448857964E+04  0.00000000000E+00 0. -1.
<mgrwt>
<rscale>  0 0.20243100E+04</rscale>
<asrwt>0</asrwt>
<pdfrwt beam="1">  1        1 0.27525434E+00 0.20243100E+04</pdfrwt>
<pdfrwt beam="2">  1       -1 0.88091329E-01 0.20243100E+04</pdfrwt>
<totfact> 0.48571515E+00</totfact>
</mgrwt>
</event>
<event>
 6    1  0.8968082E-007  0.1153005E+04  0.7818608E-02  0.9155016E-01
         -1   -1    0    0    0  501 -0.00000000000E+00  0.00000000000E+00  0.26941414473E+03  0.26941414473E+03  0.00000000000E+00 0.  1.
          1   -1    0    0  501    0  0.00000000000E+00 -0.00000000000E+00 -0.12336213122E+04  0.12336213122E+04  0.00000000000E+00 0. -1.
         23    2    1    2    0    0  0.16676598098E+03 -0.22869551001E+03 -0.11347073232E+04  0.11726072018E+04  0.85641180427E+02 0.  0.
         11    1    3    3    0    0  0.10931363144E+03 -0.14781660777E+03 -0.56016573643E+03  0.58956328907E+03  0.00000000000E+00 0.  1.
        -11    1    3    3    0    0  0.57452349539E+02 -0.80878902248E+02 -0.57454158673E+03  0.58304391274E+03  0.00000000000E+00 0. -1.
         22    1    1    2    0    0 -0.16676598098E+03  0.22869551001E+03  0.17050015567E+03  0.33042825514E+03  0.00000000000E+00 0.  1.
<mgrwt>
<rscale>  0 0.11530048E+04</rscale>
<asrwt>0</asrwt>
<pdfrwt beam="1">  1        1 0.18978790E+00 0.11530048E+04</pdfrwt>
<pdfrwt beam="2">  1       -1 0.41448330E-01 0.11530048E+04</pdfrwt>
<totfact> 0.57182140E+01</totfact>
</mgrwt>
</event>
<event>
 6    1  0.8968082E-007  0.5272489E+04  0.7818608E-02  0.7787795E-01
          2   -1    0    0  501    0  0.00000000000E+00  0.00000000000E+00  0.31589329712E+04  0.31589329712E+04  0.00000000000E+00 0. -1.
         -2   -1    0    0    0  501 -0.00000000000E+00 -0.00000000000E+00 -0.22000420312E+04  0.22000420312E+04  0.00000000000E+00 0.  1.
         23    2    1    2    0    0  0.98174049250E+03 -0.11398400708E+04  0.26790331118E+04  0.30738187992E+04  0.89965632812E+02 0.  0.
         13    1    3    3    0    0  0.52981962061E+03 -0.62063201972E+03  0.13616802489E+04  0.15874715854E+04  0.00000000000E+00 0. -1.
        -13    1    3    3    0    0  0.45192087189E+03 -0.51920805106E+03  0.13173528628E+04  0.14863472138E+04  0.00000000000E+00 0.  1.
         22    1    1    2    0    0 -0.98174049250E+03  0.11398400708E+04 -0.17201421718E+04  0.22851562032E+04  0.00000000000E+00 0.  1.
<mgrwt>
<rscale>  0 0.52724891E+04</rscale>
<asrwt>0</asrwt>
<pdfrwt beam="1">  1        2 0.48598969E+00 0.52724891E+04</pdfrwt>
<pdfrwt beam="2">  1       -2 0.33846800E+00 0.52724891E+04</pdfrwt>
<totfact> 0.18046944E-02</totfact>
</mgrwt>
</event>
<event>
 6    1  0.8968082E-007  0.2473898E+04  0.7818608E-02  0.8412344E-01
         -2   -1    0    0    0  501 -0.00000000000E+00  0.00000000000E+00  0.68369802840E+03  0.68369802840E+03  0.00000000000E+00 0.  1.
          2   -1    0    0  501    0  0.00000000000E+00 -0.00000000000E+00 -0.22378926786E+04  0.22378926786E+04  0.00000000000E+00 0. -1.
         23    2    1    2    0    0  0.79318675277E+03 -0.61948157895E+03  0.67948723462E+02  0.10125983613E+04  0.88519832544E+02 0.  0.
         13    1    3    3    0    0  0.52116211170E+03 -0.35407653342E+03  0.52222879226E+02  0.63222414325E+03  0.00000000000E+00 0. -1.
        -13    1    3    3    0    0  0.27202464107E+03 -0.26540504553E+03  0.15725844236E+02  0.38037421800E+03  0.00000000000E+00 0.  1.
         22    1    1    2    0    0 -0.79318675277E+03  0.61948157895E+03 -0.16221433737E+04  0.19089923458E+04  0.00000000000E+00 0. -1.
<mgrwt>
<rscale>  0 0.24738980E+04</rscale>
<asrwt>0</asrwt>
<pdfrwt beam="1">  1        2 0.34429118E+00 0.24738980E+04</pdfrwt>
<pdfrwt beam="2">  1       -2 0.10518431E+00 0.24738980E+04</pdfrwt>
<totfact> 0.32158194E+00</totfact>
</mgrwt>
</event>
<event>
 6    1  0.8968082E-007  0.1882401E+04  0.7818608E-02  0.8663666E-01
          1   -1    0    0  501    0  0.00000000000E+00  0.00000000000E+00  0.15261641823E+04  0.15261641823E+04  0.00000000000E+00 0. -1.
         -1   -1    0    0    0  501 -0.00000000000E+00 -0.00000000000E+00 -0.58044774813E+03  0.58044774813E+03  0.00000000000E+00 0.  1.
         23    2    1    2    0    0  0.31045160392E+02 -0.34844222796E+03 -0.50134439552E+03  0.61786721321E+03  0.89654347495E+02 0.  0.
         13    1    3    3    0    0 -0.28165398570E+02 -0.10842837411E+03 -0.12804234202E+03  0.17013184105E+03  0.00000000000E+00 0.  1.
        -13    1    3    3    0    0  0.59210558962E+02 -0.24001385385E+03 -0.37330205350E+03  0.44773537216E+03  0.00000000000E+00 0. -1.
         22    1    1    2    0    0 -0.31045160392E+02  0.34844222796E+03  0.14470608297E+04  0.14887447173E+04  0.00000000000E+00 0. -1.
<mgrwt>
<rscale>  0 0.18824012E+04</rscale>
<asrwt>0</asrwt>
<pdfrwt beam="1">  1        1 0.23479449E+00 0.18824012E+04</pdfrwt>
<pdfrwt beam="2">  1       -1 0.89299654E-01 0.18824012E+04</pdfrwt>
<totfact> 0.72246762E+00</totfact>
</mgrwt>
</event>
<event>
 6    1  0.8968082E-007  0.2936936E+04  0.7818608E-02  0.8261972E-01
          2   -1    0    0  501    0  0.00000000000E+00  0.00000000000E+00  0.20131050810E+04  0.20131050810E+04  0.00000000000E+00 0. -1.
         -2   -1    0    0    0  501 -0.00000000000E+00 -0.00000000000E+00 -0.10711800259E+04  0.10711800259E+04  0.00000000000E+00 0.  1.
         23    2    1    2    0    0 -0.36196210320E+03  0.63278935350E+03 -0.86678370683E+03  0.11341911821E+04  0.60305166036E+02 0.  0.
         11    1    3    3    0    0 -0.21454607987E+03  0.37434933943E+03 -0.55843899872E+03  0.70570642877E+03  0.00000000000E+00 0.  1.
        -11    1    3    3    0    0 -0.14741602333E+03  0.25844001406E+03 -0.30834470811E+03  0.42848475331E+03  0.00000000000E+00 0. -1.
         22    1    1    2    0    0  0.36196210320E+03 -0.63278935350E+03  0.18087087619E+04  0.19500939248E+04  0.00000000000E+00 0. -1.
<mgrwt>
<rscale>  0 0.29369358E+04</rscale>
<asrwt>0</asrwt>
<pdfrwt beam="1">  1        2 0.30970847E+00 0.29369358E+04</pdfrwt>
<pdfrwt beam="2">  1       -2 0.16479693E+00 0.29369358E+04</pdfrwt>
<totfact> 0.13133454E+00</totfact>
</mgrwt>
</event>
<event>
 6    1  0.8968082E-007  0.3129813E+04  0.7818608E-02  0.8207603E-01
         -2   -1    0    0    0  501 -0.00000000000E+00  0.00000000000E+00  0.24774062094E+04  0.24774062094E+04  0.00000000000E+00 0.  1.
          2   -1    0    0  501    0  0.00000000000E+00 -0.00000000000E+00 -0.98850631424E+03  0.98850631424E+03  0.00000000000E+00 0. -1.
         23    2    1    2    0    0 -0.13229290244E+04 -0.59845904017E+03  0.10259037507E+03  0.14583895445E+04  0.89893559685E+02 0.  0.
         11    1    3    3    0    0 -0.29504022805E+03 -0.13032549214E+03  0.60278409355E+02  0.32812643402E+03  0.00000000000E+00 0. -1.
        -11    1    3    3    0    0 -0.10278887963E+04 -0.46813354803E+03  0.42311965710E+02  0.11302631105E+04  0.00000000000E+00 0.  1.
         22    1    1    2    0    0  0.13229290244E+04  0.59845904017E+03  0.13863095201E+04  0.20075229791E+04  0.00000000000E+00 0.  1.
<mgrwt>
<rscale>  0 0.31298126E+04</rscale>
<asrwt>0</asrwt>
<pdfrwt beam="1">  1        2 0.15207789E+00 0.31298126E+04</pdfrwt>
<pdfrwt beam="2">  1       -2 0.38113942E+00 0.31298126E+04</pdfrwt>
<totfact> 0.21348562E-01</totfact>
</mgrwt>
</event>
<event>
 6    1  0.8968082E-007  0.1750532E+04  0.7818608E-02  0.8733058E-01
         -1   -1    0    0    0  501 -0.00000000000E+00  0.00000000000E+00  0.33962486196E+03  0.33962486196E+03  0.00000000000E+00 0.  1.
          1   -1    0    0  501    0  0.00000000000E+00 -0.00000000000E+00 -0.22556955274E+04  0.22556955274E+04  0.00000000000E+00 0. -1.
         23    2    1    2    0    0 -0.13995491059E+03  0.92935420686E+02 -0.22307063107E+04  0.22386413197E+04  0.85087863393E+02 0.  0.
         13    1    3    3    0    0  0.90450055836E+01  0.11391197726E+01 -0.26594120265E+03  0.26609741259E+03  0.00000000000E+00 0. -1.
        -13    1    3    3    0    0 -0.14899991618E+03  0.91796300914E+02 -0.19647651080E+04  0.19725439071E+04  0.00000000000E+00 0.  1.
         22    1    1    2    0    0  0.13995491059E+03 -0.92935420686E+02  0.31463564527E+03  0.35667906960E+03  0.00000000000E+00 0.  1.
<mgrwt>
<rscale>  0 0.17505317E+04</rscale>
<asrwt>0</asrwt>
<pdfrwt beam="1">  1        1 0.34703008E+00 0.17505317E+04</pdfrwt>
<pdfrwt beam="2">  1       -1 0.52249979E-01 0.17505317E+04</pdfrwt>
<totfact> 0.69817617E+00</totfact>
</mgrwt>
</event>
<event>
 6    1  0.8968082E-007  0.3064971E+04  0.7818608E-02  0.8225418E-01
         -1   -1    0    0    0  501 -0.00000000000E+00  0.00000000000E+00  0.79002918288E+03  0.79002918288E+03  0.00000000000E+00 0.  1.
          1   -1    0    0  501    0  0.00000000000E+00 -0.00000000000E+00 -0.29726901923E+04  0.29726901923E+04  0.00000000000E+00 0. -1.
         23    2    1    2    0    0 -0.11857062486E+04  0.63244302351E+03 -0.19931314463E+04  0.24055882315E+04  0.91642190683E+02 0.  0.
         11    1    3    3    0    0 -0.89719635531E+03  0.43508682067E+03 -0.14968121127E+04  0.17985294944E+04  0.00000000000E+00 0. -1.
        -11    1    3    3    0    0 -0.28850989327E+03  0.19735620284E+03 -0.49631933365E+03  0.60705873709E+03  0.00000000000E+00 0.  1.
         22    1    1    2    0    0  0.11857062486E+04 -0.63244302351E+03 -0.18952956306E+03  0.13571311437E+04  0.00000000000E+00 0.  1.
<mgrwt>
<rscale>  0 0.30649711E+04</rscale>
<asrwt>0</asrwt>
<pdfrwt beam="1">  1        1 0.45733695E+00 0.30649711E+04</pdfrwt>
<pdfrwt beam="2">  1       -1 0.12154295E+00 0.30649711E+04</pdfrwt>
<totfact> 0.31749774E-01</totfact>
</mgrwt>
</event>
<event>
 6    1  0.8968082E-007  0.1118786E+04  0.7818608E-02  0.9187073E-01
          1   -1    0    0  501    0  0.00000000000E+00  0.00000000000E+00  0.27970718556E+03  0.27970718556E+03  0.00000000000E+00 0. -1.
         -1   -1    0    0    0  501 -0.00000000000E+00 -0.00000000000E+00 -0.11187424534E+04  0.11187424534E+04  0.00000000000E+00 0.  1.
         23    2    1    2    0    0 -0.18011985439E+03 -0.13689586452E+03 -0.10566151628E+04  0.10845632736E+04  0.93049731473E+02 0.  0.
         11    1    3    3    0    0 -0.10200462278E+03 -0.20316022351E+02 -0.42399755548E+03  0.43656799113E+03  0.00000000000E+00 0.  1.
        -11    1    3    3    0    0 -0.78115231608E+02 -0.11657984217E+03 -0.63261760736E+03  0.64799528251E+03  0.00000000000E+00 0. -1.
         22    1    1    2    0    0  0.18011985439E+03  0.13689586452E+03  0.21757989495E+03  0.31388636535E+03  0.00000000000E+00 0. -1.
<mgrwt>
<rscale>  0 0.11187856E+04</rscale>
<asrwt>0</asrwt>
<pdfrwt beam="1">  1        1 0.43031875E-01 0.11187856E+04</pdfrwt>
<pdfrwt beam="2">  1       -1 0.17211422E+00 0.11187856E+04</pdfrwt>
<totfact> 0.22704664E+01</totfact>
</mgrwt>
</event>
<event>
 6    1  0.8968082E-007  0.2302245E+04  0.7818608E-02  0.8477037E-01
         -2   -1    0    0    0  501 -0.00000000000E+00  0.00000000000E+00  0.75600337169E+03  0.75600337169E+03  0.00000000000E+00 0.  1.
          2   -1    0    0  501    0  0.00000000000E+00 -0.00000000000E+00 -0.17527470833E+04  0.17527470833E+04  0.00000000000E+00 0. -1.
         23    2    1    2    0    0  0.51042105797E+03  0.10235970135E+04 -0.60578210494E+03  0.12999777384E+04  0.12120090421E+03 0.  0.
         11    1    3    3    0    0  0.48987045002E+03  0.90680086763E+03 -0.55899659178E+03  0.11724922435E+04  0.00000000000E+00 0. -1.
        -11    1    3    3    0    0  0.20550607941E+02  0.11679614587E+03 -0.46785513161E+02  0.12748549493E+03  0.00000000000E+00 0.  1.
         22    1    1    2    0    0 -0.51042105797E+03 -0.10235970135E+04 -0.39096160665E+03  0.12087727166E+04  0.00000000000E+00 0. -1.
<mgrwt>
<rscale>  0 0.23022447E+04</rscale>
<asrwt>0</asrwt>
<pdfrwt beam="1">  1        2 0.26965339E+00 0.23022447E+04</pdfrwt>
<pdfrwt beam="2">  1       -2 0.11630821E+00 0.23022447E+04</pdfrwt>
<totfact> 0.47659547E+00</totfact>
</mgrwt>
</event>
<event>
 6    1  0.8968082E-007  0.2454770E+04  0.7818608E-02  0.8419278E-01
         -1   -1    0    0    0  501 -0.00000000000E+00  0.00000000000E+00  0.77059053808E+03  0.77059053808E+03  0.00000000000E+00 0.  1.
          1   -1    0    0  501    0  0.00000000000E+00 -0.00000000000E+00 -0.19549606975E+04  0.19549606975E+04  0.00000000000E+00 0. -1.
         23    2    1    2    0    0 -0.77903611318E+02 -0.40741897090E+03  0.68740552653E+03  0.80836490947E+03  0.94171537359E+02 0.  0.
         11    1    3    3    0    0 -0.10499584559E+02 -0.26827722941E+03  0.47536038520E+03  0.54593993160E+03  0.00000000000E+00 0. -1.
        -11    1    3    3    0    0 -0.67404026759E+02 -0.13914174149E+03  0.21204514133E+03  0.26242497787E+03  0.00000000000E+00 0.  1.
         22    1    1    2    0    0  0.77903611318E+02  0.40741897090E+03 -0.18717756860E+04  0.19171863261E+04  0.00000000000E+00 0. -1.
<mgrwt>
<rscale>  0 0.24547702E+04</rscale>
<asrwt>0</asrwt>
<pdfrwt beam="1">  1        1 0.30076318E+00 0.24547702E+04</pdfrwt>
<pdfrwt beam="2">  1       -1 0.11855239E+00 0.24547702E+04</pdfrwt>
<totfact> 0.18183785E+00</totfact>
</mgrwt>
</event>
<event>
 6    1  0.8968082E-007  0.4051774E+04  0.7818608E-02  0.7994183E-01
         -2   -1    0    0    0  501 -0.00000000000E+00  0.00000000000E+00  0.34240640110E+04  0.34240640110E+04  0.00000000000E+00 0.  1.
          2   -1    0    0  501    0  0.00000000000E+00 -0.00000000000E+00 -0.11986394302E+04  0.11986394302E+04  0.00000000000E+00 0. -1.
         23    2    1    2    0    0  0.11624426847E+04 -0.80544624811E+03  0.27666991327E+04  0.31084396615E+04  0.88070337355E+02 0.  0.
         11    1    3    3    0    0  0.88765192989E+03 -0.57432204667E+03  0.20238293056E+04  0.22833433426E+04  0.00000000000E+00 0. -1.
        -11    1    3    3    0    0  0.27479075479E+03 -0.23112420143E+03  0.74286982718E+03  0.82509631895E+03  0.00000000000E+00 0.  1.
         22    1    1    2    0    0 -0.11624426847E+04  0.80544624811E+03 -0.54127455199E+03  0.15142637797E+04  0.00000000000E+00 0. -1.
<mgrwt>
<rscale>  0 0.40517740E+04</rscale>
<asrwt>0</asrwt>
<pdfrwt beam="1">  1        2 0.18440607E+00 0.40517740E+04</pdfrwt>
<pdfrwt beam="2">  1       -2 0.52677907E+00 0.40517740E+04</pdfrwt>
<totfact> 0.17047379E-02</totfact>
</mgrwt>
</event>
<event>
 6    1  0.8968082E-007  0.3597927E+04  0.7818608E-02  0.8090967E-01
          2   -1    0    0  501    0  0.00000000000E+00  0.00000000000E+00  0.29424416224E+04  0.29424416224E+04  0.00000000000E+00 0. -1.
         -2   -1    0    0    0  501 -0.00000000000E+00 -0.00000000000E+00 -0.10998588570E+04  0.10998588570E+04  0.00000000000E+00 0.  1.
         23    2    1    2    0    0 -0.89474238538E+03 -0.14876118922E+04  0.14470959109E+04  0.22618615083E+04  0.91530484034E+02 0.  0.
         13    1    3    3    0    0 -0.36387875736E+03 -0.58153263013E+03  0.51611679747E+03  0.85846636428E+03  0.00000000000E+00 0.  1.
        -13    1    3    3    0    0 -0.53086362802E+03 -0.90607926203E+03  0.93097911339E+03  0.14033951440E+04  0.00000000000E+00 0. -1.
         22    1    1    2    0    0  0.89474238538E+03  0.14876118922E+04  0.39548685450E+03  0.17804389711E+04  0.00000000000E+00 0.  1.
<mgrwt>
<rscale>  0 0.35979274E+04</rscale>
<asrwt>0</asrwt>
<pdfrwt beam="1">  1        2 0.45268332E+00 0.35979274E+04</pdfrwt>
<pdfrwt beam="2">  1       -2 0.16920906E+00 0.35979274E+04</pdfrwt>
<totfact> 0.33268268E-01</totfact>
</mgrwt>
</event>
<event>
 6    1  0.8968082E-007  0.3059143E+04  0.7818608E-02  0.8227041E-01
         -2   -1    0    0    0  501 -0.00000000000E+00  0.00000000000E+00  0.75278748404E+03  0.75278748404E+03  0.00000000000E+00 0.  1.
          2   -1    0    0  501    0  0.00000000000E+00 -0.00000000000E+00 -0.31079006328E+04  0.31079006328E+04  0.00000000000E+00 0. -1.
         23    2    1    2    0    0 -0.14848462895E+04  0.45107485335E+02 -0.16306130175E+04  0.22079014916E+04  0.95535308315E+02 0.  0.
         11    1    3    3    0    0 -0.15277866100E+03  0.10981112798E+02 -0.12846307768E+03  0.19991164653E+03  0.00000000000E+00 0.  1.
        -11    1    3    3    0    0 -0.13320676285E+04  0.34126372537E+02 -0.15021499398E+04  0.20079898450E+04  0.00000000000E+00 0. -1.
         22    1    1    2    0    0  0.14848462895E+04 -0.45107485335E+02 -0.72450013131E+03  0.16527866253E+04  0.00000000000E+00 0. -1.
<mgrwt>
<rscale>  0 0.30591428E+04</rscale>
<asrwt>0</asrwt>
<pdfrwt beam="1">  1        2 0.47813856E+00 0.30591428E+04</pdfrwt>
<pdfrwt beam="2">  1       -2 0.11581346E+00 0.30591428E+04</pdfrwt>
<totfact> 0.73384071E-01</totfact>
</mgrwt>
</event>
<event>
 6    1  0.8968082E-007  0.3262112E+04  0.7818608E-02  0.8172603E-01
          2   -1    0    0  501    0  0.00000000000E+00  0.00000000000E+00  0.30548730177E+04  0.30548730177E+04  0.00000000000E+00 0. -1.
         -2   -1    0    0    0  501 -0.00000000000E+00 -0.00000000000E+00 -0.87085238784E+03  0.87085238784E+03  0.00000000000E+00 0.  1.
         23    2    1    2    0    0  0.16201824445E+04  0.72295465393E+02  0.89934329266E+03  0.18567610152E+04  0.92332669492E+02 0.  0.
         11    1    3    3    0    0  0.10837761010E+04  0.17572915461E+02  0.63548476072E+03  0.12564713787E+04  0.00000000000E+00 0.  1.
        -11    1    3    3    0    0  0.53640634348E+03  0.54722549933E+02  0.26385853194E+03  0.60028963649E+03  0.00000000000E+00 0. -1.
         22    1    1    2    0    0 -0.16201824445E+04 -0.72295465393E+02  0.12846773372E+04  0.20689643903E+04  0.00000000000E+00 0.  1.
<mgrwt>
<rscale>  0 0.32621119E+04</rscale>
<asrwt>0</asrwt>
<pdfrwt beam="1">  1        2 0.46998046E+00 0.32621119E+04</pdfrwt>
<pdfrwt beam="2">  1       -2 0.13397729E+00 0.32621119E+04</pdfrwt>
<totfact> 0.54140180E-01</totfact>
</mgrwt>
</event>
<event>
 6    1  0.8968082E-007  0.2691592E+04  0.7818608E-02  0.8337738E-01
          2   -1    0    0  501    0  0.00000000000E+00  0.00000000000E+00  0.12580218088E+04  0.12580218088E+04  0.00000000000E+00 0. -1.
         -2   -1    0    0    0  501 -0.00000000000E+00 -0.00000000000E+00 -0.14396942639E+04  0.14396942639E+04  0.00000000000E+00 0.  1.
         23    2    1    2    0    0 -0.42718531033E+03  0.99870223157E+03 -0.88455770314E+03  0.14039073123E+04  0.92843818928E+02 0.  0.
         13    1    3    3    0    0 -0.15496374579E+03  0.28400173213E+03 -0.22596596940E+03  0.39462813596E+03  0.00000000000E+00 0. -1.
        -13    1    3    3    0    0 -0.27222156454E+03  0.71470049944E+03 -0.65859173374E+03  0.10092791764E+04  0.00000000000E+00 0.  1.
         22    1    1    2    0    0  0.42718531033E+03 -0.99870223157E+03  0.70288524803E+03  0.12938087604E+04  0.00000000000E+00 0. -1.
<mgrwt>
<rscale>  0 0.26915919E+04</rscale>
<asrwt>0</asrwt>
<pdfrwt beam="1">  1        2 0.19354182E+00 0.26915919E+04</pdfrwt>
<pdfrwt beam="2">  1       -2 0.22149143E+00 0.26915919E+04</pdfrwt>
<totfact> 0.14854288E+00</totfact>
</mgrwt>
</event>
<event>
 6    1  0.8968082E-007  0.6000211E+03  0.7818608E-02  0.9905362E-01
         -1   -1    0    0    0  501 -0.00000000000E+00  0.00000000000E+00  0.24830108923E+03  0.24830108923E+03  0.00000000000E+00 0.  1.
          1   -1    0    0  501    0  0.00000000000E+00 -0.00000000000E+00 -0.36248871327E+03  0.36248871327E+03  0.00000000000E+00 0. -1.
         23    2    1    2    0    0  0.24650989600E+02  0.25225937436E+03  0.82909535368E+02  0.28971387147E+03  0.11321516254E+03 0.  0.
         13    1    3    3    0    0 -0.40195356189E+02  0.15467815570E+03  0.38259116593E+02  0.16433124631E+03  0.00000000000E+00 0. -1.
        -13    1    3    3    0    0  0.64846345789E+02  0.97581218659E+02  0.44650418775E+02  0.12538262517E+03  0.00000000000E+00 0.  1.
         22    1    1    2    0    0 -0.24650989600E+02 -0.25225937436E+03 -0.19709715941E+03  0.32107593103E+03  0.00000000000E+00 0. -1.
<mgrwt>
<rscale>  0 0.60002114E+03</rscale>
<asrwt>0</asrwt>
<pdfrwt beam="1">  1        1 0.55767494E-01 0.60002114E+03</pdfrwt>
<pdfrwt beam="2">  1       -1 0.38200168E-01 0.60002114E+03</pdfrwt>
<totfact> 0.45830300E+02</totfact>
</mgrwt>
</event>
<event>
 6    1  0.8968082E-007  0.1601675E+04  0.7818608E-02  0.8819520E-01
         -1   -1    0    0    0  501 -0.00000000000E+00  0.00000000000E+00  0.28260404376E+03  0.28260404376E+03  0.00000000000E+00 0.  1.
          1   -1    0    0  501    0  0.00000000000E+00 -0.00000000000E+00 -0.22693969705E+04  0.22693969705E+04  0.00000000000E+00 0. -1.
         23    2    1    2    0    0  0.56782112255E+03  0.32950240818E+03 -0.17200648181E+04  0.18433850758E+04  0.91939627962E+02 0.  0.
         13    1    3    3    0    0  0.14890395542E+03  0.13165339566E+03 -0.56032589448E+03  0.59453352518E+03  0.00000000000E+00 0.  1.
        -13    1    3    3    0    0  0.41891716713E+03  0.19784901252E+03 -0.11597389236E+04  0.12488515507E+04  0.00000000000E+00 0. -1.
         22    1    1    2    0    0 -0.56782112255E+03 -0.32950240818E+03 -0.26672810862E+03  0.70861593839E+03  0.00000000000E+00 0.  1.
<mgrwt>
<rscale>  0 0.16016751E+04</rscale>
<asrwt>0</asrwt>
<pdfrwt beam="1">  1        1 0.34913801E+00 0.16016751E+04</pdfrwt>
<pdfrwt beam="2">  1       -1 0.43477543E-01 0.16016751E+04</pdfrwt>
<totfact> 0.97966211E+00</totfact>
</mgrwt>
</event>
<event>
 6    1  0.1055700E-006  0.2761511E+04  0.7818608E-02  0.8315318E-01
          2   -1    0    0  501    0  0.00000000000E+00  0.00000000000E+00  0.23793711444E+04  0.23793711444E+04  0.00000000000E+00 0. -1.
         -2   -1    0    0    0  501 -0.00000000000E+00 -0.00000000000E+00 -0.80125612292E+03  0.80125612292E+03  0.00000000000E+00 0.  1.
         23    2    1    2    0    0 -0.11172140617E+04 -0.51957409748E+03  0.15039937403E+04  0.19462778571E+04  0.88745836925E+02 0.  0.
         13    1    3    3    0    0 -0.68743828308E+03 -0.31332861763E+03  0.85377484762E+03  0.11400340811E+04  0.00000000000E+00 0.  1.
        -13    1    3    3    0    0 -0.42977577860E+03 -0.20624547985E+03  0.65021889269E+03  0.80624377594E+03  0.00000000000E+00 0. -1.
         22    1    1    2    0    0  0.11172140617E+04  0.51957409748E+03  0.74121281216E+02  0.12343494103E+04  0.00000000000E+00 0.  1.
<mgrwt>
<rscale>  0 0.27615110E+04</rscale>
<asrwt>0</asrwt>
<pdfrwt beam="1">  1        2 0.36605710E+00 0.27615110E+04</pdfrwt>
<pdfrwt beam="2">  1       -2 0.12327017E+00 0.27615110E+04</pdfrwt>
<totfact> 0.17703139E+00</totfact>
</mgrwt>
</event>
<event>
 6    1  0.8968082E-007  0.2703011E+04  0.7818608E-02  0.8334029E-01
          2   -1    0    0  501    0  0.00000000000E+00  0.00000000000E+00  0.19948666858E+04  0.19948666858E+04  0.00000000000E+00 0. -1.
         -2   -1    0    0    0  501 -0.00000000000E+00 -0.00000000000E+00 -0.91563333745E+03  0.91563333745E+03  0.00000000000E+00 0.  1.
         23    2    1    2    0    0 -0.29677538440E+03 -0.87462354634E+02  0.19551518512E+04  0.19815444183E+04  0.90411437534E+02 0.  0.
         13    1    3    3    0    0 -0.22022828072E+03 -0.98042289107E+02  0.16020784775E+04  0.16201136485E+04  0.00000000000E+00 0. -1.
        -13    1    3    3    0    0 -0.76547103679E+02  0.10579934474E+02  0.35307337376E+03  0.36143076979E+03  0.00000000000E+00 0.  1.
         22    1    1    2    0    0  0.29677538440E+03  0.87462354634E+02 -0.87591850289E+03  0.92895560495E+03  0.00000000000E+00 0.  1.
<mgrwt>
<rscale>  0 0.27030105E+04</rscale>
<asrwt>0</asrwt>
<pdfrwt beam="1">  1        2 0.30690257E+00 0.27030105E+04</pdfrwt>
<pdfrwt beam="2">  1       -2 0.14086667E+00 0.27030105E+04</pdfrwt>
<totfact> 0.20849206E+00</totfact>
</mgrwt>
</event>
<event>
 6    1  0.8968082E-007  0.6824204E+03  0.7818608E-02  0.9747777E-01
         -2   -1    0    0    0  501 -0.00000000000E+00  0.00000000000E+00  0.37700675546E+03  0.37700675546E+03  0.00000000000E+00 0.  1.
          2   -1    0    0  501    0  0.00000000000E+00 -0.00000000000E+00 -0.30881250228E+03  0.30881250228E+03  0.00000000000E+00 0. -1.
         23    2    1    2    0    0  0.77204353786E+01 -0.31611350751E+03 -0.67603713123E+02  0.34168492000E+03  0.11041271563E+03 0.  0.
         13    1    3    3    0    0 -0.15936692910E+02 -0.13331846114E+03  0.23126552502E+02  0.13624473455E+03  0.00000000000E+00 0.  1.
        -13    1    3    3    0    0  0.23657128288E+02 -0.18279504637E+03 -0.90730265625E+02  0.20544018545E+03  0.00000000000E+00 0. -1.
         22    1    1    2    0    0 -0.77204353786E+01  0.31611350751E+03  0.13579796630E+03  0.34413433773E+03  0.00000000000E+00 0.  1.
<mgrwt>
<rscale>  0 0.68242040E+03</rscale>
<asrwt>0</asrwt>
<pdfrwt beam="1">  1        2 0.47509616E-01 0.68242040E+03</pdfrwt>
<pdfrwt beam="2">  1       -2 0.58001039E-01 0.68242040E+03</pdfrwt>
<totfact> 0.29860820E+02</totfact>
</mgrwt>
</event>
<event>
 6    1  0.8968082E-007  0.1766697E+04  0.7818608E-02  0.8724213E-01
         -2   -1    0    0    0  501 -0.00000000000E+00  0.00000000000E+00  0.74093441945E+03  0.74093441945E+03  0.00000000000E+00 0.  1.
          2   -1    0    0  501    0  0.00000000000E+00 -0.00000000000E+00 -0.10531352244E+04  0.10531352244E+04  0.00000000000E+00 0. -1.
         23    2    1    2    0    0  0.24322006455E+03 -0.72101179650E+03  0.29453327209E+03  0.82085833549E+03  0.89691404752E+02 0.  0.
         11    1    3    3    0    0  0.12963623429E+03 -0.47301102389E+03  0.15433088890E+03  0.51416243079E+03  0.00000000000E+00 0.  1.
        -11    1    3    3    0    0  0.11358383025E+03 -0.24800077261E+03  0.14020238319E+03  0.30669590470E+03  0.00000000000E+00 0. -1.
         22    1    1    2    0    0 -0.24322006455E+03  0.72101179650E+03 -0.60673407707E+03  0.97321130839E+03  0.00000000000E+00 0. -1.
<mgrwt>
<rscale>  0 0.17666965E+04</rscale>
<asrwt>0</asrwt>
<pdfrwt beam="1">  1        2 0.16202080E+00 0.17666965E+04</pdfrwt>
<pdfrwt beam="2">  1       -2 0.11398991E+00 0.17666965E+04</pdfrwt>
<totfact> 0.13290903E+01</totfact>
</mgrwt>
</event>
<event>
 6    1  0.8968082E-007  0.1842197E+04  0.7818608E-02  0.8684176E-01
         -2   -1    0    0    0  501 -0.00000000000E+00  0.00000000000E+00  0.22212687209E+03  0.22212687209E+03  0.00000000000E+00 0.  1.
          2   -1    0    0  501    0  0.00000000000E+00 -0.00000000000E+00 -0.38195406476E+04  0.38195406476E+04  0.00000000000E+00 0. -1.
         23    2    1    2    0    0 -0.27928802610E+03 -0.50264841091E+03 -0.33748070599E+04  0.34250550187E+04  0.10498553679E+03 0.  0.
         13    1    3    3    0    0 -0.14257015902E+03 -0.29973113371E+03 -0.16575698232E+04  0.16904741115E+04  0.00000000000E+00 0. -1.
        -13    1    3    3    0    0 -0.13671786708E+03 -0.20291727720E+03 -0.17172372367E+04  0.17345809072E+04  0.00000000000E+00 0.  1.
         22    1    1    2    0    0  0.27928802610E+03  0.50264841091E+03 -0.22260671554E+03  0.61661250094E+03  0.00000000000E+00 0.  1.
<mgrwt>
<rscale>  0 0.18421972E+04</rscale>
<asrwt>0</asrwt>
<pdfrwt beam="1">  1        2 0.58762161E+00 0.18421972E+04</pdfrwt>
<pdfrwt beam="2">  1       -2 0.34173367E-01 0.18421972E+04</pdfrwt>
<totfact> 0.36208018E+00</totfact>
</mgrwt>
</event>
<event>
 6    1  0.8968082E-007  0.4553213E+04  0.7818608E-02  0.7901386E-01
          2   -1    0    0  501    0  0.00000000000E+00  0.00000000000E+00  0.27053836061E+04  0.27053836061E+04  0.00000000000E+00 0. -1.
         -2   -1    0    0    0  501 -0.00000000000E+00 -0.00000000000E+00 -0.19157867619E+04  0.19157867619E+04  0.00000000000E+00 0.  1.
         23    2    1    2    0    0  0.14760289117E+04  0.31280569521E+03 -0.13340072938E+04  0.20161361482E+04  0.93384994259E+02 0.  0.
         13    1    3    3    0    0  0.12432646128E+03  0.11312343731E+02 -0.83533691482E+02  0.15020957262E+03  0.00000000000E+00 0. -1.
        -13    1    3    3    0    0  0.13517024504E+04  0.30149335148E+03 -0.12504736023E+04  0.18659265756E+04  0.00000000000E+00 0.  1.
         22    1    1    2    0    0 -0.14760289117E+04 -0.31280569521E+03  0.21236041380E+04  0.26050342198E+04  0.00000000000E+00 0. -1.
<mgrwt>
<rscale>  0 0.45532134E+04</rscale>
<asrwt>0</asrwt>
<pdfrwt beam="1">  1        2 0.41621287E+00 0.45532134E+04</pdfrwt>
<pdfrwt beam="2">  1       -2 0.29473642E+00 0.45532134E+04</pdfrwt>
<totfact> 0.68066523E-02</totfact>
</mgrwt>
</event>
<event>
 6    1  0.8968082E-007  0.3203315E+04  0.7818608E-02  0.8187942E-01
         -1   -1    0    0    0  501 -0.00000000000E+00  0.00000000000E+00  0.89090126705E+03  0.89090126705E+03  0.00000000000E+00 0.  1.
          1   -1    0    0  501    0  0.00000000000E+00 -0.00000000000E+00 -0.28794510775E+04  0.28794510775E+04  0.00000000000E+00 0. -1.
         23    2    1    2    0    0 -0.67262399276E+02  0.15934706595E+04 -0.11583086948E+04  0.19723052698E+04  0.68088703336E+02 0.  0.
         11    1    3    3    0    0 -0.62147092160E+02  0.10142407448E+04 -0.77022947656E+03  0.12750686240E+04  0.00000000000E+00 0.  1.
        -11    1    3    3    0    0 -0.51153071160E+01  0.57922991476E+03 -0.38807921825E+03  0.69723664574E+03  0.00000000000E+00 0. -1.
         22    1    1    2    0    0  0.67262399276E+02 -0.15934706595E+04 -0.83024111568E+03  0.17980470748E+04  0.00000000000E+00 0.  1.
<mgrwt>
<rscale>  0 0.32033149E+04</rscale>
<asrwt>0</asrwt>
<pdfrwt beam="1">  1        1 0.44299247E+00 0.32033149E+04</pdfrwt>
<pdfrwt beam="2">  1       -1 0.13706173E+00 0.32033149E+04</pdfrwt>
<totfact> 0.27066055E-01</totfact>
</mgrwt>
</event>
<event>
 6    1  0.8968082E-007  0.1145450E+04  0.7818608E-02  0.9161991E-01
          2   -1    0    0  501    0  0.00000000000E+00  0.00000000000E+00  0.43455730399E+04  0.43455730399E+04  0.00000000000E+00 0. -1.
         -2   -1    0    0    0  501 -0.00000000000E+00 -0.00000000000E+00 -0.75482352871E+02  0.75482352871E+02  0.00000000000E+00 0.  1.
         23    2    1    2    0    0  0.42237370767E+03  0.94615372997E+02  0.35744738949E+04  0.36017664699E+04  0.92230473244E+02 0.  0.
         11    1    3    3    0    0  0.27954838804E+03  0.40571423616E+02  0.19895974365E+04  0.20095500245E+04  0.00000000000E+00 0. -1.
        -11    1    3    3    0    0  0.14282531963E+03  0.54043949381E+02  0.15848764585E+04  0.15922164454E+04  0.00000000000E+00 0.  1.
         22    1    1    2    0    0 -0.42237370767E+03 -0.94615372997E+02  0.69561679208E+03  0.81928892289E+03  0.00000000000E+00 0.  1.
<mgrwt>
<rscale>  0 0.11454503E+04</rscale>
<asrwt>0</asrwt>
<pdfrwt beam="1">  1        2 0.66854950E+00 0.11454503E+04</pdfrwt>
<pdfrwt beam="2">  1       -2 0.11612673E-01 0.11454503E+04</pdfrwt>
<totfact> 0.97307063E+00</totfact>
</mgrwt>
</event>
<event>
 6    1  0.8968082E-007  0.2469656E+04  0.7818608E-02  0.8413876E-01
         -4   -1    0    0    0  501 -0.00000000000E+00  0.00000000000E+00  0.12384999447E+04  0.12384999447E+04  0.00000000000E+00 0.  1.
          4   -1    0    0  501    0  0.00000000000E+00 -0.00000000000E+00 -0.12311669749E+04  0.12311669749E+04  0.00000000000E+00 0. -1.
         23    2    1    2    0    0  0.58804001984E+03 -0.64863908816E+03  0.87218796796E+03  0.12390175383E+04  0.89044243026E+02 0.  0.
         13    1    3    3    0    0  0.25009692213E+03 -0.24525641223E+03  0.40341482153E+03  0.53426837491E+03  0.00000000000E+00 0.  1.
        -13    1    3    3    0    0  0.33794309770E+03 -0.40338267592E+03  0.46877314643E+03  0.70474916342E+03  0.00000000000E+00 0. -1.
         22    1    1    2    0    0 -0.58804001984E+03  0.64863908816E+03 -0.86485499824E+03  0.12306493813E+04  0.00000000000E+00 0. -1.
<mgrwt>
<rscale>  0 0.24696560E+04</rscale>
<asrwt>0</asrwt>
<pdfrwt beam="1">  1        4 0.18941030E+00 0.24696560E+04</pdfrwt>
<pdfrwt beam="2">  1       -4 0.19053845E+00 0.24696560E+04</pdfrwt>
<totfact> 0.42065427E-02</totfact>
</mgrwt>
</event>
<event>
 6    1  0.8968082E-007  0.4513445E+04  0.7818608E-02  0.7908287E-01
          2   -1    0    0  501    0  0.00000000000E+00  0.00000000000E+00  0.45494466439E+04  0.45494466439E+04  0.00000000000E+00 0. -1.
         -2   -1    0    0    0  501 -0.00000000000E+00 -0.00000000000E+00 -0.11194321495E+04  0.11194321495E+04  0.00000000000E+00 0.  1.
         23    2    1    2    0    0  0.12350780356E+04 -0.71666517069E+03 -0.47769669408E+03  0.15084421031E+04  0.90425251305E+02 0.  0.
         11    1    3    3    0    0  0.57361366316E+03 -0.38422634804E+03 -0.23912335376E+03  0.73064526235E+03  0.00000000000E+00 0. -1.
        -11    1    3    3    0    0  0.66146437244E+03 -0.33243882265E+03 -0.23857334032E+03  0.77779684078E+03  0.00000000000E+00 0.  1.
         22    1    1    2    0    0 -0.12350780356E+04  0.71666517069E+03  0.39077111885E+04  0.41604366902E+04  0.00000000000E+00 0. -1.
<mgrwt>
<rscale>  0 0.45134452E+04</rscale>
<asrwt>0</asrwt>
<pdfrwt beam="1">  1        2 0.69991486E+00 0.45134452E+04</pdfrwt>
<pdfrwt beam="2">  1       -2 0.17222033E+00 0.45134452E+04</pdfrwt>
<totfact> 0.16948915E-02</totfact>
</mgrwt>
</event>
<event>
 6    1  0.8968082E-007  0.2529560E+04  0.7818608E-02  0.8392530E-01
         -2   -1    0    0    0  501 -0.00000000000E+00  0.00000000000E+00  0.49806172454E+03  0.49806172454E+03  0.00000000000E+00 0.  1.
          2   -1    0    0  501    0  0.00000000000E+00 -0.00000000000E+00 -0.32117876259E+04  0.32117876259E+04  0.00000000000E+00 0. -1.
         23    2    1    2    0    0  0.11597584332E+04  0.21733570586E+03 -0.69730025836E+03  0.13735602403E+04  0.90363992618E+02 0.  0.
         13    1    3    3    0    0  0.84566877986E+03  0.12661780119E+03 -0.53373177374E+03  0.10079967059E+04  0.00000000000E+00 0.  1.
        -13    1    3    3    0    0  0.31408965329E+03  0.90717904675E+02 -0.16356848461E+03  0.36556353441E+03  0.00000000000E+00 0. -1.
         22    1    1    2    0    0 -0.11597584332E+04 -0.21733570586E+03 -0.20164256430E+04  0.23362891102E+04  0.00000000000E+00 0. -1.
<mgrwt>
<rscale>  0 0.25295600E+04</rscale>
<asrwt>0</asrwt>
<pdfrwt beam="1">  1        2 0.49412120E+00 0.25295600E+04</pdfrwt>
<pdfrwt beam="2">  1       -2 0.76624877E-01 0.25295600E+04</pdfrwt>
<totfact> 0.17263498E+00</totfact>
</mgrwt>
</event>
<event>
 6    1  0.8968082E-007  0.2245307E+04  0.7818608E-02  0.8499804E-01
          1   -1    0    0  501    0  0.00000000000E+00  0.00000000000E+00  0.20097184757E+04  0.20097184757E+04  0.00000000000E+00 0. -1.
         -1   -1    0    0    0  501 -0.00000000000E+00 -0.00000000000E+00 -0.62712790024E+03  0.62712790024E+03  0.00000000000E+00 0.  1.
         23    2    1    2    0    0 -0.35110281550E+03  0.32429983506E+03  0.18829710616E+04  0.19448751331E+04  0.92280520075E+02 0.  0.
         11    1    3    3    0    0 -0.20785831918E+03  0.21355712676E+03  0.99674784549E+03  0.10403451325E+04  0.00000000000E+00 0. -1.
        -11    1    3    3    0    0 -0.14324449633E+03  0.11074270830E+03  0.88622321614E+03  0.90453000060E+03  0.00000000000E+00 0.  1.
         22    1    1    2    0    0  0.35110281550E+03 -0.32429983506E+03 -0.50038048612E+03  0.69197124288E+03  0.00000000000E+00 0.  1.
<mgrwt>
<rscale>  0 0.22453067E+04</rscale>
<asrwt>0</asrwt>
<pdfrwt beam="1">  1        1 0.30918745E+00 0.22453067E+04</pdfrwt>
<pdfrwt beam="2">  1       -1 0.96481216E-01 0.22453067E+04</pdfrwt>
<totfact> 0.27557285E+00</totfact>
</mgrwt>
</event>
<event>
 6    1  0.1104355E-006  0.3805371E+04  0.7818608E-02  0.8045003E-01
          2   -1    0    0  501    0  0.00000000000E+00  0.00000000000E+00  0.17756231232E+04  0.17756231232E+04  0.00000000000E+00 0. -1.
         -2   -1    0    0    0  501 -0.00000000000E+00 -0.00000000000E+00 -0.20388406839E+04  0.20388406839E+04  0.00000000000E+00 0.  1.
         23    2    1    2    0    0  0.59663531367E+03 -0.75364153286E+03 -0.17763751722E+04  0.20218134745E+04  0.90948971606E+02 0.  0.
         13    1    3    3    0    0  0.24646762939E+03 -0.25615466253E+03 -0.59850747753E+03  0.69611256571E+03  0.00000000000E+00 0. -1.
        -13    1    3    3    0    0  0.35016768428E+03 -0.49748687033E+03 -0.11778676947E+04  0.13257009088E+04  0.00000000000E+00 0.  1.
         22    1    1    2    0    0 -0.59663531367E+03  0.75364153286E+03  0.15131576115E+04  0.17926503326E+04  0.00000000000E+00 0. -1.
<mgrwt>
<rscale>  0 0.38053713E+04</rscale>
<asrwt>0</asrwt>
<pdfrwt beam="1">  1        2 0.27317279E+00 0.38053713E+04</pdfrwt>
<pdfrwt beam="2">  1       -2 0.31366780E+00 0.38053713E+04</pdfrwt>
<totfact> 0.18689194E-01</totfact>
</mgrwt>
</event>
<event>
 6    1  0.8968082E-007  0.1201283E+04  0.7818608E-02  0.9111734E-01
         -4   -1    0    0    0  501 -0.00000000000E+00  0.00000000000E+00  0.13523170448E+03  0.13523170448E+03  0.00000000000E+00 0.  1.
          4   -1    0    0  501    0  0.00000000000E+00 -0.00000000000E+00 -0.26677929841E+04  0.26677929841E+04  0.00000000000E+00 0. -1.
         23    2    1    2    0    0  0.15717291792E+03 -0.18394605128E+03 -0.25473881737E+04  0.25606214859E+04  0.95165174988E+02 0.  0.
         13    1    3    3    0    0  0.14076664378E+03 -0.11554535445E+03 -0.15291048580E+04  0.15399115701E+04  0.00000000000E+00 0.  1.
        -13    1    3    3    0    0  0.16406274136E+02 -0.68400696832E+02 -0.10182833157E+04  0.10207099158E+04  0.00000000000E+00 0. -1.
         22    1    1    2    0    0 -0.15717291792E+03  0.18394605128E+03  0.14826894044E+02  0.24240320273E+03  0.00000000000E+00 0.  1.
<mgrwt>
<rscale>  0 0.12012830E+04</rscale>
<asrwt>0</asrwt>
<pdfrwt beam="1">  1        4 0.41042968E+00 0.12012830E+04</pdfrwt>
<pdfrwt beam="2">  1       -4 0.20804878E-01 0.12012830E+04</pdfrwt>
<totfact> 0.25112689E-01</totfact>
</mgrwt>
</event>
<event>
 6    1  0.8968082E-007  0.4139711E+04  0.7818608E-02  0.7976941E-01
         -1   -1    0    0    0  501 -0.00000000000E+00  0.00000000000E+00  0.22303327002E+04  0.22303327002E+04  0.00000000000E+00 0.  1.
          1   -1    0    0  501    0  0.00000000000E+00 -0.00000000000E+00 -0.19209251208E+04  0.19209251208E+04  0.00000000000E+00 0. -1.
         23    2    1    2    0    0  0.63427013395E+03  0.16557771269E+04 -0.91415355326E+03  0.19969601762E+04  0.90976534941E+02 0.  0.
         11    1    3    3    0    0  0.10498748583E+03  0.31024210860E+03 -0.20645789429E+03  0.38716585625E+03  0.00000000000E+00 0.  1.
        -11    1    3    3    0    0  0.52928264812E+03  0.13455350183E+04 -0.70769565897E+03  0.16097943200E+04  0.00000000000E+00 0. -1.
         22    1    1    2    0    0 -0.63427013395E+03 -0.16557771269E+04  0.12235611327E+04  0.21542976447E+04  0.00000000000E+00 0. -1.
<mgrwt>
<rscale>  0 0.41397112E+04</rscale>
<asrwt>0</asrwt>
<pdfrwt beam="1">  1        1 0.29552694E+00 0.41397112E+04</pdfrwt>
<pdfrwt beam="2">  1       -1 0.34312811E+00 0.41397112E+04</pdfrwt>
<totfact> 0.45006962E-02</totfact>
</mgrwt>
</event>
<event>
 6    1  0.8968082E-007  0.2261210E+04  0.7818608E-02  0.8493374E-01
         -1   -1    0    0    0  501 -0.00000000000E+00  0.00000000000E+00  0.14407062061E+04  0.14407062061E+04  0.00000000000E+00 0.  1.
          1   -1    0    0  501    0  0.00000000000E+00 -0.00000000000E+00 -0.88725086512E+03  0.88725086512E+03  0.00000000000E+00 0. -1.
         23    2    1    2    0    0  0.10394339717E+04  0.43552784727E+03  0.21172674447E+03  0.11502958631E+04  0.90801272576E+02 0.  0.
         11    1    3    3    0    0  0.35936468340E+03  0.16559176059E+03  0.32704216858E+02  0.39703044298E+03  0.00000000000E+00 0.  1.
        -11    1    3    3    0    0  0.68006928833E+03  0.26993608668E+03  0.17902252761E+03  0.75326542016E+03  0.00000000000E+00 0. -1.
         22    1    1    2    0    0 -0.10394339717E+04 -0.43552784727E+03  0.34172859651E+03  0.11776612081E+04  0.00000000000E+00 0. -1.
<mgrwt>
<rscale>  0 0.22612101E+04</rscale>
<asrwt>0</asrwt>
<pdfrwt beam="1">  1        1 0.13650013E+00 0.22612101E+04</pdfrwt>
<pdfrwt beam="2">  1       -1 0.22164711E+00 0.22612101E+04</pdfrwt>
<totfact> 0.18138074E+00</totfact>
</mgrwt>
</event>
<event>
 6    1  0.9975314E-007  0.2292045E+04  0.7818608E-02  0.8481064E-01
         -2   -1    0    0    0  501 -0.00000000000E+00  0.00000000000E+00  0.66305648516E+03  0.66305648516E+03  0.00000000000E+00 0.  1.
          2   -1    0    0  501    0  0.00000000000E+00 -0.00000000000E+00 -0.19807781987E+04  0.19807781987E+04  0.00000000000E+00 0. -1.
         23    2    1    2    0    0 -0.42311302035E+03  0.75391725067E+03  0.20472762882E+03  0.89304404850E+03  0.90545136299E+02 0.  0.
         11    1    3    3    0    0 -0.11389830799E+03  0.24357947508E+03  0.10183775257E+03  0.28753210793E+03  0.00000000000E+00 0.  1.
        -11    1    3    3    0    0 -0.30921471236E+03  0.51033777559E+03  0.10288987625E+03  0.60551194056E+03  0.00000000000E+00 0. -1.
         22    1    1    2    0    0  0.42311302035E+03 -0.75391725067E+03 -0.15224493424E+04  0.17507906354E+04  0.00000000000E+00 0. -1.
<mgrwt>
<rscale>  0 0.22920452E+04</rscale>
<asrwt>0</asrwt>
<pdfrwt beam="1">  1        2 0.30473511E+00 0.22920452E+04</pdfrwt>
<pdfrwt beam="2">  1       -2 0.10200869E+00 0.22920452E+04</pdfrwt>
<totfact> 0.48937170E+00</totfact>
</mgrwt>
</event>
<event>
 6    1  0.8968082E-007  0.2952980E+04  0.7818608E-02  0.8257287E-01
         -2   -1    0    0    0  501 -0.00000000000E+00  0.00000000000E+00  0.88678275485E+03  0.88678275485E+03  0.00000000000E+00 0.  1.
          2   -1    0    0  501    0  0.00000000000E+00 -0.00000000000E+00 -0.24583504100E+04  0.24583504100E+04  0.00000000000E+00 0. -1.
         23    2    1    2    0    0 -0.10422648004E+04  0.44005924024E+03  0.28533157359E+03  0.11707268563E+04  0.96016749234E+02 0.  0.
         13    1    3    3    0    0 -0.73773292788E+03  0.34759423365E+03  0.23336908879E+03  0.84825276642E+03  0.00000000000E+00 0. -1.
        -13    1    3    3    0    0 -0.30453187249E+03  0.92465006597E+02  0.51962484796E+02  0.32247408986E+03  0.00000000000E+00 0.  1.
         22    1    1    2    0    0  0.10422648004E+04 -0.44005924024E+03 -0.18568992287E+04  0.21744063086E+04  0.00000000000E+00 0. -1.
<mgrwt>
<rscale>  0 0.29529800E+04</rscale>
<asrwt>0</asrwt>
<pdfrwt beam="1">  1        2 0.37820775E+00 0.29529800E+04</pdfrwt>
<pdfrwt beam="2">  1       -2 0.13642812E+00 0.29529800E+04</pdfrwt>
<totfact> 0.12140982E+00</totfact>
</mgrwt>
</event>
<event>
 6    1  0.8968082E-007  0.4821277E+04  0.7818608E-02  0.7856684E-01
         -2   -1    0    0    0  501 -0.00000000000E+00  0.00000000000E+00  0.18332393128E+04  0.18332393128E+04  0.00000000000E+00 0.  1.
          2   -1    0    0  501    0  0.00000000000E+00 -0.00000000000E+00 -0.31698954247E+04  0.31698954247E+04  0.00000000000E+00 0. -1.
         23    2    1    2    0    0  0.26245440029E+03 -0.19072850811E+04  0.83538019558E+03  0.21006598601E+04  0.91066371622E+02 0.  0.
         11    1    3    3    0    0  0.10883555526E+03 -0.11147505584E+04  0.47636358258E+03  0.12171426573E+04  0.00000000000E+00 0.  1.
        -11    1    3    3    0    0  0.15361884502E+03 -0.79253452271E+03  0.35901661300E+03  0.88351720280E+03  0.00000000000E+00 0. -1.
         22    1    1    2    0    0 -0.26245440029E+03  0.19072850811E+04 -0.21720363075E+04  0.29024748774E+04  0.00000000000E+00 0. -1.
<mgrwt>
<rscale>  0 0.48212766E+04</rscale>
<asrwt>0</asrwt>
<pdfrwt beam="1">  1        2 0.48767622E+00 0.48212766E+04</pdfrwt>
<pdfrwt beam="2">  1       -2 0.28203682E+00 0.48212766E+04</pdfrwt>
<totfact> 0.40960223E-02</totfact>
</mgrwt>
</event>
<event>
 6    1  0.8968082E-007  0.5955754E+04  0.7818608E-02  0.7695912E-01
         -2   -1    0    0    0  501 -0.00000000000E+00  0.00000000000E+00  0.29046595179E+04  0.29046595179E+04  0.00000000000E+00 0.  1.
          2   -1    0    0  501    0  0.00000000000E+00 -0.00000000000E+00 -0.30529400649E+04  0.30529400649E+04  0.00000000000E+00 0. -1.
         23    2    1    2    0    0  0.24173476692E+04  0.13827258359E+04 -0.11271175958E+04  0.30057150223E+04  0.91805390299E+02 0.  0.
         13    1    3    3    0    0  0.18938800794E+04  0.10415242002E+04 -0.88755006026E+03  0.23365143963E+04  0.00000000000E+00 0. -1.
        -13    1    3    3    0    0  0.52346758975E+03  0.34120163565E+03 -0.23956753549E+03  0.66920062593E+03  0.00000000000E+00 0.  1.
         22    1    1    2    0    0 -0.24173476692E+04 -0.13827258359E+04  0.97883704879E+03  0.29518845606E+04  0.00000000000E+00 0.  1.
<mgrwt>
<rscale>  0 0.59557540E+04</rscale>
<asrwt>0</asrwt>
<pdfrwt beam="1">  1        2 0.46968308E+00 0.59557540E+04</pdfrwt>
<pdfrwt beam="2">  1       -2 0.44687070E+00 0.59557540E+04</pdfrwt>
<totfact> 0.39795219E-03</totfact>
</mgrwt>
</event>
<event>
 6    1  0.8968082E-007  0.2663919E+04  0.7818608E-02  0.8346808E-01
         -2   -1    0    0    0  501 -0.00000000000E+00  0.00000000000E+00  0.15830046631E+04  0.15830046631E+04  0.00000000000E+00 0.  1.
          2   -1    0    0  501    0  0.00000000000E+00 -0.00000000000E+00 -0.11207268251E+04  0.11207268251E+04  0.00000000000E+00 0. -1.
         23    2    1    2    0    0  0.69037870714E+03  0.51944827121E+03  0.12583964584E+04  0.15288893187E+04  0.86554241432E+02 0.  0.
         13    1    3    3    0    0  0.51691225037E+03  0.34755515961E+03  0.93935457686E+03  0.11271113009E+04  0.00000000000E+00 0. -1.
        -13    1    3    3    0    0  0.17346645678E+03  0.17189311161E+03  0.31904188149E+03  0.40177801780E+03  0.00000000000E+00 0.  1.
         22    1    1    2    0    0 -0.69037870714E+03 -0.51944827121E+03 -0.79611862036E+03  0.11748421696E+04  0.00000000000E+00 0. -1.
<mgrwt>
<rscale>  0 0.26639188E+04</rscale>
<asrwt>0</asrwt>
<pdfrwt beam="1">  1        2 0.17241951E+00 0.26639188E+04</pdfrwt>
<pdfrwt beam="2">  1       -2 0.24353918E+00 0.26639188E+04</pdfrwt>
<totfact> 0.13110243E+00</totfact>
</mgrwt>
</event>
<event>
 6    1  0.8968082E-007  0.5615221E+03  0.7818608E-02  0.9988616E-01
          2   -1    0    0  501    0  0.00000000000E+00  0.00000000000E+00  0.34039159620E+03  0.34039159620E+03  0.00000000000E+00 0. -1.
         -2   -1    0    0    0  501 -0.00000000000E+00 -0.00000000000E+00 -0.23157675207E+03  0.23157675207E+03  0.00000000000E+00 0.  1.
         23    2    1    2    0    0 -0.19456796863E+03  0.10857863235E+03 -0.10558757132E+03  0.26275255053E+03  0.90797322499E+02 0.  0.
         11    1    3    3    0    0 -0.31178982013E+02  0.59902749823E+02 -0.47812073382E+02  0.82743354517E+02  0.00000000000E+00 0. -1.
        -11    1    3    3    0    0 -0.16338898661E+03  0.48675882530E+02 -0.57775497937E+02  0.18000919601E+03  0.00000000000E+00 0.  1.
         22    1    1    2    0    0  0.19456796863E+03 -0.10857863235E+03  0.21440241545E+03  0.30921579774E+03  0.00000000000E+00 0. -1.
<mgrwt>
<rscale>  0 0.56152215E+03</rscale>
<asrwt>0</asrwt>
<pdfrwt beam="1">  1        2 0.52367938E-01 0.56152215E+03</pdfrwt>
<pdfrwt beam="2">  1       -2 0.35627193E-01 0.56152215E+03</pdfrwt>
<totfact> 0.70980954E+02</totfact>
</mgrwt>
</event>
<event>
 6    1  0.8968082E-007  0.4641276E+04  0.7818608E-02  0.7886360E-01
         -2   -1    0    0    0  501 -0.00000000000E+00  0.00000000000E+00  0.13162162797E+04  0.13162162797E+04  0.00000000000E+00 0.  1.
          2   -1    0    0  501    0  0.00000000000E+00 -0.00000000000E+00 -0.40915471486E+04  0.40915471486E+04  0.00000000000E+00 0. -1.
         23    2    1    2    0    0 -0.12002692345E+04  0.27344510805E+03  0.90268737867E+03  0.15292022658E+04  0.90535097344E+02 0.  0.
         11    1    3    3    0    0 -0.82622498173E+03  0.17953480489E+03  0.56808432030E+03  0.10186266547E+04  0.00000000000E+00 0. -1.
        -11    1    3    3    0    0 -0.37404425274E+03  0.93910303159E+02  0.33460305837E+03  0.51057561117E+03  0.00000000000E+00 0.  1.
         22    1    1    2    0    0  0.12002692345E+04 -0.27344510805E+03 -0.36780182475E+04  0.38785611625E+04  0.00000000000E+00 0. -1.
<mgrwt>
<rscale>  0 0.46412761E+04</rscale>
<asrwt>0</asrwt>
<pdfrwt beam="1">  1        2 0.62946879E+00 0.46412761E+04</pdfrwt>
<pdfrwt beam="2">  1       -2 0.20249481E+00 0.46412761E+04</pdfrwt>
<totfact> 0.27461963E-02</totfact>
</mgrwt>
</event>
<event>
 6    1  0.8968082E-007  0.1163986E+04  0.7818608E-02  0.9144977E-01
         -2   -1    0    0    0  501 -0.00000000000E+00  0.00000000000E+00  0.13219720531E+04  0.13219720531E+04  0.00000000000E+00 0.  1.
          2   -1    0    0  501    0  0.00000000000E+00 -0.00000000000E+00 -0.25622002761E+03  0.25622002761E+03  0.00000000000E+00 0. -1.
         23    2    1    2    0    0  0.28925791019E+03 -0.10382201530E+03 -0.12823937484E+03  0.34528307615E+03  0.91246457158E+02 0.  0.
         11    1    3    3    0    0  0.13588956193E+03 -0.31695537357E+02 -0.10410140508E+03  0.17409101835E+03  0.00000000000E+00 0. -1.
        -11    1    3    3    0    0  0.15336834826E+03 -0.72126477942E+02 -0.24137969762E+02  0.17119205780E+03  0.00000000000E+00 0.  1.
         22    1    1    2    0    0 -0.28925791019E+03  0.10382201530E+03  0.11939914004E+04  0.12329090046E+04  0.00000000000E+00 0.  1.
<mgrwt>
<rscale>  0 0.11639858E+04</rscale>
<asrwt>0</asrwt>
<pdfrwt beam="1">  1        2 0.39418467E-01 0.11639858E+04</pdfrwt>
<pdfrwt beam="2">  1       -2 0.20338031E+00 0.11639858E+04</pdfrwt>
<totfact> 0.16363520E+01</totfact>
</mgrwt>
</event>
<event>
 6    1  0.8968082E-007  0.2777484E+04  0.7818608E-02  0.8310293E-01
          1   -1    0    0  501    0  0.00000000000E+00  0.00000000000E+00  0.18848707287E+04  0.18848707287E+04  0.00000000000E+00 0. -1.
         -1   -1    0    0    0  501 -0.00000000000E+00 -0.00000000000E+00 -0.10232022275E+04  0.10232022275E+04  0.00000000000E+00 0.  1.
         23    2    1    2    0    0 -0.11244685335E+04 -0.68500288324E+03 -0.25595385738E+02  0.13203400951E+04  0.94786127489E+02 0.  0.
         13    1    3    3    0    0 -0.87940016991E+03 -0.54784352835E+03 -0.57569699999E+02  0.10376856271E+04  0.00000000000E+00 0.  1.
        -13    1    3    3    0    0 -0.24506836364E+03 -0.13715935490E+03  0.31974314261E+02  0.28265446797E+03  0.00000000000E+00 0. -1.
         22    1    1    2    0    0  0.11244685335E+04  0.68500288324E+03  0.88726388692E+03  0.15877328610E+04  0.00000000000E+00 0.  1.
<mgrwt>
<rscale>  0 0.27774837E+04</rscale>
<asrwt>0</asrwt>
<pdfrwt beam="1">  1        1 0.28998011E+00 0.27774837E+04</pdfrwt>
<pdfrwt beam="2">  1       -1 0.15741573E+00 0.27774837E+04</pdfrwt>
<totfact> 0.94619692E-01</totfact>
</mgrwt>
</event>
<event>
 6    1  0.8968082E-007  0.2240521E+04  0.7818608E-02  0.8501749E-01
         -1   -1    0    0    0  501 -0.00000000000E+00  0.00000000000E+00  0.11521179097E+04  0.11521179097E+04  0.00000000000E+00 0.  1.
          1   -1    0    0  501    0  0.00000000000E+00 -0.00000000000E+00 -0.10892843593E+04  0.10892843593E+04  0.00000000000E+00 0. -1.
         23    2    1    2    0    0 -0.27966324750E+03  0.10630276895E+04  0.23787827052E+03  0.11283523803E+04  0.91398149501E+02 0.  0.
         13    1    3    3    0    0 -0.16655217751E+03  0.66332188876E+03  0.10314209547E+03  0.69164575311E+03  0.00000000000E+00 0.  1.
        -13    1    3    3    0    0 -0.11311106998E+03  0.39970580079E+03  0.13473617505E+03  0.43670662715E+03  0.00000000000E+00 0. -1.
         22    1    1    2    0    0  0.27966324750E+03 -0.10630276895E+04 -0.17504472007E+03  0.11130498887E+04  0.00000000000E+00 0.  1.
<mgrwt>
<rscale>  0 0.22405214E+04</rscale>
<asrwt>0</asrwt>
<pdfrwt beam="1">  1        1 0.16758221E+00 0.22405214E+04</pdfrwt>
<pdfrwt beam="2">  1       -1 0.17724891E+00 0.22405214E+04</pdfrwt>
<totfact> 0.25566331E+00</totfact>
</mgrwt>
</event>
<event>
 6    1  0.8968082E-007  0.2248619E+04  0.7818608E-02  0.8498460E-01
         -2   -1    0    0    0  501 -0.00000000000E+00  0.00000000000E+00  0.64215380812E+03  0.64215380812E+03  0.00000000000E+00 0.  1.
          2   -1    0    0  501    0  0.00000000000E+00 -0.00000000000E+00 -0.19684883783E+04  0.19684883783E+04  0.00000000000E+00 0. -1.
         23    2    1    2    0    0 -0.37307306543E+03 -0.75210316624E+03 -0.15291991926E+04  0.17469311585E+04  0.92063113519E+02 0.  0.
         11    1    3    3    0    0 -0.34969382233E+03 -0.66441169986E+03 -0.14059811079E+04  0.15938982251E+04  0.00000000000E+00 0. -1.
        -11    1    3    3    0    0 -0.23379243101E+02 -0.87691466381E+02 -0.12321808476E+03  0.15303293337E+03  0.00000000000E+00 0.  1.
         22    1    1    2    0    0  0.37307306543E+03  0.75210316624E+03  0.20286462243E+03  0.86371102798E+03  0.00000000000E+00 0.  1.
<mgrwt>
<rscale>  0 0.22486194E+04</rscale>
<asrwt>0</asrwt>
<pdfrwt beam="1">  1        2 0.30284436E+00 0.22486194E+04</pdfrwt>
<pdfrwt beam="2">  1       -2 0.98792894E-01 0.22486194E+04</pdfrwt>
<totfact> 0.53834731E+00</totfact>
</mgrwt>
</event>
<event>
 6    1  0.8968082E-007  0.6708546E+03  0.7818608E-02  0.9768415E-01
          2   -1    0    0  501    0  0.00000000000E+00  0.00000000000E+00  0.11514747794E+04  0.11514747794E+04  0.00000000000E+00 0. -1.
         -2   -1    0    0    0  501 -0.00000000000E+00 -0.00000000000E+00 -0.97710767209E+02  0.97710767209E+02  0.00000000000E+00 0.  1.
         23    2    1    2    0    0  0.17272478690E+03  0.18179881728E+03  0.93487704905E+03  0.97166298543E+03  0.85142224739E+02 0.  0.
         13    1    3    3    0    0  0.54959377185E+02  0.91462769046E+01  0.20898908394E+03  0.21628829078E+03  0.00000000000E+00 0.  1.
        -13    1    3    3    0    0  0.11776540972E+03  0.17265254037E+03  0.72588796511E+03  0.75537469465E+03  0.00000000000E+00 0. -1.
         22    1    1    2    0    0 -0.17272478690E+03 -0.18179881728E+03  0.11888696319E+03  0.27752256123E+03  0.00000000000E+00 0.  1.
<mgrwt>
<rscale>  0 0.67085463E+03</rscale>
<asrwt>0</asrwt>
<pdfrwt beam="1">  1        2 0.17714996E+00 0.67085463E+03</pdfrwt>
<pdfrwt beam="2">  1       -2 0.15032427E-01 0.67085463E+03</pdfrwt>
<totfact> 0.71396796E+02</totfact>
</mgrwt>
</event>
<event>
 6    1  0.8968082E-007  0.3193690E+04  0.7818608E-02  0.8190486E-01
         -2   -1    0    0    0  501 -0.00000000000E+00  0.00000000000E+00  0.76705081801E+03  0.76705081801E+03  0.00000000000E+00 0.  1.
          2   -1    0    0  501    0  0.00000000000E+00 -0.00000000000E+00 -0.33243082656E+04  0.33243082656E+04  0.00000000000E+00 0. -1.
         23    2    1    2    0    0 -0.17431360189E+03  0.10767924686E+04  0.21183344418E+03  0.11151649335E+04  0.94085963623E+02 0.  0.
         11    1    3    3    0    0 -0.10031252321E+03  0.85667100463E+03  0.17331421697E+03  0.87976453116E+03  0.00000000000E+00 0.  1.
        -11    1    3    3    0    0 -0.74001078685E+02  0.22012146399E+03  0.38519227206E+02  0.23540040234E+03  0.00000000000E+00 0. -1.
         22    1    1    2    0    0  0.17431360189E+03 -0.10767924686E+04 -0.27690908918E+04  0.29761941502E+04  0.00000000000E+00 0. -1.
<mgrwt>
<rscale>  0 0.31936896E+04</rscale>
<asrwt>0</asrwt>
<pdfrwt beam="1">  1        2 0.51143204E+00 0.31936896E+04</pdfrwt>
<pdfrwt beam="2">  1       -2 0.11800782E+00 0.31936896E+04</pdfrwt>
<totfact> 0.49977645E-01</totfact>
</mgrwt>
</event>
<event>
 6    1  0.8968082E-007  0.1362373E+04  0.7818608E-02  0.8981515E-01
         -1   -1    0    0    0  501 -0.00000000000E+00  0.00000000000E+00  0.47954176095E+03  0.47954176095E+03  0.00000000000E+00 0.  1.
          1   -1    0    0  501    0  0.00000000000E+00 -0.00000000000E+00 -0.96762142332E+03  0.96762142332E+03  0.00000000000E+00 0. -1.
         23    2    1    2    0    0  0.50668759481E+03  0.10898949976E+03  0.21964308423E+03  0.56996165905E+03  0.89454896692E+02 0.  0.
         13    1    3    3    0    0  0.46846940411E+03  0.11893355585E+03  0.18532462671E+03  0.51764272482E+03  0.00000000000E+00 0. -1.
        -13    1    3    3    0    0  0.38218190698E+02 -0.99440560915E+01  0.34318457524E+02  0.52318934226E+02  0.00000000000E+00 0.  1.
         22    1    1    2    0    0 -0.50668759481E+03 -0.10898949976E+03 -0.70772274661E+03  0.87720152523E+03  0.00000000000E+00 0. -1.
<mgrwt>
<rscale>  0 0.13623728E+04</rscale>
<asrwt>0</asrwt>
<pdfrwt beam="1">  1        1 0.14886483E+00 0.13623728E+04</pdfrwt>
<pdfrwt beam="2">  1       -1 0.73775656E-01 0.13623728E+04</pdfrwt>
<totfact> 0.29045301E+01</totfact>
</mgrwt>
</event>
<event>
 6    1  0.8968082E-007  0.8664796E+03  0.7818608E-02  0.9468482E-01
          1   -1    0    0  501    0  0.00000000000E+00  0.00000000000E+00  0.52353889062E+03  0.52353889062E+03  0.00000000000E+00 0. -1.
         -1   -1    0    0    0  501 -0.00000000000E+00 -0.00000000000E+00 -0.35851537533E+03  0.35851537533E+03  0.00000000000E+00 0.  1.
         23    2    1    2    0    0 -0.39424421411E+03 -0.16739021921E+03  0.65454013068E+02  0.44232472223E+03  0.88988461188E+02 0.  0.
         11    1    3    3    0    0 -0.52836272640E+02 -0.45016030620E+02 -0.14566340891E+02  0.70924558555E+02  0.00000000000E+00 0.  1.
        -11    1    3    3    0    0 -0.34140794147E+03 -0.12237418859E+03  0.80020353959E+02  0.37140016368E+03  0.00000000000E+00 0. -1.
         22    1    1    2    0    0  0.39424421411E+03  0.16739021921E+03  0.99569502221E+02  0.43972954372E+03  0.00000000000E+00 0.  1.
<mgrwt>
<rscale>  0 0.86647964E+03</rscale>
<asrwt>0</asrwt>
<pdfrwt beam="1">  1        1 0.80544445E-01 0.86647964E+03</pdfrwt>
<pdfrwt beam="2">  1       -1 0.55156211E-01 0.86647964E+03</pdfrwt>
<totfact> 0.13943672E+02</totfact>
</mgrwt>
</event>
<event>
 6    1  0.8968082E-007  0.1094668E+04  0.7818608E-02  0.9210404E-01
         -4   -1    0    0    0  501 -0.00000000000E+00  0.00000000000E+00  0.28942040649E+03  0.28942040649E+03  0.00000000000E+00 0.  1.
          4   -1    0    0  501    0  0.00000000000E+00 -0.00000000000E+00 -0.10350851400E+04  0.10350851400E+04  0.00000000000E+00 0. -1.
         23    2    1    2    0    0 -0.28896001354E+03 -0.27759342084E+03 -0.81895814295E+03  0.91716303628E+03  0.99697535098E+02 0.  0.
         11    1    3    3    0    0 -0.13774758124E+03 -0.15066784967E+03 -0.30922179236E+03  0.37053112411E+03  0.00000000000E+00 0. -1.
        -11    1    3    3    0    0 -0.15121243230E+03 -0.12692557117E+03 -0.50973635058E+03  0.54663191217E+03  0.00000000000E+00 0.  1.
         22    1    1    2    0    0  0.28896001354E+03  0.27759342084E+03  0.73293409479E+02  0.40734251017E+03  0.00000000000E+00 0.  1.
<mgrwt>
<rscale>  0 0.10946685E+04</rscale>
<asrwt>0</asrwt>
<pdfrwt beam="1">  1        4 0.15924387E+00 0.10946685E+04</pdfrwt>
<pdfrwt beam="2">  1       -4 0.44526216E-01 0.10946685E+04</pdfrwt>
<totfact> 0.24599477E+00</totfact>
</mgrwt>
</event>
<event>
 6    1  0.8968082E-007  0.6108432E+03  0.7818608E-02  0.9883162E-01
          1   -1    0    0  501    0  0.00000000000E+00  0.00000000000E+00  0.41597906408E+03  0.41597906408E+03  0.00000000000E+00 0. -1.
         -1   -1    0    0    0  501 -0.00000000000E+00 -0.00000000000E+00 -0.22424769677E+03  0.22424769677E+03  0.00000000000E+00 0.  1.
         23    2    1    2    0    0  0.12408431968E+02  0.68276847520E+02 -0.20574239008E+03  0.23674059640E+03  0.94342364921E+02 0.  0.
         13    1    3    3    0    0 -0.39029444309E+02  0.39267136905E+02 -0.12495064193E+03  0.13666699851E+03  0.00000000000E+00 0. -1.
        -13    1    3    3    0    0  0.51437876276E+02  0.29009710615E+02 -0.80791748149E+02  0.10007359789E+03  0.00000000000E+00 0.  1.
         22    1    1    2    0    0 -0.12408431968E+02 -0.68276847520E+02  0.39747375739E+03  0.40348616445E+03  0.00000000000E+00 0. -1.
<mgrwt>
<rscale>  0 0.61084318E+03</rscale>
<asrwt>0</asrwt>
<pdfrwt beam="1">  1        1 0.63996779E-01 0.61084318E+03</pdfrwt>
<pdfrwt beam="2">  1       -1 0.34499646E-01 0.61084318E+03</pdfrwt>
<totfact> 0.45850464E+02</totfact>
</mgrwt>
</event>
<event>
 6    1  0.8968082E-007  0.2484803E+04  0.7818608E-02  0.8408420E-01
          2   -1    0    0  501    0  0.00000000000E+00  0.00000000000E+00  0.15245576268E+04  0.15245576268E+04  0.00000000000E+00 0. -1.
         -2   -1    0    0    0  501 -0.00000000000E+00 -0.00000000000E+00 -0.10124647899E+04  0.10124647899E+04  0.00000000000E+00 0.  1.
         23    2    1    2    0    0 -0.12289586648E+04 -0.16268302605E+03  0.19545003127E+03  0.12575429003E+04  0.80051636641E+02 0.  0.
         11    1    3    3    0    0 -0.89579933229E+03 -0.11222578182E+03  0.10664670982E+03  0.90907897927E+03  0.00000000000E+00 0. -1.
        -11    1    3    3    0    0 -0.33315933251E+03 -0.50457244228E+02  0.88803321446E+02  0.34846392099E+03  0.00000000000E+00 0.  1.
         22    1    1    2    0    0  0.12289586648E+04  0.16268302605E+03  0.31664280567E+03  0.12794795165E+04  0.00000000000E+00 0. -1.
<mgrwt>
<rscale>  0 0.24848025E+04</rscale>
<asrwt>0</asrwt>
<pdfrwt beam="1">  1        2 0.23454733E+00 0.24848025E+04</pdfrwt>
<pdfrwt beam="2">  1       -2 0.15576381E+00 0.24848025E+04</pdfrwt>
<totfact> 0.29749321E+00</totfact>
</mgrwt>
</event>
<event>
 6    1  0.8968082E-007  0.1747025E+04  0.7818608E-02  0.8734990E-01
          3   -1    0    0  501    0  0.00000000000E+00  0.00000000000E+00  0.22657417245E+04  0.22657417245E+04  0.00000000000E+00 0. -1.
         -3   -1    0    0    0  501 -0.00000000000E+00 -0.00000000000E+00 -0.33676568564E+03  0.33676568564E+03  0.00000000000E+00 0.  1.
         23    2    1    2    0    0 -0.32400786348E+03 -0.50526192620E+03  0.27002648917E+02  0.60807177926E+03  0.93549110223E+02 0.  0.
         13    1    3    3    0    0 -0.28237422724E+02 -0.12169716484E+02 -0.87398808192E+01  0.31966225271E+02  0.00000000000E+00 0.  1.
        -13    1    3    3    0    0 -0.29577044075E+03 -0.49309220972E+03  0.35742529736E+02  0.57610555399E+03  0.00000000000E+00 0. -1.
         22    1    1    2    0    0  0.32400786348E+03  0.50526192620E+03  0.19019733900E+04  0.19944356309E+04  0.00000000000E+00 0. -1.
<mgrwt>
<rscale>  0 0.17470250E+04</rscale>
<asrwt>0</asrwt>
<pdfrwt beam="1">  1        3 0.34857564E+00 0.17470250E+04</pdfrwt>
<pdfrwt beam="2">  1       -3 0.51810107E-01 0.17470250E+04</pdfrwt>
<totfact> 0.19292385E-01</totfact>
</mgrwt>
</event>
<event>
 6    1  0.8968082E-007  0.3038137E+04  0.7818608E-02  0.8232924E-01
          2   -1    0    0  501    0  0.00000000000E+00  0.00000000000E+00  0.35837007420E+04  0.35837007420E+04  0.00000000000E+00 0. -1.
         -2   -1    0    0    0  501 -0.00000000000E+00 -0.00000000000E+00 -0.64390656048E+03  0.64390656048E+03  0.00000000000E+00 0.  1.
         23    2    1    2    0    0 -0.10758986772E+04 -0.69636713782E+03  0.33986921529E+03  0.13289705566E+04  0.90368703756E+02 0.  0.
         13    1    3    3    0    0 -0.72611668626E+03 -0.44698078552E+03  0.18643091103E+03  0.87280796816E+03  0.00000000000E+00 0.  1.
        -13    1    3    3    0    0 -0.34978199098E+03 -0.24938635229E+03  0.15343830426E+03  0.45616258849E+03  0.00000000000E+00 0. -1.
         22    1    1    2    0    0  0.10758986772E+04  0.69636713782E+03  0.25999249662E+04  0.28986367458E+04  0.00000000000E+00 0. -1.
<mgrwt>
<rscale>  0 0.30381365E+04</rscale>
<asrwt>0</asrwt>
<pdfrwt beam="1">  1        2 0.55133856E+00 0.30381365E+04</pdfrwt>
<pdfrwt beam="2">  1       -2 0.99062550E-01 0.30381365E+04</pdfrwt>
<totfact> 0.51072806E-01</totfact>
</mgrwt>
</event>
<event>
 6    1  0.8968082E-007  0.2932188E+04  0.7818608E-02  0.8263365E-01
          1   -1    0    0  501    0  0.00000000000E+00  0.00000000000E+00  0.25560584946E+04  0.25560584946E+04  0.00000000000E+00 0. -1.
         -1   -1    0    0    0  501 -0.00000000000E+00 -0.00000000000E+00 -0.84091628431E+03  0.84091628431E+03  0.00000000000E+00 0.  1.
         23    2    1    2    0    0 -0.24610904491E+03 -0.14102908526E+04  0.12170034683E+04  0.18811805458E+04  0.90845216107E+02 0.  0.
         13    1    3    3    0    0 -0.10629322645E+03 -0.83486232011E+03  0.74341302664E+03  0.11229230925E+04  0.00000000000E+00 0.  1.
        -13    1    3    3    0    0 -0.13981581846E+03 -0.57542853245E+03  0.47359044170E+03  0.75825745332E+03  0.00000000000E+00 0. -1.
         22    1    1    2    0    0  0.24610904491E+03  0.14102908526E+04  0.49813874194E+03  0.15157942331E+04  0.00000000000E+00 0.  1.
<mgrwt>
<rscale>  0 0.29321877E+04</rscale>
<asrwt>0</asrwt>
<pdfrwt beam="1">  1        1 0.39323977E+00 0.29321877E+04</pdfrwt>
<pdfrwt beam="2">  1       -1 0.12937174E+00 0.29321877E+04</pdfrwt>
<totfact> 0.54396756E-01</totfact>
</mgrwt>
</event>
<event>
 6    1  0.8968082E-007  0.3771244E+04  0.7818608E-02  0.8052354E-01
         -1   -1    0    0    0  501 -0.00000000000E+00  0.00000000000E+00  0.13119378331E+04  0.13119378331E+04  0.00000000000E+00 0.  1.
          1   -1    0    0  501    0  0.00000000000E+00 -0.00000000000E+00 -0.27101668281E+04  0.27101668281E+04  0.00000000000E+00 0. -1.
         23    2    1    2    0    0 -0.76484447923E+03 -0.11486252726E+04  0.66917773333E+03  0.15364462626E+04  0.92418530264E+02 0.  0.
         13    1    3    3    0    0 -0.31366929807E+03 -0.40961158710E+03  0.28217644914E+03  0.58804220026E+03  0.00000000000E+00 0.  1.
        -13    1    3    3    0    0 -0.45117518116E+03 -0.73901368552E+03  0.38700128419E+03  0.94840406233E+03  0.00000000000E+00 0. -1.
         22    1    1    2    0    0  0.76484447923E+03  0.11486252726E+04 -0.20674067283E+04  0.24856583986E+04  0.00000000000E+00 0. -1.
<mgrwt>
<rscale>  0 0.37712440E+04</rscale>
<asrwt>0</asrwt>
<pdfrwt beam="1">  1        1 0.41694874E+00 0.37712440E+04</pdfrwt>
<pdfrwt beam="2">  1       -1 0.20183659E+00 0.37712440E+04</pdfrwt>
<totfact> 0.11251489E-01</totfact>
</mgrwt>
</event>
<event>
 6    1  0.8968082E-007  0.8966536E+03  0.7818608E-02  0.9429774E-01
         -1   -1    0    0    0  501 -0.00000000000E+00  0.00000000000E+00  0.23032366086E+03  0.23032366086E+03  0.00000000000E+00 0.  1.
          1   -1    0    0  501    0  0.00000000000E+00 -0.00000000000E+00 -0.87267159960E+03  0.87267159960E+03  0.00000000000E+00 0. -1.
         23    2    1    2    0    0 -0.22181892632E+03  0.14371694493E+03  0.11008491674E+03  0.30549077876E+03  0.10652572777E+03 0.  0.
         13    1    3    3    0    0 -0.98512327677E+02  0.23734666648E+02  0.17219021888E+00  0.10133135129E+03  0.00000000000E+00 0. -1.
        -13    1    3    3    0    0 -0.12330659865E+03  0.11998227828E+03  0.10991272652E+03  0.20415942747E+03  0.00000000000E+00 0.  1.
         22    1    1    2    0    0  0.22181892632E+03 -0.14371694493E+03 -0.75243285548E+03  0.79750448171E+03  0.00000000000E+00 0. -1.
<mgrwt>
<rscale>  0 0.89665360E+03</rscale>
<asrwt>0</asrwt>
<pdfrwt beam="1">  1        1 0.13425717E+00 0.89665360E+03</pdfrwt>
<pdfrwt beam="2">  1       -1 0.35434409E-01 0.89665360E+03</pdfrwt>
<totfact> 0.14644103E+02</totfact>
</mgrwt>
</event>
<event>
 6    1  0.8968082E-007  0.2289985E+04  0.7818608E-02  0.8481880E-01
         -2   -1    0    0    0  501 -0.00000000000E+00  0.00000000000E+00  0.38256680067E+03  0.38256680067E+03  0.00000000000E+00 0.  1.
          2   -1    0    0  501    0  0.00000000000E+00 -0.00000000000E+00 -0.34268726747E+04  0.34268726747E+04  0.00000000000E+00 0. -1.
         23    2    1    2    0    0 -0.15813415483E+03 -0.10458501627E+04 -0.80314957048E+03  0.13312162105E+04  0.90985673845E+02 0.  0.
         11    1    3    3    0    0 -0.45420973373E+02 -0.29242225589E+03 -0.27723509892E+03  0.40550356427E+03  0.00000000000E+00 0.  1.
        -11    1    3    3    0    0 -0.11271318146E+03 -0.75342790676E+03 -0.52591447156E+03  0.92571264621E+03  0.00000000000E+00 0. -1.
         22    1    1    2    0    0  0.15813415483E+03  0.10458501627E+04 -0.22411563036E+04  0.24782232649E+04  0.00000000000E+00 0.  1.
<mgrwt>
<rscale>  0 0.22899849E+04</rscale>
<asrwt>0</asrwt>
<pdfrwt beam="1">  1        2 0.52721117E+00 0.22899849E+04</pdfrwt>
<pdfrwt beam="2">  1       -2 0.58856432E-01 0.22899849E+04</pdfrwt>
<totfact> 0.22419317E+00</totfact>
</mgrwt>
</event>
<event>
 6    1  0.8968082E-007  0.1103578E+04  0.7818608E-02  0.9201711E-01
          1   -1    0    0  501    0  0.00000000000E+00  0.00000000000E+00  0.76162496207E+03  0.76162496207E+03  0.00000000000E+00 0. -1.
         -1   -1    0    0    0  501 -0.00000000000E+00 -0.00000000000E+00 -0.39976529102E+03  0.39976529102E+03  0.00000000000E+00 0.  1.
         23    2    1    2    0    0 -0.24467753154E+03 -0.17445839227E+03  0.66453892727E+03  0.73487230831E+03  0.90124905510E+02 0.  0.
         13    1    3    3    0    0 -0.40370083537E+02 -0.73405516105E+02  0.14358810020E+03  0.16623975444E+03  0.00000000000E+00 0.  1.
        -13    1    3    3    0    0 -0.20430744800E+03 -0.10105287616E+03  0.52095082707E+03  0.56863255386E+03  0.00000000000E+00 0. -1.
         22    1    1    2    0    0  0.24467753154E+03  0.17445839227E+03 -0.30267925622E+03  0.42651794478E+03  0.00000000000E+00 0.  1.
<mgrwt>
<rscale>  0 0.11035782E+04</rscale>
<asrwt>0</asrwt>
<pdfrwt beam="1">  1        1 0.11717307E+00 0.11035782E+04</pdfrwt>
<pdfrwt beam="2">  1       -1 0.61502352E-01 0.11035782E+04</pdfrwt>
<totfact> 0.63876950E+01</totfact>
</mgrwt>
</event>
<event>
 6    1  0.8968082E-007  0.2816972E+04  0.7818608E-02  0.8298019E-01
         -2   -1    0    0    0  501 -0.00000000000E+00  0.00000000000E+00  0.98379062693E+03  0.98379062693E+03  0.00000000000E+00 0.  1.
          2   -1    0    0  501    0  0.00000000000E+00 -0.00000000000E+00 -0.20165190596E+04  0.20165190596E+04  0.00000000000E+00 0. -1.
         23    2    1    2    0    0  0.72810882551E+03  0.92050227158E+03  0.30953179530E+03  0.12172983536E+04  0.92403763787E+02 0.  0.
         13    1    3    3    0    0  0.53590472177E+03  0.73360747183E+03  0.22133614420E+03  0.93507405176E+03  0.00000000000E+00 0. -1.
        -13    1    3    3    0    0  0.19220410373E+03  0.18689479975E+03  0.88195651100E+02  0.28222430182E+03  0.00000000000E+00 0.  1.
         22    1    1    2    0    0 -0.72810882551E+03 -0.92050227158E+03 -0.13422602279E+04  0.17830113329E+04  0.00000000000E+00 0. -1.
<mgrwt>
<rscale>  0 0.28169718E+04</rscale>
<asrwt>0</asrwt>
<pdfrwt beam="1">  1        2 0.31023370E+00 0.28169718E+04</pdfrwt>
<pdfrwt beam="2">  1       -2 0.15135240E+00 0.28169718E+04</pdfrwt>
<totfact> 0.16629888E+00</totfact>
</mgrwt>
</event>
<event>
 6    1  0.8968082E-007  0.8742126E+03  0.7818608E-02  0.9458404E-01
         -1   -1    0    0    0  501 -0.00000000000E+00  0.00000000000E+00  0.83539046538E+02  0.83539046538E+02  0.00000000000E+00 0.  1.
          1   -1    0    0  501    0  0.00000000000E+00 -0.00000000000E+00 -0.22870973044E+04  0.22870973044E+04  0.00000000000E+00 0. -1.
         23    2    1    2    0    0 -0.41133544014E+03 -0.75491261601E+02 -0.81426529991E+03  0.91976395893E+03  0.89677124171E+02 0.  0.
         11    1    3    3    0    0 -0.12685219945E+03 -0.59497137077E+02 -0.22188613057E+03  0.26242112103E+03  0.00000000000E+00 0. -1.
        -11    1    3    3    0    0 -0.28448324069E+03 -0.15994124524E+02 -0.59237916935E+03  0.65734283790E+03  0.00000000000E+00 0.  1.
         22    1    1    2    0    0  0.41133544014E+03  0.75491261601E+02 -0.13892929579E+04  0.14508723920E+04  0.00000000000E+00 0. -1.
<mgrwt>
<rscale>  0 0.87421262E+03</rscale>
<asrwt>0</asrwt>
<pdfrwt beam="1">  1        1 0.35186113E+00 0.87421262E+03</pdfrwt>
<pdfrwt beam="2">  1       -1 0.12852161E-01 0.87421262E+03</pdfrwt>
<totfact> 0.82214981E+01</totfact>
</mgrwt>
</event>
<event>
 6    1  0.8968082E-007  0.9974196E+03  0.7818608E-02  0.9311380E-01
          1   -1    0    0  501    0  0.00000000000E+00  0.00000000000E+00  0.22615720014E+03  0.22615720014E+03  0.00000000000E+00 0. -1.
         -1   -1    0    0    0  501 -0.00000000000E+00 -0.00000000000E+00 -0.10997281737E+04  0.10997281737E+04  0.00000000000E+00 0.  1.
         23    2    1    2    0    0  0.49066045252E+03  0.31289122525E+02 -0.51376278294E+03  0.71663286222E+03  0.88790614515E+02 0.  0.
         13    1    3    3    0    0  0.39433260907E+03  0.50872653123E+02 -0.37472319261E+03  0.54635492538E+03  0.00000000000E+00 0.  1.
        -13    1    3    3    0    0  0.96327843452E+02 -0.19583530598E+02 -0.13903959033E+03  0.17027793684E+03  0.00000000000E+00 0. -1.
         22    1    1    2    0    0 -0.49066045252E+03 -0.31289122525E+02 -0.35980819058E+03  0.60925251158E+03  0.00000000000E+00 0. -1.
<mgrwt>
<rscale>  0 0.99741956E+03</rscale>
<asrwt>0</asrwt>
<pdfrwt beam="1">  1        1 0.34793415E-01 0.99741956E+03</pdfrwt>
<pdfrwt beam="2">  1       -1 0.16918895E+00 0.99741956E+03</pdfrwt>
<totfact> 0.31724454E+01</totfact>
</mgrwt>
</event>
<event>
 6    1  0.8968082E-007  0.2600525E+04  0.7818608E-02  0.8368023E-01
         -2   -1    0    0    0  501 -0.00000000000E+00  0.00000000000E+00  0.84021365239E+03  0.84021365239E+03  0.00000000000E+00 0.  1.
          2   -1    0    0  501    0  0.00000000000E+00 -0.00000000000E+00 -0.20122054869E+04  0.20122054869E+04  0.00000000000E+00 0. -1.
         23    2    1    2    0    0  0.10159968530E+04  0.78071794211E+03 -0.81865123887E+03  0.15232766762E+04  0.91716252125E+02 0.  0.
         13    1    3    3    0    0  0.12720865631E+03  0.13687749079E+03 -0.12973357960E+03  0.22748250790E+03  0.00000000000E+00 0. -1.
        -13    1    3    3    0    0  0.88878819674E+03  0.64384045132E+03 -0.68891765928E+03  0.12957941683E+04  0.00000000000E+00 0.  1.
         22    1    1    2    0    0 -0.10159968530E+04 -0.78071794211E+03 -0.35334059561E+03  0.13291424630E+04  0.00000000000E+00 0.  1.
<mgrwt>
<rscale>  0 0.26005250E+04</rscale>
<asrwt>0</asrwt>
<pdfrwt beam="1">  1        2 0.30957008E+00 0.26005250E+04</pdfrwt>
<pdfrwt beam="2">  1       -2 0.12926364E+00 0.26005250E+04</pdfrwt>
<totfact> 0.25634149E+00</totfact>
</mgrwt>
</event>
<event>
 6    1  0.8968082E-007  0.3346302E+04  0.7818608E-02  0.8151213E-01
          2   -1    0    0  501    0  0.00000000000E+00  0.00000000000E+00  0.16977543258E+04  0.16977543258E+04  0.00000000000E+00 0. -1.
         -2   -1    0    0    0  501 -0.00000000000E+00 -0.00000000000E+00 -0.16489039502E+04  0.16489039502E+04  0.00000000000E+00 0.  1.
         23    2    1    2    0    0  0.55413925518E+03  0.86866337092E+03  0.13413434541E+04  0.16937261164E+04  0.88653988176E+02 0.  0.
         11    1    3    3    0    0  0.26281493511E+03  0.34149820351E+03  0.59526567911E+03  0.73487001697E+03  0.00000000000E+00 0.  1.
        -11    1    3    3    0    0  0.29132432007E+03  0.52716516742E+03  0.74607777494E+03  0.95885609946E+03  0.00000000000E+00 0. -1.
         22    1    1    2    0    0 -0.55413925518E+03 -0.86866337092E+03 -0.12924930785E+04  0.16529321596E+04  0.00000000000E+00 0.  1.
<mgrwt>
<rscale>  0 0.33463017E+04</rscale>
<asrwt>0</asrwt>
<pdfrwt beam="1">  1        2 0.26119297E+00 0.33463017E+04</pdfrwt>
<pdfrwt beam="2">  1       -2 0.25367753E+00 0.33463017E+04</pdfrwt>
<totfact> 0.49922628E-01</totfact>
</mgrwt>
</event>
<event>
 6    1  0.8968082E-007  0.2161387E+04  0.7818608E-02  0.8534674E-01
         -2   -1    0    0    0  501 -0.00000000000E+00  0.00000000000E+00  0.83280191146E+03  0.83280191146E+03  0.00000000000E+00 0.  1.
          2   -1    0    0  501    0  0.00000000000E+00 -0.00000000000E+00 -0.14023721572E+04  0.14023721572E+04  0.00000000000E+00 0. -1.
         23    2    1    2    0    0 -0.64495554814E+03  0.74508431502E+02  0.60572577570E+03  0.89247532976E+03  0.89940721761E+02 0.  0.
         11    1    3    3    0    0 -0.35120016494E+03  0.85346151161E+02  0.34045103705E+03  0.49652032185E+03  0.00000000000E+00 0. -1.
        -11    1    3    3    0    0 -0.29375538320E+03 -0.10837719659E+02  0.26527473865E+03  0.39595500791E+03  0.00000000000E+00 0.  1.
         22    1    1    2    0    0  0.64495554814E+03 -0.74508431502E+02 -0.11752960214E+04  0.13426987389E+04  0.00000000000E+00 0. -1.
<mgrwt>
<rscale>  0 0.21613868E+04</rscale>
<asrwt>0</asrwt>
<pdfrwt beam="1">  1        2 0.21574956E+00 0.21613868E+04</pdfrwt>
<pdfrwt beam="2">  1       -2 0.12812337E+00 0.21613868E+04</pdfrwt>
<totfact> 0.59609924E+00</totfact>
</mgrwt>
</event>
<event>
 6    1  0.8968082E-007  0.2370736E+04  0.7818608E-02  0.8450542E-01
         -2   -1    0    0    0  501 -0.00000000000E+00  0.00000000000E+00  0.11726243105E+04  0.11726243105E+04  0.00000000000E+00 0.  1.
          2   -1    0    0  501    0  0.00000000000E+00 -0.00000000000E+00 -0.11982498133E+04  0.11982498133E+04  0.00000000000E+00 0. -1.
         23    2    1    2    0    0 -0.46729755239E+03 -0.10687988228E+04  0.18769109222E+03  0.11850402839E+04  0.91622062420E+02 0.  0.
         11    1    3    3    0    0 -0.31665428935E+03 -0.65465818129E+03  0.81768660940E+02  0.73180146707E+03  0.00000000000E+00 0. -1.
        -11    1    3    3    0    0 -0.15064326304E+03 -0.41414064150E+03  0.10592243128E+03  0.45323881684E+03  0.00000000000E+00 0.  1.
         22    1    1    2    0    0  0.46729755239E+03  0.10687988228E+04 -0.21331659509E+03  0.11858338399E+04  0.00000000000E+00 0. -1.
<mgrwt>
<rscale>  0 0.23707356E+04</rscale>
<asrwt>0</asrwt>
<pdfrwt beam="1">  1        2 0.18434612E+00 0.23707356E+04</pdfrwt>
<pdfrwt beam="2">  1       -2 0.18040374E+00 0.23707356E+04</pdfrwt>
<totfact> 0.30834167E+00</totfact>
</mgrwt>
</event>
<event>
 6    1  0.8968082E-007  0.1445818E+04  0.7818608E-02  0.8921305E-01
         -1   -1    0    0    0  501 -0.00000000000E+00  0.00000000000E+00  0.46825178091E+03  0.46825178091E+03  0.00000000000E+00 0.  1.
          1   -1    0    0  501    0  0.00000000000E+00 -0.00000000000E+00 -0.11160610959E+04  0.11160610959E+04  0.00000000000E+00 0. -1.
         23    2    1    2    0    0  0.26198323656E+03  0.20245835387E+03  0.37541997679E+03  0.50884889096E+03  0.91446342531E+02 0.  0.
         13    1    3    3    0    0  0.11515177419E+03  0.36363608928E+02  0.15166928330E+03  0.19387061317E+03  0.00000000000E+00 0.  1.
        -13    1    3    3    0    0  0.14683146236E+03  0.16609474495E+03  0.22375069349E+03  0.31497827778E+03  0.00000000000E+00 0. -1.
         22    1    1    2    0    0 -0.26198323656E+03 -0.20245835387E+03 -0.10232292918E+04  0.10754639859E+04  0.00000000000E+00 0. -1.
<mgrwt>
<rscale>  0 0.14458182E+04</rscale>
<asrwt>0</asrwt>
<pdfrwt beam="1">  1        1 0.17170171E+00 0.14458182E+04</pdfrwt>
<pdfrwt beam="2">  1       -1 0.72038736E-01 0.14458182E+04</pdfrwt>
<totfact> 0.23297628E+01</totfact>
</mgrwt>
</event>
<event>
 6    1  0.8968082E-007  0.1796671E+04  0.7818608E-02  0.8708072E-01
          2   -1    0    0  501    0  0.00000000000E+00  0.00000000000E+00  0.34510610927E+04  0.34510610927E+04  0.00000000000E+00 0. -1.
         -2   -1    0    0    0  501 -0.00000000000E+00 -0.00000000000E+00 -0.23384315337E+03  0.23384315337E+03  0.00000000000E+00 0.  1.
         23    2    1    2    0    0  0.41945833407E+03  0.75632317038E+03  0.20936158702E+04  0.22670002853E+04  0.89960267564E+02 0.  0.
         11    1    3    3    0    0  0.88171483522E+02  0.22440871325E+03  0.51890566517E+03  0.57218578315E+03  0.00000000000E+00 0. -1.
        -11    1    3    3    0    0  0.33128685054E+03  0.53191445713E+03  0.15747102050E+04  0.16948145022E+04  0.00000000000E+00 0.  1.
         22    1    1    2    0    0 -0.41945833407E+03 -0.75632317038E+03  0.11236020692E+04  0.14179039608E+04  0.00000000000E+00 0. -1.
<mgrwt>
<rscale>  0 0.17966714E+04</rscale>
<asrwt>0</asrwt>
<pdfrwt beam="1">  1        2 0.53093244E+00 0.17966714E+04</pdfrwt>
<pdfrwt beam="2">  1       -2 0.35975872E-01 0.17966714E+04</pdfrwt>
<totfact> 0.60813666E+00</totfact>
</mgrwt>
</event>
<event>
 6    1  0.8968082E-007  0.3243546E+04  0.7818608E-02  0.8177410E-01
         -4   -1    0    0    0  501 -0.00000000000E+00  0.00000000000E+00  0.20084035802E+04  0.20084035802E+04  0.00000000000E+00 0.  1.
          4   -1    0    0  501    0  0.00000000000E+00 -0.00000000000E+00 -0.13095714505E+04  0.13095714505E+04  0.00000000000E+00 0. -1.
         23    2    1    2    0    0 -0.47917809910E+03 -0.36498772949E+03  0.18885993465E+04  0.19844182364E+04  0.90997537305E+02 0.  0.
         13    1    3    3    0    0 -0.16808087233E+03 -0.15118116786E+03  0.84215875692E+03  0.87197379376E+03  0.00000000000E+00 0.  1.
        -13    1    3    3    0    0 -0.31109722676E+03 -0.21380656163E+03  0.10464405896E+04  0.11124444426E+04  0.00000000000E+00 0. -1.
         22    1    1    2    0    0  0.47917809910E+03  0.36498772949E+03 -0.11897672169E+04  0.13335567943E+04  0.00000000000E+00 0. -1.
<mgrwt>
<rscale>  0 0.32435462E+04</rscale>
<asrwt>0</asrwt>
<pdfrwt beam="1">  1        4 0.20147253E+00 0.32435462E+04</pdfrwt>
<pdfrwt beam="2">  1       -4 0.30898516E+00 0.32435462E+04</pdfrwt>
<totfact> 0.57950406E-03</totfact>
</mgrwt>
</event>
<event>
 6    1  0.8968082E-007  0.1937934E+04  0.7818608E-02  0.8636201E-01
          1   -1    0    0  501    0  0.00000000000E+00  0.00000000000E+00  0.11386932571E+04  0.11386932571E+04  0.00000000000E+00 0. -1.
         -1   -1    0    0    0  501 -0.00000000000E+00 -0.00000000000E+00 -0.82453888194E+03  0.82453888194E+03  0.00000000000E+00 0.  1.
         23    2    1    2    0    0 -0.41987631869E+02 -0.45988544405E+03  0.10182322830E+04  0.11212206884E+04  0.84150264983E+02 0.  0.
         13    1    3    3    0    0 -0.63705760577E+02 -0.37181989398E+03  0.78392132122E+03  0.86996614610E+03  0.00000000000E+00 0. -1.
        -13    1    3    3    0    0  0.21718128708E+02 -0.88065550069E+02  0.23431096174E+03  0.25125454228E+03  0.00000000000E+00 0.  1.
         22    1    1    2    0    0  0.41987631869E+02  0.45988544405E+03 -0.70407790778E+03  0.84201145069E+03  0.00000000000E+00 0.  1.
<mgrwt>
<rscale>  0 0.19379338E+04</rscale>
<asrwt>0</asrwt>
<pdfrwt beam="1">  1        1 0.17518358E+00 0.19379338E+04</pdfrwt>
<pdfrwt beam="2">  1       -1 0.12685214E+00 0.19379338E+04</pdfrwt>
<totfact> 0.59669662E+00</totfact>
</mgrwt>
</event>
<event>
 6    1  0.8968082E-007  0.1380767E+04  0.7818608E-02  0.8967859E-01
         -2   -1    0    0    0  501 -0.00000000000E+00  0.00000000000E+00  0.22536527829E+03  0.22536527829E+03  0.00000000000E+00 0.  1.
          2   -1    0    0  501    0  0.00000000000E+00 -0.00000000000E+00 -0.21149191844E+04  0.21149191844E+04  0.00000000000E+00 0. -1.
         23    2    1    2    0    0 -0.29786735080E+03 -0.25354129291E+03  0.91161723221E+01  0.40173959279E+03  0.91123267772E+02 0.  0.
         11    1    3    3    0    0 -0.70903795556E+02 -0.21281250138E+02  0.20446138728E+02  0.76800289196E+02  0.00000000000E+00 0.  1.
        -11    1    3    3    0    0 -0.22696355525E+03 -0.23226004277E+03 -0.11329966406E+02  0.32493930359E+03  0.00000000000E+00 0. -1.
         22    1    1    2    0    0  0.29786735080E+03  0.25354129291E+03 -0.18986700784E+04  0.19385448699E+04  0.00000000000E+00 0. -1.
<mgrwt>
<rscale>  0 0.13807670E+04</rscale>
<asrwt>0</asrwt>
<pdfrwt beam="1">  1        2 0.32537218E+00 0.13807670E+04</pdfrwt>
<pdfrwt beam="2">  1       -2 0.34671582E-01 0.13807670E+04</pdfrwt>
<totfact> 0.43872933E+01</totfact>
</mgrwt>
</event>
<event>
 6    1  0.8968082E-007  0.6907354E+03  0.7818608E-02  0.9733208E-01
          2   -1    0    0  501    0  0.00000000000E+00  0.00000000000E+00  0.21655330083E+03  0.21655330083E+03  0.00000000000E+00 0. -1.
         -2   -1    0    0    0  501 -0.00000000000E+00 -0.00000000000E+00 -0.55080597891E+03  0.55080597891E+03  0.00000000000E+00 0.  1.
         23    2    1    2    0    0  0.20188666802E+03 -0.10413705415E+03 -0.45009760139E+03  0.51236359541E+03  0.91246097764E+02 0.  0.
         13    1    3    3    0    0  0.69313493900E+02 -0.16117785400E+02 -0.23004968608E+03  0.24080490342E+03  0.00000000000E+00 0. -1.
        -13    1    3    3    0    0  0.13257317412E+03 -0.88019268750E+02 -0.22004791530E+03  0.27155869199E+03  0.00000000000E+00 0.  1.
         22    1    1    2    0    0 -0.20188666802E+03  0.10413705415E+03  0.11584492331E+03  0.25499568433E+03  0.00000000000E+00 0. -1.
<mgrwt>
<rscale>  0 0.69073541E+03</rscale>
<asrwt>0</asrwt>
<pdfrwt beam="1">  1        2 0.33315892E-01 0.69073541E+03</pdfrwt>
<pdfrwt beam="2">  1       -2 0.84739382E-01 0.69073541E+03</pdfrwt>
<totfact> 0.19379636E+02</totfact>
</mgrwt>
</event>
<event>
 6    1  0.8968082E-007  0.8490117E+03  0.7818608E-02  0.9491664E-01
         -2   -1    0    0    0  501 -0.00000000000E+00  0.00000000000E+00  0.18649945470E+03  0.18649945470E+03  0.00000000000E+00 0.  1.
          2   -1    0    0  501    0  0.00000000000E+00 -0.00000000000E+00 -0.96625062327E+03  0.96625062327E+03  0.00000000000E+00 0. -1.
         23    2    1    2    0    0  0.63537002923E+02  0.21236347210E+03 -0.87812986370E+03  0.91023500076E+03  0.90997275124E+02 0.  0.
         13    1    3    3    0    0  0.57625658467E+02  0.79520670061E+02 -0.25916323368E+03  0.27714587345E+03  0.00000000000E+00 0.  1.
        -13    1    3    3    0    0  0.59113444563E+01  0.13284280204E+03 -0.61896663001E+03  0.63308912731E+03  0.00000000000E+00 0. -1.
         22    1    1    2    0    0 -0.63537002923E+02 -0.21236347210E+03  0.98378695127E+02  0.24251507721E+03  0.00000000000E+00 0.  1.
<mgrwt>
<rscale>  0 0.84901169E+03</rscale>
<asrwt>0</asrwt>
<pdfrwt beam="1">  1        2 0.14865394E+00 0.84901169E+03</pdfrwt>
<pdfrwt beam="2">  1       -2 0.28692224E-01 0.84901169E+03</pdfrwt>
<totfact> 0.29596304E+02</totfact>
</mgrwt>
</event>
<event>
 6    1  0.8968082E-007  0.2263473E+04  0.7818608E-02  0.8492464E-01
          1   -1    0    0  501    0  0.00000000000E+00  0.00000000000E+00  0.14658840076E+04  0.14658840076E+04  0.00000000000E+00 0. -1.
         -1   -1    0    0    0  501 -0.00000000000E+00 -0.00000000000E+00 -0.87375744517E+03  0.87375744517E+03  0.00000000000E+00 0.  1.
         23    2    1    2    0    0 -0.30635614656E+03  0.82125026634E+03 -0.44048697231E+03  0.98516856613E+03  0.90676581429E+02 0.  0.
         11    1    3    3    0    0 -0.29387762760E+03  0.77979530600E+03 -0.39445116453E+03  0.92197424067E+03  0.00000000000E+00 0. -1.
        -11    1    3    3    0    0 -0.12478518959E+02  0.41454960336E+02 -0.46035807779E+02  0.63194325455E+02  0.00000000000E+00 0.  1.
         22    1    1    2    0    0  0.30635614656E+03 -0.82125026634E+03  0.10326135347E+04  0.13544728866E+04  0.00000000000E+00 0. -1.
<mgrwt>
<rscale>  0 0.22634726E+04</rscale>
<asrwt>0</asrwt>
<pdfrwt beam="1">  1        1 0.22552062E+00 0.22634726E+04</pdfrwt>
<pdfrwt beam="2">  1       -1 0.13442422E+00 0.22634726E+04</pdfrwt>
<totfact> 0.29176183E+00</totfact>
</mgrwt>
</event>
<event>
 6    1  0.8968082E-007  0.2872677E+04  0.7818608E-02  0.8281054E-01
          2   -1    0    0  501    0  0.00000000000E+00  0.00000000000E+00  0.12531028903E+04  0.12531028903E+04  0.00000000000E+00 0. -1.
         -2   -1    0    0    0  501 -0.00000000000E+00 -0.00000000000E+00 -0.16463672743E+04  0.16463672743E+04  0.00000000000E+00 0.  1.
         23    2    1    2    0    0  0.18000145485E+03 -0.13979020764E+04  0.71198756255E+02  0.14154699127E+04  0.10933925094E+03 0.  0.
         13    1    3    3    0    0  0.71148099258E+02 -0.80070908176E+03 -0.33979480751E+01  0.80387102927E+03  0.00000000000E+00 0.  1.
        -13    1    3    3    0    0  0.10885335560E+03 -0.59719299467E+03  0.74596704330E+02  0.61159888342E+03  0.00000000000E+00 0. -1.
         22    1    1    2    0    0 -0.18000145485E+03  0.13979020764E+04 -0.46446314028E+03  0.14840002519E+04  0.00000000000E+00 0.  1.
<mgrwt>
<rscale>  0 0.28726765E+04</rscale>
<asrwt>0</asrwt>
<pdfrwt beam="1">  1        2 0.19278506E+00 0.28726765E+04</pdfrwt>
<pdfrwt beam="2">  1       -2 0.25328727E+00 0.28726765E+04</pdfrwt>
<totfact> 0.93451892E-01</totfact>
</mgrwt>
</event>
<event>
 6    1  0.8968082E-007  0.2530270E+04  0.7818608E-02  0.8392280E-01
         -1   -1    0    0    0  501 -0.00000000000E+00  0.00000000000E+00  0.69349231479E+03  0.69349231479E+03  0.00000000000E+00 0.  1.
          1   -1    0    0  501    0  0.00000000000E+00 -0.00000000000E+00 -0.23079800314E+04  0.23079800314E+04  0.00000000000E+00 0. -1.
         23    2    1    2    0    0 -0.45750371332E+03  0.90575241172E+03 -0.17006826711E+04  0.19830781940E+04  0.10286154114E+03 0.  0.
         13    1    3    3    0    0 -0.25038723011E+03  0.41428803545E+03 -0.87925291870E+03  0.10037001725E+04  0.00000000000E+00 0. -1.
        -13    1    3    3    0    0 -0.20711648321E+03  0.49146437627E+03 -0.82142975242E+03  0.97937802146E+03  0.00000000000E+00 0.  1.
         22    1    1    2    0    0  0.45750371332E+03 -0.90575241172E+03  0.86194954506E+02  0.10183941522E+04  0.00000000000E+00 0.  1.
<mgrwt>
<rscale>  0 0.25302699E+04</rscale>
<asrwt>0</asrwt>
<pdfrwt beam="1">  1        1 0.35507385E+00 0.25302699E+04</pdfrwt>
<pdfrwt beam="2">  1       -1 0.10669113E+00 0.25302699E+04</pdfrwt>
<totfact> 0.13351536E+00</totfact>
</mgrwt>
</event>
<event>
 6    1  0.8968082E-007  0.1115746E+04  0.7818608E-02  0.9189979E-01
         -1   -1    0    0    0  501 -0.00000000000E+00  0.00000000000E+00  0.18191488548E+03  0.18191488548E+03  0.00000000000E+00 0.  1.
          1   -1    0    0  501    0  0.00000000000E+00 -0.00000000000E+00 -0.17108121222E+04  0.17108121222E+04  0.00000000000E+00 0. -1.
         23    2    1    2    0    0 -0.42005506192E+03  0.35847539231E+03 -0.69221084797E+03  0.89023263110E+03  0.91691970674E+02 0.  0.
         13    1    3    3    0    0 -0.30810270411E+03  0.27331929892E+03 -0.44908924503E+03  0.60935364563E+03  0.00000000000E+00 0. -1.
        -13    1    3    3    0    0 -0.11195235781E+03  0.85156093392E+02 -0.24312160294E+03  0.28087898546E+03  0.00000000000E+00 0.  1.
         22    1    1    2    0    0  0.42005506192E+03 -0.35847539231E+03 -0.83668638872E+03  0.10024943765E+04  0.00000000000E+00 0. -1.
<mgrwt>
<rscale>  0 0.11157458E+04</rscale>
<asrwt>0</asrwt>
<pdfrwt beam="1">  1        1 0.26320187E+00 0.11157458E+04</pdfrwt>
<pdfrwt beam="2">  1       -1 0.27986905E-01 0.11157458E+04</pdfrwt>
<totfact> 0.53782359E+01</totfact>
</mgrwt>
</event>
<event>
 6    1  0.8968082E-007  0.5287442E+03  0.7818608E-02  0.1006537E+00
         -2   -1    0    0    0  501 -0.00000000000E+00  0.00000000000E+00  0.59706235635E+02  0.59706235635E+02  0.00000000000E+00 0.  1.
          2   -1    0    0  501    0  0.00000000000E+00 -0.00000000000E+00 -0.11706079826E+04  0.11706079826E+04  0.00000000000E+00 0. -1.
         23    2    1    2    0    0  0.49120364638E+02 -0.22397309630E+03 -0.83952246460E+03  0.87503478878E+03  0.91165535817E+02 0.  0.
         11    1    3    3    0    0  0.51384340002E+02 -0.16711616559E+03 -0.47616211599E+03  0.50724601911E+03  0.00000000000E+00 0. -1.
        -11    1    3    3    0    0 -0.22639753639E+01 -0.56856930710E+02 -0.36336034861E+03  0.36778876967E+03  0.00000000000E+00 0.  1.
         22    1    1    2    0    0 -0.49120364638E+02  0.22397309630E+03 -0.27137928231E+03  0.35527942940E+03  0.00000000000E+00 0.  1.
<mgrwt>
<rscale>  0 0.52874416E+03</rscale>
<asrwt>0</asrwt>
<pdfrwt beam="1">  1        2 0.18009352E+00 0.52874416E+03</pdfrwt>
<pdfrwt beam="2">  1       -2 0.91855757E-02 0.52874416E+03</pdfrwt>
<totfact> 0.15712331E+03</totfact>
</mgrwt>
</event>
<event>
 6    1  0.8968082E-007  0.4240577E+04  0.7818608E-02  0.7957698E-01
         -2   -1    0    0    0  501 -0.00000000000E+00  0.00000000000E+00  0.38569951574E+04  0.38569951574E+04  0.00000000000E+00 0.  1.
          2   -1    0    0  501    0  0.00000000000E+00 -0.00000000000E+00 -0.11655763562E+04  0.11655763562E+04  0.00000000000E+00 0. -1.
         23    2    1    2    0    0  0.74496185550E+03 -0.66607067826E+03 -0.86717340956E+03  0.13263306073E+04  0.92438320692E+02 0.  0.
         13    1    3    3    0    0  0.39440464026E+03 -0.35785003628E+03 -0.52261538983E+03  0.74614912344E+03  0.00000000000E+00 0. -1.
        -13    1    3    3    0    0  0.35055721524E+03 -0.30822064198E+03 -0.34455801973E+03  0.58018148390E+03  0.00000000000E+00 0.  1.
         22    1    1    2    0    0 -0.74496185550E+03  0.66607067826E+03  0.35585922107E+04  0.36962409062E+04  0.00000000000E+00 0.  1.
<mgrwt>
<rscale>  0 0.42405765E+04</rscale>
<asrwt>0</asrwt>
<pdfrwt beam="1">  1        2 0.17931944E+00 0.42405765E+04</pdfrwt>
<pdfrwt beam="2">  1       -2 0.59338386E+00 0.42405765E+04</pdfrwt>
<totfact> 0.83089566E-03</totfact>
</mgrwt>
</event>
<event>
 6    1  0.8968082E-007  0.5224305E+04  0.7818608E-02  0.7794808E-01
          2   -1    0    0  501    0  0.00000000000E+00  0.00000000000E+00  0.29144111277E+04  0.29144111277E+04  0.00000000000E+00 0. -1.
         -2   -1    0    0    0  501 -0.00000000000E+00 -0.00000000000E+00 -0.23412412452E+04  0.23412412452E+04  0.00000000000E+00 0.  1.
         23    2    1    2    0    0 -0.23754316398E+03  0.10243520061E+04 -0.21179283677E+04  0.23664079078E+04  0.92423093988E+02 0.  0.
         11    1    3    3    0    0 -0.67493887150E+02  0.17387813626E+03 -0.32491156627E+03  0.37464190498E+03  0.00000000000E+00 0. -1.
        -11    1    3    3    0    0 -0.17004927683E+03  0.85047386982E+03 -0.17930168015E+04  0.19917660028E+04  0.00000000000E+00 0.  1.
         22    1    1    2    0    0  0.23754316398E+03 -0.10243520061E+04  0.26910982502E+04  0.28892444652E+04  0.00000000000E+00 0. -1.
<mgrwt>
<rscale>  0 0.52243046E+04</rscale>
<asrwt>0</asrwt>
<pdfrwt beam="1">  1        2 0.44837094E+00 0.52243046E+04</pdfrwt>
<pdfrwt beam="2">  1       -2 0.36019096E+00 0.52243046E+04</pdfrwt>
<totfact> 0.18875898E-02</totfact>
</mgrwt>
</event>
<event>
 6    1  0.8968082E-007  0.4050872E+04  0.7818608E-02  0.7994362E-01
          2   -1    0    0  501    0  0.00000000000E+00  0.00000000000E+00  0.45804256419E+04  0.45804256419E+04  0.00000000000E+00 0. -1.
         -2   -1    0    0    0  501 -0.00000000000E+00 -0.00000000000E+00 -0.89563536779E+03  0.89563536779E+03  0.00000000000E+00 0.  1.
         23    2    1    2    0    0 -0.10819750514E+04 -0.80653438730E+03  0.38832222847E+04  0.41120437838E+04  0.91219720207E+02 0.  0.
         11    1    3    3    0    0 -0.90953327352E+03 -0.71701726729E+03  0.33443942720E+04  0.35392566429E+04  0.00000000000E+00 0.  1.
        -11    1    3    3    0    0 -0.17244177792E+03 -0.89517120015E+02  0.53882801265E+03  0.57278714089E+03  0.00000000000E+00 0. -1.
         22    1    1    2    0    0  0.10819750514E+04  0.80653438730E+03 -0.19843201057E+03  0.13640172259E+04  0.00000000000E+00 0.  1.
<mgrwt>
<rscale>  0 0.40508721E+04</rscale>
<asrwt>0</asrwt>
<pdfrwt beam="1">  1        2 0.70468086E+00 0.40508721E+04</pdfrwt>
<pdfrwt beam="2">  1       -2 0.13779006E+00 0.40508721E+04</pdfrwt>
<totfact> 0.29849849E-02</totfact>
</mgrwt>
</event>
<event>
 6    1  0.8968082E-007  0.1663411E+04  0.7818608E-02  0.8782512E-01
          2   -1    0    0  501    0  0.00000000000E+00  0.00000000000E+00  0.11623696996E+04  0.11623696996E+04  0.00000000000E+00 0. -1.
         -2   -1    0    0    0  501 -0.00000000000E+00 -0.00000000000E+00 -0.59510641145E+03  0.59510641145E+03  0.00000000000E+00 0.  1.
         23    2    1    2    0    0 -0.45240435440E+03  0.29506185540E+03 -0.38023456794E+03  0.66684171508E+03  0.91478674615E+02 0.  0.
         11    1    3    3    0    0 -0.15100084457E+03  0.61025206421E+02 -0.80920135373E+02  0.18186093365E+03  0.00000000000E+00 0.  1.
        -11    1    3    3    0    0 -0.30140350983E+03  0.23403664898E+03 -0.29931443257E+03  0.48498078142E+03  0.00000000000E+00 0. -1.
         22    1    1    2    0    0  0.45240435440E+03 -0.29506185540E+03  0.94749785606E+03  0.10906343960E+04  0.00000000000E+00 0. -1.
<mgrwt>
<rscale>  0 0.16634105E+04</rscale>
<asrwt>0</asrwt>
<pdfrwt beam="1">  1        2 0.17882611E+00 0.16634105E+04</pdfrwt>
<pdfrwt beam="2">  1       -2 0.91554833E-01 0.16634105E+04</pdfrwt>
<totfact> 0.19345180E+01</totfact>
</mgrwt>
</event>
<event>
 6    1  0.8968082E-007  0.3138576E+04  0.7818608E-02  0.8205230E-01
         -2   -1    0    0    0  501 -0.00000000000E+00  0.00000000000E+00  0.13096546082E+04  0.13096546082E+04  0.00000000000E+00 0.  1.
          2   -1    0    0  501    0  0.00000000000E+00 -0.00000000000E+00 -0.18803925547E+04  0.18803925547E+04  0.00000000000E+00 0. -1.
         23    2    1    2    0    0  0.65385601708E+03 -0.14245359309E+04 -0.32878793629E+03  0.16040553227E+04  0.89786757412E+02 0.  0.
         13    1    3    3    0    0  0.48996270968E+03 -0.11268482884E+04 -0.22932199663E+03  0.12499756398E+04  0.00000000000E+00 0.  1.
        -13    1    3    3    0    0  0.16389330740E+03 -0.29768764250E+03 -0.99465939662E+02  0.35407968292E+03  0.00000000000E+00 0. -1.
         22    1    1    2    0    0 -0.65385601708E+03  0.14245359309E+04 -0.24195001020E+03  0.15859918401E+04  0.00000000000E+00 0.  1.
<mgrwt>
<rscale>  0 0.31385760E+04</rscale>
<asrwt>0</asrwt>
<pdfrwt beam="1">  1        2 0.28929116E+00 0.31385760E+04</pdfrwt>
<pdfrwt beam="2">  1       -2 0.20148533E+00 0.31385760E+04</pdfrwt>
<totfact> 0.85706104E-01</totfact>
</mgrwt>
</event>
<event>
 6    1  0.8968082E-007  0.8880784E+03  0.7818608E-02  0.9440608E-01
         -2   -1    0    0    0  501 -0.00000000000E+00  0.00000000000E+00  0.15548239873E+03  0.15548239873E+03  0.00000000000E+00 0.  1.
          2   -1    0    0  501    0  0.00000000000E+00 -0.00000000000E+00 -0.12681229958E+04  0.12681229958E+04  0.00000000000E+00 0. -1.
         23    2    1    2    0    0 -0.37368573507E+03 -0.18297430878E+03 -0.78814779330E+03  0.89595379930E+03  0.91845740846E+02 0.  0.
         11    1    3    3    0    0 -0.25280131088E+03 -0.10118741110E+03 -0.42707587676E+03  0.50649896294E+03  0.00000000000E+00 0.  1.
        -11    1    3    3    0    0 -0.12088442419E+03 -0.81786897680E+02 -0.36107191654E+03  0.38945483635E+03  0.00000000000E+00 0. -1.
         22    1    1    2    0    0  0.37368573507E+03  0.18297430878E+03 -0.32449280379E+03  0.52765159526E+03  0.00000000000E+00 0.  1.
<mgrwt>
<rscale>  0 0.88807839E+03</rscale>
<asrwt>0</asrwt>
<pdfrwt beam="1">  1        2 0.19509585E+00 0.88807839E+03</pdfrwt>
<pdfrwt beam="2">  1       -2 0.23920369E-01 0.88807839E+03</pdfrwt>
<totfact> 0.26863699E+02</totfact>
</mgrwt>
</event>
<event>
 6    1  0.8968082E-007  0.1341906E+04  0.7818608E-02  0.8996978E-01
          2   -1    0    0  501    0  0.00000000000E+00  0.00000000000E+00  0.36630555132E+03  0.36630555132E+03  0.00000000000E+00 0. -1.
         -2   -1    0    0    0  501 -0.00000000000E+00 -0.00000000000E+00 -0.12289682532E+04  0.12289682532E+04  0.00000000000E+00 0.  1.
         23    2    1    2    0    0 -0.36568572766E+02 -0.65727493673E+03 -0.29769413792E+03  0.72778485289E+03  0.87757560232E+02 0.  0.
         11    1    3    3    0    0 -0.52541368137E+02 -0.54084488549E+03 -0.21644324328E+03  0.58491150022E+03  0.00000000000E+00 0.  1.
        -11    1    3    3    0    0  0.15972795371E+02 -0.11643005124E+03 -0.81250894648E+02  0.14287335268E+03  0.00000000000E+00 0. -1.
         22    1    1    2    0    0  0.36568572766E+02  0.65727493673E+03 -0.56496856398E+03  0.86748895166E+03  0.00000000000E+00 0.  1.
<mgrwt>
<rscale>  0 0.13419059E+04</rscale>
<asrwt>0</asrwt>
<pdfrwt beam="1">  1        2 0.56354699E-01 0.13419059E+04</pdfrwt>
<pdfrwt beam="2">  1       -2 0.18907204E+00 0.13419059E+04</pdfrwt>
<totfact> 0.13478913E+01</totfact>
</mgrwt>
</event>
<event>
 6    1  0.8968082E-007  0.1837643E+04  0.7818608E-02  0.8686534E-01
          2   -1    0    0  501    0  0.00000000000E+00  0.00000000000E+00  0.18276552452E+04  0.18276552452E+04  0.00000000000E+00 0. -1.
         -2   -1    0    0    0  501 -0.00000000000E+00 -0.00000000000E+00 -0.46192117860E+03  0.46192117860E+03  0.00000000000E+00 0.  1.
         23    2    1    2    0    0  0.71433254733E+03  0.56051796345E+03  0.52814803563E+03  0.10542619963E+04  0.89870093836E+02 0.  0.
         11    1    3    3    0    0  0.13003961545E+03  0.62405730463E+02  0.72389285842E+02  0.16138458875E+03  0.00000000000E+00 0. -1.
        -11    1    3    3    0    0  0.58429293188E+03  0.49811223299E+03  0.45575874978E+03  0.89287740754E+03  0.00000000000E+00 0.  1.
         22    1    1    2    0    0 -0.71433254733E+03 -0.56051796345E+03  0.83758603093E+03  0.12353144275E+04  0.00000000000E+00 0. -1.
<mgrwt>
<rscale>  0 0.18376427E+04</rscale>
<asrwt>0</asrwt>
<pdfrwt beam="1">  1        2 0.28117773E+00 0.18376427E+04</pdfrwt>
<pdfrwt beam="2">  1       -2 0.71064797E-01 0.18376427E+04</pdfrwt>
<totfact> 0.14097714E+01</totfact>
</mgrwt>
</event>
<event>
 6    1  0.8968082E-007  0.9434960E+03  0.7818608E-02  0.9372785E-01
          2   -1    0    0  501    0  0.00000000000E+00  0.00000000000E+00  0.13203728981E+04  0.13203728981E+04  0.00000000000E+00 0. -1.
         -2   -1    0    0    0  501 -0.00000000000E+00 -0.00000000000E+00 -0.16854798323E+03  0.16854798323E+03  0.00000000000E+00 0.  1.
         23    2    1    2    0    0  0.12383352327E+03  0.26401940630E+03  0.11575535733E+04  0.11972467379E+04  0.91806796798E+02 0.  0.
         13    1    3    3    0    0  0.79053921285E+02  0.68904933345E+02  0.36102944212E+03  0.37595168624E+03  0.00000000000E+00 0. -1.
        -13    1    3    3    0    0  0.44779601990E+02  0.19511447295E+03  0.79652413122E+03  0.82129505169E+03  0.00000000000E+00 0.  1.
         22    1    1    2    0    0 -0.12383352327E+03 -0.26401940630E+03 -0.57286584881E+01  0.29167414338E+03  0.00000000000E+00 0.  1.
<mgrwt>
<rscale>  0 0.94349603E+03</rscale>
<asrwt>0</asrwt>
<pdfrwt beam="1">  1        2 0.20313429E+00 0.94349603E+03</pdfrwt>
<pdfrwt beam="2">  1       -2 0.25930460E-01 0.94349603E+03</pdfrwt>
<totfact> 0.21582617E+02</totfact>
</mgrwt>
</event>
<event>
 6    1  0.8968082E-007  0.2199310E+04  0.7818608E-02  0.8518715E-01
         -2   -1    0    0    0  501 -0.00000000000E+00  0.00000000000E+00  0.67515391676E+03  0.67515391676E+03  0.00000000000E+00 0.  1.
          2   -1    0    0  501    0  0.00000000000E+00 -0.00000000000E+00 -0.17910602162E+04  0.17910602162E+04  0.00000000000E+00 0. -1.
         23    2    1    2    0    0 -0.24507122655E+03  0.65799685074E+03  0.38726942841E+03  0.80713094321E+03  0.91994497893E+02 0.  0.
         13    1    3    3    0    0 -0.15848026470E+03  0.41022955060E+03  0.19132350558E+03  0.47959249606E+03  0.00000000000E+00 0.  1.
        -13    1    3    3    0    0 -0.86590961850E+02  0.24776730014E+03  0.19594592282E+03  0.32753844715E+03  0.00000000000E+00 0. -1.
         22    1    1    2    0    0  0.24507122655E+03 -0.65799685074E+03 -0.15031757278E+04  0.16590831897E+04  0.00000000000E+00 0. -1.
<mgrwt>
<rscale>  0 0.21993102E+04</rscale>
<asrwt>0</asrwt>
<pdfrwt beam="1">  1        2 0.27554772E+00 0.21993102E+04</pdfrwt>
<pdfrwt beam="2">  1       -2 0.10386983E+00 0.21993102E+04</pdfrwt>
<totfact> 0.60190902E+00</totfact>
</mgrwt>
</event>
<event>
 6    1  0.8968082E-007  0.1991295E+04  0.7818608E-02  0.8610702E-01
          2   -1    0    0  501    0  0.00000000000E+00  0.00000000000E+00  0.16273586574E+04  0.16273586574E+04  0.00000000000E+00 0. -1.
         -2   -1    0    0    0  501 -0.00000000000E+00 -0.00000000000E+00 -0.60915496360E+03  0.60915496360E+03  0.00000000000E+00 0.  1.
         23    2    1    2    0    0 -0.80509185592E+03  0.57862940837E+03  0.43197793338E+03  0.10847126265E+04  0.83735646576E+02 0.  0.
         11    1    3    3    0    0 -0.65759208297E+03  0.47646885239E+03  0.38790145872E+03  0.89995414137E+03  0.00000000000E+00 0.  1.
        -11    1    3    3    0    0 -0.14749977295E+03  0.10216055598E+03  0.44076474656E+02  0.18475848516E+03  0.00000000000E+00 0. -1.
         22    1    1    2    0    0  0.80509185592E+03 -0.57862940837E+03  0.58622576046E+03  0.11518009945E+04  0.00000000000E+00 0. -1.
<mgrwt>
<rscale>  0 0.19912947E+04</rscale>
<asrwt>0</asrwt>
<pdfrwt beam="1">  1        2 0.25036287E+00 0.19912947E+04</pdfrwt>
<pdfrwt beam="2">  1       -2 0.93716149E-01 0.19912947E+04</pdfrwt>
<totfact> 0.96300741E+00</totfact>
</mgrwt>
</event>
<event>
 6    1  0.8968082E-007  0.3267993E+04  0.7818608E-02  0.8171088E-01
         -2   -1    0    0    0  501 -0.00000000000E+00  0.00000000000E+00  0.19484819294E+04  0.19484819294E+04  0.00000000000E+00 0.  1.
          2   -1    0    0  501    0  0.00000000000E+00 -0.00000000000E+00 -0.13702688607E+04  0.13702688607E+04  0.00000000000E+00 0. -1.
         23    2    1    2    0    0 -0.32427634923E+03 -0.79863100071E+03 -0.11188341460E+04  0.14153496567E+04  0.91968356339E+02 0.  0.
         11    1    3    3    0    0 -0.10715209918E+03 -0.22987909460E+03 -0.26617056850E+03  0.36765845839E+03  0.00000000000E+00 0. -1.
        -11    1    3    3    0    0 -0.21712425005E+03 -0.56875190611E+03 -0.85266357750E+03  0.10476911983E+04  0.00000000000E+00 0.  1.
         22    1    1    2    0    0  0.32427634923E+03  0.79863100071E+03  0.16970472147E+04  0.19034011335E+04  0.00000000000E+00 0.  1.
<mgrwt>
<rscale>  0 0.32679927E+04</rscale>
<asrwt>0</asrwt>
<pdfrwt beam="1">  1        2 0.21081059E+00 0.32679927E+04</pdfrwt>
<pdfrwt beam="2">  1       -2 0.29976645E+00 0.32679927E+04</pdfrwt>
<totfact> 0.40186248E-01</totfact>
</mgrwt>
</event>
<event>
 6    1  0.8968082E-007  0.2979407E+04  0.7818608E-02  0.8249636E-01
          2   -1    0    0  501    0  0.00000000000E+00  0.00000000000E+00  0.98673111820E+03  0.98673111820E+03  0.00000000000E+00 0. -1.
         -2   -1    0    0    0  501 -0.00000000000E+00 -0.00000000000E+00 -0.22490597555E+04  0.22490597555E+04  0.00000000000E+00 0.  1.
         23    2    1    2    0    0 -0.22904582016E+03  0.96187392861E+03 -0.18397665813E+04  0.20907589870E+04  0.94173382157E+02 0.  0.
         11    1    3    3    0    0 -0.15623894458E+03  0.53446564962E+03 -0.11121633396E+04  0.12437730631E+04  0.00000000000E+00 0. -1.
        -11    1    3    3    0    0 -0.72806875583E+02  0.42740827899E+03 -0.72760324168E+03  0.84698592395E+03  0.00000000000E+00 0.  1.
         22    1    1    2    0    0  0.22904582016E+03 -0.96187392861E+03  0.57743794402E+03  0.11450318867E+04  0.00000000000E+00 0. -1.
<mgrwt>
<rscale>  0 0.29794075E+04</rscale>
<asrwt>0</asrwt>
<pdfrwt beam="1">  1        2 0.15180479E+00 0.29794075E+04</pdfrwt>
<pdfrwt beam="2">  1       -2 0.34600919E+00 0.29794075E+04</pdfrwt>
<totfact> 0.36306404E-01</totfact>
</mgrwt>
</event>
<event>
 6    1  0.8968082E-007  0.1888960E+04  0.7818608E-02  0.8660371E-01
         -1   -1    0    0    0  501 -0.00000000000E+00  0.00000000000E+00  0.47423472323E+03  0.47423472323E+03  0.00000000000E+00 0.  1.
          1   -1    0    0  501    0  0.00000000000E+00 -0.00000000000E+00 -0.18810142629E+04  0.18810142629E+04  0.00000000000E+00 0. -1.
         23    2    1    2    0    0 -0.71408565445E+03  0.60083837817E+03 -0.86764354817E+03  0.12774768878E+04  0.90646531444E+02 0.  0.
         13    1    3    3    0    0 -0.12409402292E+03  0.62793995016E+02 -0.13394197426E+03  0.19308771272E+03  0.00000000000E+00 0. -1.
        -13    1    3    3    0    0 -0.58999163153E+03  0.53804438315E+03 -0.73370157391E+03  0.10843891751E+04  0.00000000000E+00 0.  1.
         22    1    1    2    0    0  0.71408565445E+03 -0.60083837817E+03 -0.53913599150E+03  0.10777720983E+04  0.00000000000E+00 0.  1.
<mgrwt>
<rscale>  0 0.18889598E+04</rscale>
<asrwt>0</asrwt>
<pdfrwt beam="1">  1        1 0.28938681E+00 0.18889598E+04</pdfrwt>
<pdfrwt beam="2">  1       -1 0.72959188E-01 0.18889598E+04</pdfrwt>
<totfact> 0.63652352E+00</totfact>
</mgrwt>
</event>
<event>
 6    1  0.8968082E-007  0.1379815E+04  0.7818608E-02  0.8968561E-01
         -2   -1    0    0    0  501 -0.00000000000E+00  0.00000000000E+00  0.17099236217E+04  0.17099236217E+04  0.00000000000E+00 0.  1.
          2   -1    0    0  501    0  0.00000000000E+00 -0.00000000000E+00 -0.27835875979E+03  0.27835875979E+03  0.00000000000E+00 0. -1.
         23    2    1    2    0    0  0.93048831278E+02  0.54234187045E+03  0.13112203711E+04  0.14250101686E+04  0.92532855575E+02 0.  0.
         11    1    3    3    0    0  0.90306972414E+02  0.29252044310E+03  0.66137728505E+03  0.72879590564E+03  0.00000000000E+00 0.  1.
        -11    1    3    3    0    0  0.27418588632E+01  0.24982142734E+03  0.64984308609E+03  0.69621426292E+03  0.00000000000E+00 0. -1.
         22    1    1    2    0    0 -0.93048831278E+02 -0.54234187045E+03  0.12034449081E+03  0.56327221297E+03  0.00000000000E+00 0. -1.
<mgrwt>
<rscale>  0 0.13798148E+04</rscale>
<asrwt>0</asrwt>
<pdfrwt beam="1">  1        2 0.42824426E-01 0.13798148E+04</pdfrwt>
<pdfrwt beam="2">  1       -2 0.26306517E+00 0.13798148E+04</pdfrwt>
<totfact> 0.62300557E+00</totfact>
</mgrwt>
</event>
<event>
 6    1  0.8968082E-007  0.2322502E+04  0.7818608E-02  0.8469101E-01
         -2   -1    0    0    0  501 -0.00000000000E+00  0.00000000000E+00  0.11327114921E+04  0.11327114921E+04  0.00000000000E+00 0.  1.
          2   -1    0    0  501    0  0.00000000000E+00 -0.00000000000E+00 -0.11905097077E+04  0.11905097077E+04  0.00000000000E+00 0. -1.
         23    2    1    2    0    0  0.77524744247E+03 -0.18900662865E+03  0.81231248857E+03  0.11426176507E+04  0.94823066419E+02 0.  0.
         11    1    3    3    0    0  0.39383989427E+03 -0.14185899128E+03  0.44641849035E+03  0.61198309147E+03  0.00000000000E+00 0.  1.
        -11    1    3    3    0    0  0.38140754820E+03 -0.47147637370E+02  0.36589399822E+03  0.53063455925E+03  0.00000000000E+00 0. -1.
         22    1    1    2    0    0 -0.77524744247E+03  0.18900662865E+03 -0.87011070408E+03  0.11806035491E+04  0.00000000000E+00 0. -1.
<mgrwt>
<rscale>  0 0.23225021E+04</rscale>
<asrwt>0</asrwt>
<pdfrwt beam="1">  1        2 0.18315534E+00 0.23225021E+04</pdfrwt>
<pdfrwt beam="2">  1       -2 0.17426331E+00 0.23225021E+04</pdfrwt>
<totfact> 0.34531278E+00</totfact>
</mgrwt>
</event>
<event>
 6    1  0.8968082E-007  0.2606281E+04  0.7818608E-02  0.8366071E-01
         -2   -1    0    0    0  501 -0.00000000000E+00  0.00000000000E+00  0.71374181268E+03  0.71374181268E+03  0.00000000000E+00 0.  1.
          2   -1    0    0  501    0  0.00000000000E+00 -0.00000000000E+00 -0.23792572156E+04  0.23792572156E+04  0.00000000000E+00 0. -1.
         23    2    1    2    0    0  0.44420068018E+03  0.10772535058E+04 -0.15218656039E+04  0.19189357315E+04  0.91924237027E+02 0.  0.
         13    1    3    3    0    0  0.33688134632E+03  0.70681749154E+03 -0.10028748599E+04  0.12723356446E+04  0.00000000000E+00 0.  1.
        -13    1    3    3    0    0  0.10731933387E+03  0.37043601426E+03 -0.51899074395E+03  0.64660008691E+03  0.00000000000E+00 0. -1.
         22    1    1    2    0    0 -0.44420068018E+03 -0.10772535058E+04 -0.14364979904E+03  0.11740632968E+04  0.00000000000E+00 0.  1.
<mgrwt>
<rscale>  0 0.26062811E+04</rscale>
<asrwt>0</asrwt>
<pdfrwt beam="1">  1        2 0.36603958E+00 0.26062811E+04</pdfrwt>
<pdfrwt beam="2">  1       -2 0.10980643E+00 0.26062811E+04</pdfrwt>
<totfact> 0.23830110E+00</totfact>
</mgrwt>
</event>
<event>
 6    1  0.8968082E-007  0.1942736E+04  0.7818608E-02  0.8633872E-01
         -1   -1    0    0    0  501 -0.00000000000E+00  0.00000000000E+00  0.15563939744E+04  0.15563939744E+04  0.00000000000E+00 0.  1.
          1   -1    0    0  501    0  0.00000000000E+00 -0.00000000000E+00 -0.60624455109E+03  0.60624455109E+03  0.00000000000E+00 0. -1.
         23    2    1    2    0    0  0.89559606781E+03  0.29971293037E+03  0.71401109022E+03  0.11891491986E+04  0.11110275495E+03 0.  0.
         13    1    3    3    0    0  0.43397048770E+03  0.19934927432E+03  0.33235789311E+03  0.58183527435E+03  0.00000000000E+00 0.  1.
        -13    1    3    3    0    0  0.46162558011E+03  0.10036365605E+03  0.38165319711E+03  0.60731392420E+03  0.00000000000E+00 0. -1.
         22    1    1    2    0    0 -0.89559606781E+03 -0.29971293037E+03  0.23613833310E+03  0.97348932694E+03  0.00000000000E+00 0. -1.
<mgrwt>
<rscale>  0 0.19427356E+04</rscale>
<asrwt>0</asrwt>
<pdfrwt beam="1">  1        1 0.93268393E-01 0.19427356E+04</pdfrwt>
<pdfrwt beam="2">  1       -1 0.23944523E+00 0.19427356E+04</pdfrwt>
<totfact> 0.25711914E+00</totfact>
</mgrwt>
</event>
<event>
 6    1  0.8968082E-007  0.2249606E+04  0.7818608E-02  0.8498060E-01
         -2   -1    0    0    0  501 -0.00000000000E+00  0.00000000000E+00  0.11580608460E+04  0.11580608460E+04  0.00000000000E+00 0.  1.
          2   -1    0    0  501    0  0.00000000000E+00 -0.00000000000E+00 -0.10925001105E+04  0.10925001105E+04  0.00000000000E+00 0. -1.
         23    2    1    2    0    0  0.65750829563E+02  0.10697259431E+04 -0.30256428061E+03  0.11173563006E+04  0.91121861774E+02 0.  0.
         13    1    3    3    0    0  0.34105654560E+02  0.51525826530E+03 -0.98588136961E+02  0.52571275083E+03  0.00000000000E+00 0.  1.
        -13    1    3    3    0    0  0.31645175003E+02  0.55446767776E+03 -0.20397614365E+03  0.59164354975E+03  0.00000000000E+00 0. -1.
         22    1    1    2    0    0 -0.65750829563E+02 -0.10697259431E+04  0.36812501610E+03  0.11332046560E+04  0.00000000000E+00 0.  1.
<mgrwt>
<rscale>  0 0.22496058E+04</rscale>
<asrwt>0</asrwt>
<pdfrwt beam="1">  1        2 0.16807694E+00 0.22496058E+04</pdfrwt>
<pdfrwt beam="2">  1       -2 0.17816321E+00 0.22496058E+04</pdfrwt>
<totfact> 0.37427466E+00</totfact>
</mgrwt>
</event>
<event>
 6    1  0.8968082E-007  0.3132886E+04  0.7818608E-02  0.8206770E-01
          2   -1    0    0  501    0  0.00000000000E+00  0.00000000000E+00  0.10271563377E+04  0.10271563377E+04  0.00000000000E+00 0. -1.
         -2   -1    0    0    0  501 -0.00000000000E+00 -0.00000000000E+00 -0.23888709549E+04  0.23888709549E+04  0.00000000000E+00 0.  1.
         23    2    1    2    0    0  0.14839246055E+04  0.41424632959E+03 -0.98216748213E+03  0.18293047951E+04  0.89837708011E+02 0.  0.
         13    1    3    3    0    0  0.55029271741E+03  0.15590626571E+03 -0.41643190927E+03  0.70749160672E+03  0.00000000000E+00 0.  1.
        -13    1    3    3    0    0  0.93363188812E+03  0.25834006388E+03 -0.56573557286E+03  0.11218131883E+04  0.00000000000E+00 0. -1.
         22    1    1    2    0    0 -0.14839246055E+04 -0.41424632959E+03 -0.37954713515E+03  0.15867224976E+04  0.00000000000E+00 0. -1.
<mgrwt>
<rscale>  0 0.31328862E+04</rscale>
<asrwt>0</asrwt>
<pdfrwt beam="1">  1        2 0.15802405E+00 0.31328862E+04</pdfrwt>
<pdfrwt beam="2">  1       -2 0.36751861E+00 0.31328862E+04</pdfrwt>
<totfact> 0.24663778E-01</totfact>
</mgrwt>
</event>
<event>
 6    1  0.8968082E-007  0.3023417E+04  0.7818608E-02  0.8237076E-01
          2   -1    0    0  501    0  0.00000000000E+00  0.00000000000E+00  0.16139484766E+04  0.16139484766E+04  0.00000000000E+00 0. -1.
         -2   -1    0    0    0  501 -0.00000000000E+00 -0.00000000000E+00 -0.14159449533E+04  0.14159449533E+04  0.00000000000E+00 0.  1.
         23    2    1    2    0    0  0.14668865114E+03 -0.15023255847E+04  0.45886304867E+02  0.15127779526E+04  0.88836130327E+02 0.  0.
         11    1    3    3    0    0  0.51899855785E+02 -0.46627873096E+03 -0.26362648584E+02  0.46989832860E+03  0.00000000000E+00 0. -1.
        -11    1    3    3    0    0  0.94788795358E+02 -0.10360468538E+04  0.72248953452E+02  0.10428796240E+04  0.00000000000E+00 0.  1.
         22    1    1    2    0    0 -0.14668865114E+03  0.15023255847E+04  0.15211721843E+03  0.15171154772E+04  0.00000000000E+00 0. -1.
<mgrwt>
<rscale>  0 0.30234167E+04</rscale>
<asrwt>0</asrwt>
<pdfrwt beam="1">  1        2 0.24829976E+00 0.30234167E+04</pdfrwt>
<pdfrwt beam="2">  1       -2 0.21783769E+00 0.30234167E+04</pdfrwt>
<totfact> 0.95471090E-01</totfact>
</mgrwt>
</event>
<event>
 6    1  0.8968082E-007  0.3582581E+04  0.7818608E-02  0.8094493E-01
          2   -1    0    0  501    0  0.00000000000E+00  0.00000000000E+00  0.30583955546E+04  0.30583955546E+04  0.00000000000E+00 0. -1.
         -2   -1    0    0    0  501 -0.00000000000E+00 -0.00000000000E+00 -0.10491519508E+04  0.10491519508E+04  0.00000000000E+00 0.  1.
         23    2    1    2    0    0 -0.54996717380E+03  0.17026705014E+04  0.10680144318E+04  0.20857999735E+04  0.91411017454E+02 0.  0.
         11    1    3    3    0    0 -0.18337174361E+03  0.45390305898E+03  0.26779406203E+03  0.55800254745E+03  0.00000000000E+00 0. -1.
        -11    1    3    3    0    0 -0.36659543019E+03  0.12487674425E+04  0.80022036974E+03  0.15277974260E+04  0.00000000000E+00 0.  1.
         22    1    1    2    0    0  0.54996717380E+03 -0.17026705014E+04  0.94122917202E+03  0.20217475320E+04  0.00000000000E+00 0. -1.
<mgrwt>
<rscale>  0 0.35825810E+04</rscale>
<asrwt>0</asrwt>
<pdfrwt beam="1">  1        2 0.47052239E+00 0.35825810E+04</pdfrwt>
<pdfrwt beam="2">  1       -2 0.16140799E+00 0.35825810E+04</pdfrwt>
<totfact> 0.32082724E-01</totfact>
</mgrwt>
</event>
<event>
 6    1  0.8968082E-007  0.1188916E+04  0.7818608E-02  0.9122614E-01
          2   -1    0    0  501    0  0.00000000000E+00  0.00000000000E+00  0.12227479249E+04  0.12227479249E+04  0.00000000000E+00 0. -1.
         -2   -1    0    0    0  501 -0.00000000000E+00 -0.00000000000E+00 -0.28900528098E+03  0.28900528098E+03  0.00000000000E+00 0.  1.
         23    2    1    2    0    0 -0.20099916442E+03  0.89027554008E+02  0.11671592237E+04  0.11911134248E+04  0.90354677109E+02 0.  0.
         11    1    3    3    0    0 -0.41539919018E+02  0.25828018862E+02  0.49510097100E+03  0.49751142993E+03  0.00000000000E+00 0. -1.
        -11    1    3    3    0    0 -0.15945924540E+03  0.63199535146E+02  0.67205825272E+03  0.69360199483E+03  0.00000000000E+00 0.  1.
         22    1    1    2    0    0  0.20099916442E+03 -0.89027554008E+02 -0.23341657984E+03  0.32063978108E+03  0.00000000000E+00 0.  1.
<mgrwt>
<rscale>  0 0.11889165E+04</rscale>
<asrwt>0</asrwt>
<pdfrwt beam="1">  1        2 0.18811506E+00 0.11889165E+04</pdfrwt>
<pdfrwt beam="2">  1       -2 0.44462352E-01 0.11889165E+04</pdfrwt>
<totfact> 0.86917633E+01</totfact>
</mgrwt>
</event>
<event>
 6    1  0.8968082E-007  0.1388954E+04  0.7818608E-02  0.8961853E-01
         -2   -1    0    0    0  501 -0.00000000000E+00  0.00000000000E+00  0.35159583600E+03  0.35159583600E+03  0.00000000000E+00 0.  1.
          2   -1    0    0  501    0  0.00000000000E+00 -0.00000000000E+00 -0.13717400074E+04  0.13717400074E+04  0.00000000000E+00 0. -1.
         23    2    1    2    0    0 -0.37640654157E+03 -0.17739389172E+03  0.17283034525E+03  0.45987287413E+03  0.91990514522E+02 0.  0.
         11    1    3    3    0    0 -0.11740425556E+03 -0.10421597635E+03  0.60936046257E+02  0.16839813147E+03  0.00000000000E+00 0.  1.
        -11    1    3    3    0    0 -0.25900228601E+03 -0.73177915364E+02  0.11189429900E+03  0.29147474265E+03  0.00000000000E+00 0. -1.
         22    1    1    2    0    0  0.37640654157E+03  0.17739389172E+03 -0.11929745167E+04  0.12634629693E+04  0.00000000000E+00 0. -1.
<mgrwt>
<rscale>  0 0.13889537E+04</rscale>
<asrwt>0</asrwt>
<pdfrwt beam="1">  1        2 0.21103693E+00 0.13889537E+04</pdfrwt>
<pdfrwt beam="2">  1       -2 0.54091667E-01 0.13889537E+04</pdfrwt>
<totfact> 0.47085370E+01</totfact>
</mgrwt>
</event>
<event>
 6    1  0.8968082E-007  0.2248502E+04  0.7818608E-02  0.8498508E-01
          1   -1    0    0  501    0  0.00000000000E+00  0.00000000000E+00  0.10656158915E+04  0.10656158915E+04  0.00000000000E+00 0. -1.
         -1   -1    0    0    0  501 -0.00000000000E+00 -0.00000000000E+00 -0.11861121713E+04  0.11861121713E+04  0.00000000000E+00 0.  1.
         23    2    1    2    0    0  0.40697299928E+03  0.10109329124E+04  0.20851892685E+03  0.11133681103E+04  0.92173914640E+02 0.  0.
         13    1    3    3    0    0  0.38484652359E+03  0.89140181536E+03  0.16888292055E+03  0.98550772904E+03  0.00000000000E+00 0.  1.
        -13    1    3    3    0    0  0.22126475685E+02  0.11953109705E+03  0.39636006297E+02  0.12786038121E+03  0.00000000000E+00 0. -1.
         22    1    1    2    0    0 -0.40697299928E+03 -0.10109329124E+04 -0.32901520666E+03  0.11383599526E+04  0.00000000000E+00 0.  1.
<mgrwt>
<rscale>  0 0.22485017E+04</rscale>
<asrwt>0</asrwt>
<pdfrwt beam="1">  1        1 0.16394091E+00 0.22485017E+04</pdfrwt>
<pdfrwt beam="2">  1       -1 0.18247880E+00 0.22485017E+04</pdfrwt>
<totfact> 0.24419336E+00</totfact>
</mgrwt>
</event>
<event>
 6    1  0.8968082E-007  0.3258734E+04  0.7818608E-02  0.8173476E-01
          2   -1    0    0  501    0  0.00000000000E+00  0.00000000000E+00  0.37279853981E+04  0.37279853981E+04  0.00000000000E+00 0. -1.
         -2   -1    0    0    0  501 -0.00000000000E+00 -0.00000000000E+00 -0.71213708767E+03  0.71213708767E+03  0.00000000000E+00 0.  1.
         23    2    1    2    0    0 -0.55472653675E+02  0.65674745449E+03  0.35375350221E+04  0.35995563317E+04  0.90869788746E+02 0.  0.
         11    1    3    3    0    0  0.15481194513E+02  0.23872938300E+03  0.11420774586E+04  0.11668643053E+04  0.00000000000E+00 0. -1.
        -11    1    3    3    0    0 -0.70953848188E+02  0.41801807148E+03  0.23954575635E+04  0.24326920264E+04  0.00000000000E+00 0.  1.
         22    1    1    2    0    0  0.55472653675E+02 -0.65674745449E+03 -0.52168671163E+03  0.84056615407E+03  0.00000000000E+00 0.  1.
<mgrwt>
<rscale>  0 0.32587339E+04</rscale>
<asrwt>0</asrwt>
<pdfrwt beam="1">  1        2 0.57353620E+00 0.32587339E+04</pdfrwt>
<pdfrwt beam="2">  1       -2 0.10955955E+00 0.32587339E+04</pdfrwt>
<totfact> 0.30885556E-01</totfact>
</mgrwt>
</event>
<event>
 6    1  0.8968082E-007  0.2582427E+04  0.7818608E-02  0.8374195E-01
          2   -1    0    0  501    0  0.00000000000E+00  0.00000000000E+00  0.27624688476E+04  0.27624688476E+04  0.00000000000E+00 0. -1.
         -2   -1    0    0    0  501 -0.00000000000E+00 -0.00000000000E+00 -0.60352986376E+03  0.60352986376E+03  0.00000000000E+00 0.  1.
         23    2    1    2    0    0  0.97038191704E+03 -0.63211899051E+03  0.34137302689E+03  0.12108278386E+04  0.91394901868E+02 0.  0.
         13    1    3    3    0    0  0.31606013788E+03 -0.16051716670E+03  0.12310103263E+03  0.37525143010E+03  0.00000000000E+00 0.  1.
        -13    1    3    3    0    0  0.65432177916E+03 -0.47160182381E+03  0.21827199426E+03  0.83557640847E+03  0.00000000000E+00 0. -1.
         22    1    1    2    0    0 -0.97038191704E+03  0.63211899051E+03  0.18175659570E+04  0.21551708728E+04  0.00000000000E+00 0. -1.
<mgrwt>
<rscale>  0 0.25824271E+04</rscale>
<asrwt>0</asrwt>
<pdfrwt beam="1">  1        2 0.42499520E+00 0.25824271E+04</pdfrwt>
<pdfrwt beam="2">  1       -2 0.92850750E-01 0.25824271E+04</pdfrwt>
<totfact> 0.21213144E+00</totfact>
</mgrwt>
</event>
<event>
 6    1  0.8968082E-007  0.2431899E+04  0.7818608E-02  0.8427657E-01
         -2   -1    0    0    0  501 -0.00000000000E+00  0.00000000000E+00  0.17985563921E+04  0.17985563921E+04  0.00000000000E+00 0.  1.
          2   -1    0    0  501    0  0.00000000000E+00 -0.00000000000E+00 -0.82206644460E+03  0.82206644460E+03  0.00000000000E+00 0. -1.
         23    2    1    2    0    0  0.55047995417E+03  0.66171989608E+03  0.14118556895E+04  0.16560272063E+04  0.90488780440E+02 0.  0.
         11    1    3    3    0    0  0.39504169447E+03  0.44269838826E+03  0.10396113932E+04  0.11970094620E+04  0.00000000000E+00 0.  1.
        -11    1    3    3    0    0  0.15543825970E+03  0.21902150782E+03  0.37224429632E+03  0.45901774432E+03  0.00000000000E+00 0. -1.
         22    1    1    2    0    0 -0.55047995417E+03 -0.66171989608E+03 -0.43536574199E+03  0.96459563035E+03  0.00000000000E+00 0. -1.
<mgrwt>
<rscale>  0 0.24318987E+04</rscale>
<asrwt>0</asrwt>
<pdfrwt beam="1">  1        2 0.12647176E+00 0.24318987E+04</pdfrwt>
<pdfrwt beam="2">  1       -2 0.27670098E+00 0.24318987E+04</pdfrwt>
<totfact> 0.13139585E+00</totfact>
</mgrwt>
</event>
<event>
 6    1  0.9163546E-007  0.2555588E+04  0.7818608E-02  0.8383445E-01
         -2   -1    0    0    0  501 -0.00000000000E+00  0.00000000000E+00  0.71760046193E+03  0.71760046193E+03  0.00000000000E+00 0.  1.
          2   -1    0    0  501    0  0.00000000000E+00 -0.00000000000E+00 -0.22753023462E+04  0.22753023462E+04  0.00000000000E+00 0. -1.
         23    2    1    2    0    0 -0.96786940083E+03  0.39132656519E+03  0.79752809206E+02  0.10509539080E+04  0.90752126223E+02 0.  0.
         11    1    3    3    0    0 -0.46985773348E+03  0.14388089754E+03  0.52465397055E+02  0.49418682730E+03  0.00000000000E+00 0.  1.
        -11    1    3    3    0    0 -0.49801166735E+03  0.24744566766E+03  0.27287412151E+02  0.55676708067E+03  0.00000000000E+00 0. -1.
         22    1    1    2    0    0  0.96786940083E+03 -0.39132656519E+03 -0.16374546935E+04  0.19419489002E+04  0.00000000000E+00 0. -1.
<mgrwt>
<rscale>  0 0.25555884E+04</rscale>
<asrwt>0</asrwt>
<pdfrwt beam="1">  1        2 0.35004652E+00 0.25555884E+04</pdfrwt>
<pdfrwt beam="2">  1       -2 0.11040007E+00 0.25555884E+04</pdfrwt>
<totfact> 0.27068199E+00</totfact>
</mgrwt>
</event>
<event>
 6    1  0.8968082E-007  0.3564056E+04  0.7818608E-02  0.8098775E-01
         -1   -1    0    0    0  501 -0.00000000000E+00  0.00000000000E+00  0.90974042436E+03  0.90974042436E+03  0.00000000000E+00 0.  1.
          1   -1    0    0  501    0  0.00000000000E+00 -0.00000000000E+00 -0.34906920102E+04  0.34906920102E+04  0.00000000000E+00 0. -1.
         23    2    1    2    0    0  0.22516797728E+03 -0.90350490100E+03  0.58285478239E+03  0.11024493449E+04  0.93022236856E+02 0.  0.
         13    1    3    3    0    0  0.69176358525E+02 -0.46540433878E+03  0.30492314038E+03  0.56068234204E+03  0.00000000000E+00 0. -1.
        -13    1    3    3    0    0  0.15599161875E+03 -0.43810056222E+03  0.27793164201E+03  0.54176700284E+03  0.00000000000E+00 0.  1.
         22    1    1    2    0    0 -0.22516797728E+03  0.90350490100E+03 -0.31638063682E+04  0.32979830897E+04  0.00000000000E+00 0. -1.
<mgrwt>
<rscale>  0 0.35640559E+04</rscale>
<asrwt>0</asrwt>
<pdfrwt beam="1">  1        1 0.53702953E+00 0.35640559E+04</pdfrwt>
<pdfrwt beam="2">  1       -1 0.13996007E+00 0.35640559E+04</pdfrwt>
<totfact> 0.86380193E-02</totfact>
</mgrwt>
</event>
<event>
 6    1  0.8968082E-007  0.1583146E+04  0.7818608E-02  0.8830970E-01
         -2   -1    0    0    0  501 -0.00000000000E+00  0.00000000000E+00  0.86143348445E+03  0.86143348445E+03  0.00000000000E+00 0.  1.
          2   -1    0    0  501    0  0.00000000000E+00 -0.00000000000E+00 -0.72737793834E+03  0.72737793834E+03  0.00000000000E+00 0. -1.
         23    2    1    2    0    0  0.41517149563E+03 -0.25715130893E+03 -0.55478653281E+03  0.74441958475E+03  0.88759533074E+02 0.  0.
         11    1    3    3    0    0  0.20560901398E+03 -0.13097392127E+03 -0.21053552619E+03  0.32210936415E+03  0.00000000000E+00 0. -1.
        -11    1    3    3    0    0  0.20956248164E+03 -0.12617738767E+03 -0.34425100661E+03  0.42231022060E+03  0.00000000000E+00 0.  1.
         22    1    1    2    0    0 -0.41517149563E+03  0.25715130893E+03  0.68884207892E+03  0.84439183804E+03  0.00000000000E+00 0.  1.
<mgrwt>
<rscale>  0 0.15831459E+04</rscale>
<asrwt>0</asrwt>
<pdfrwt beam="1">  1        2 0.11190430E+00 0.15831459E+04</pdfrwt>
<pdfrwt beam="2">  1       -2 0.13252823E+00 0.15831459E+04</pdfrwt>
<totfact> 0.15487386E+01</totfact>
</mgrwt>
</event>
<event>
 6    1  0.8968082E-007  0.2122095E+04  0.7818608E-02  0.8551572E-01
         -2   -1    0    0    0  501 -0.00000000000E+00  0.00000000000E+00  0.70434049537E+03  0.70434049537E+03  0.00000000000E+00 0.  1.
          2   -1    0    0  501    0  0.00000000000E+00 -0.00000000000E+00 -0.15984051282E+04  0.15984051282E+04  0.00000000000E+00 0. -1.
         23    2    1    2    0    0  0.14442058075E+03 -0.35571023352E+03 -0.15189150594E+04  0.15693800053E+04  0.91997656949E+02 0.  0.
         11    1    3    3    0    0  0.68317473045E+02 -0.16239634631E+03 -0.88245018477E+03  0.89986564498E+03  0.00000000000E+00 0.  1.
        -11    1    3    3    0    0  0.76103107708E+02 -0.19331388721E+03 -0.63646487467E+03  0.66951436033E+03  0.00000000000E+00 0. -1.
         22    1    1    2    0    0 -0.14442058075E+03  0.35571023352E+03  0.62485042662E+03  0.73336561825E+03  0.00000000000E+00 0.  1.
<mgrwt>
<rscale>  0 0.21220947E+04</rscale>
<asrwt>0</asrwt>
<pdfrwt beam="1">  1        2 0.24590848E+00 0.21220947E+04</pdfrwt>
<pdfrwt beam="2">  1       -2 0.10836008E+00 0.21220947E+04</pdfrwt>
<totfact> 0.70047581E+00</totfact>
</mgrwt>
</event>
<event>
 6    1  0.8968082E-007  0.4233636E+04  0.7818608E-02  0.7959005E-01
         -2   -1    0    0    0  501 -0.00000000000E+00  0.00000000000E+00  0.21516849156E+04  0.21516849156E+04  0.00000000000E+00 0.  1.
          2   -1    0    0  501    0  0.00000000000E+00 -0.00000000000E+00 -0.20825161374E+04  0.20825161374E+04  0.00000000000E+00 0. -1.
         23    2    1    2    0    0 -0.79741352621E+03 -0.24062328973E+03  0.19798083291E+04  0.21498998768E+04  0.93062135097E+02 0.  0.
         11    1    3    3    0    0 -0.15960598032E+03 -0.67984223249E+02  0.33308919135E+03  0.37555869443E+03  0.00000000000E+00 0.  1.
        -11    1    3    3    0    0 -0.63780754589E+03 -0.17263906648E+03  0.16467191378E+04  0.17743411824E+04  0.00000000000E+00 0. -1.
         22    1    1    2    0    0  0.79741352621E+03  0.24062328973E+03 -0.19106395509E+04  0.20843011762E+04  0.00000000000E+00 0. -1.
<mgrwt>
<rscale>  0 0.42336361E+04</rscale>
<asrwt>0</asrwt>
<pdfrwt beam="1">  1        2 0.32038710E+00 0.42336361E+04</pdfrwt>
<pdfrwt beam="2">  1       -2 0.33102845E+00 0.42336361E+04</pdfrwt>
<totfact> 0.95159983E-02</totfact>
</mgrwt>
</event>
<event>
 6    1  0.8968082E-007  0.2110416E+04  0.7818608E-02  0.8556669E-01
          1   -1    0    0  501    0  0.00000000000E+00  0.00000000000E+00  0.13360177871E+04  0.13360177871E+04  0.00000000000E+00 0. -1.
         -1   -1    0    0    0  501 -0.00000000000E+00 -0.00000000000E+00 -0.83341994684E+03  0.83341994684E+03  0.00000000000E+00 0.  1.
         23    2    1    2    0    0  0.14023161163E+01 -0.10369385293E+04  0.62056673764E+02  0.10427967089E+04  0.91271382683E+02 0.  0.
         11    1    3    3    0    0 -0.28058504323E+02 -0.21117595012E+03 -0.10782270023E+02  0.21330452156E+03  0.00000000000E+00 0. -1.
        -11    1    3    3    0    0  0.29460820440E+02 -0.82576257917E+03  0.72838943787E+02  0.82949218733E+03  0.00000000000E+00 0.  1.
         22    1    1    2    0    0 -0.14023161163E+01  0.10369385293E+04  0.44054116655E+03  0.11266410251E+04  0.00000000000E+00 0.  1.
<mgrwt>
<rscale>  0 0.21104160E+04</rscale>
<asrwt>0</asrwt>
<pdfrwt beam="1">  1        1 0.20554120E+00 0.21104160E+04</pdfrwt>
<pdfrwt beam="2">  1       -1 0.12821845E+00 0.21104160E+04</pdfrwt>
<totfact> 0.41140560E+00</totfact>
</mgrwt>
</event>
<event>
 6    1  0.8968082E-007  0.3648819E+04  0.7818608E-02  0.8079400E-01
         -1   -1    0    0    0  501 -0.00000000000E+00  0.00000000000E+00  0.11259190527E+04  0.11259190527E+04  0.00000000000E+00 0.  1.
          1   -1    0    0  501    0  0.00000000000E+00 -0.00000000000E+00 -0.29562249884E+04  0.29562249884E+04  0.00000000000E+00 0. -1.
         23    2    1    2    0    0  0.13217508516E+04  0.17217931377E+03  0.47616991848E+03  0.14182180106E+04  0.89070223432E+02 0.  0.
         13    1    3    3    0    0  0.73233145161E+03  0.68620927718E+02  0.22483760897E+03  0.76913596791E+03  0.00000000000E+00 0. -1.
        -13    1    3    3    0    0  0.58941939996E+03  0.10355838606E+03  0.25133230951E+03  0.64908204271E+03  0.00000000000E+00 0.  1.
         22    1    1    2    0    0 -0.13217508516E+04 -0.17217931377E+03 -0.23064758542E+04  0.26639260305E+04  0.00000000000E+00 0. -1.
<mgrwt>
<rscale>  0 0.36488190E+04</rscale>
<asrwt>0</asrwt>
<pdfrwt beam="1">  1        1 0.45480384E+00 0.36488190E+04</pdfrwt>
<pdfrwt beam="2">  1       -1 0.17321832E+00 0.36488190E+04</pdfrwt>
<totfact> 0.12072574E-01</totfact>
</mgrwt>
</event>
<event>
 6    1  0.8968082E-007  0.5375856E+03  0.7818608E-02  0.1004409E+00
          2   -1    0    0  501    0  0.00000000000E+00  0.00000000000E+00  0.88054128547E+03  0.88054128547E+03  0.00000000000E+00 0. -1.
         -2   -1    0    0    0  501 -0.00000000000E+00 -0.00000000000E+00 -0.82051328122E+02  0.82051328122E+02  0.00000000000E+00 0.  1.
         23    2    1    2    0    0 -0.17083332376E+03  0.16446003082E+03  0.60676497055E+03  0.65765065713E+03  0.90052934950E+02 0.  0.
         11    1    3    3    0    0 -0.56820270833E+02  0.49018964877E+02  0.31490260506E+03  0.32372064001E+03  0.00000000000E+00 0. -1.
        -11    1    3    3    0    0 -0.11401305293E+03  0.11544106595E+03  0.29186236549E+03  0.33393001712E+03  0.00000000000E+00 0.  1.
         22    1    1    2    0    0  0.17083332376E+03 -0.16446003082E+03  0.19172498680E+03  0.30494195646E+03  0.00000000000E+00 0. -1.
<mgrwt>
<rscale>  0 0.53758565E+03</rscale>
<asrwt>0</asrwt>
<pdfrwt beam="1">  1        2 0.13546788E+00 0.53758565E+03</pdfrwt>
<pdfrwt beam="2">  1       -2 0.12623282E-01 0.53758565E+03</pdfrwt>
<totfact> 0.14220174E+03</totfact>
</mgrwt>
</event>
<event>
 6    1  0.8968082E-007  0.4323724E+04  0.7818608E-02  0.7942246E-01
         -2   -1    0    0    0  501 -0.00000000000E+00  0.00000000000E+00  0.14007860284E+04  0.14007860284E+04  0.00000000000E+00 0.  1.
          2   -1    0    0  501    0  0.00000000000E+00 -0.00000000000E+00 -0.33364455056E+04  0.33364455056E+04  0.00000000000E+00 0. -1.
         23    2    1    2    0    0 -0.42251574776E+03  0.16274437289E+04  0.51876751867E+03  0.17621173301E+04  0.94048385677E+02 0.  0.
         11    1    3    3    0    0 -0.10862327373E+03  0.52551948083E+03  0.20185437684E+03  0.57333666355E+03  0.00000000000E+00 0. -1.
        -11    1    3    3    0    0 -0.31389247403E+03  0.11019242481E+04  0.31691314183E+03  0.11887806666E+04  0.00000000000E+00 0.  1.
         22    1    1    2    0    0  0.42251574776E+03 -0.16274437289E+04 -0.24544269958E+04  0.29751142038E+04  0.00000000000E+00 0. -1.
<mgrwt>
<rscale>  0 0.43237235E+04</rscale>
<asrwt>0</asrwt>
<pdfrwt beam="1">  1        2 0.51329931E+00 0.43237235E+04</pdfrwt>
<pdfrwt beam="2">  1       -2 0.21550554E+00 0.43237235E+04</pdfrwt>
<totfact> 0.85308174E-02</totfact>
</mgrwt>
</event>
<event>
 6    1  0.8968082E-007  0.1501555E+04  0.7818608E-02  0.8883420E-01
         -1   -1    0    0    0  501 -0.00000000000E+00  0.00000000000E+00  0.67358046005E+03  0.67358046005E+03  0.00000000000E+00 0.  1.
          1   -1    0    0  501    0  0.00000000000E+00 -0.00000000000E+00 -0.83682140247E+03  0.83682140247E+03  0.00000000000E+00 0. -1.
         23    2    1    2    0    0 -0.50351690062E+03  0.55019168301E+03 -0.25128746467E+02  0.75190655210E+03  0.92151244939E+02 0.  0.
         11    1    3    3    0    0 -0.11290196717E+03  0.16482257786E+03  0.22905466498E+02  0.20109201068E+03  0.00000000000E+00 0. -1.
        -11    1    3    3    0    0 -0.39061493344E+03  0.38536910515E+03 -0.48034212965E+02  0.55081454143E+03  0.00000000000E+00 0.  1.
         22    1    1    2    0    0  0.50351690062E+03 -0.55019168301E+03 -0.13811219596E+03  0.75849531042E+03  0.00000000000E+00 0.  1.
<mgrwt>
<rscale>  0 0.15015546E+04</rscale>
<asrwt>0</asrwt>
<pdfrwt beam="1">  1        1 0.12874175E+00 0.15015546E+04</pdfrwt>
<pdfrwt beam="2">  1       -1 0.10362776E+00 0.15015546E+04</pdfrwt>
<totfact> 0.17454638E+01</totfact>
</mgrwt>
</event>
<event>
 6    1  0.9338219E-007  0.3676754E+04  0.7818608E-02  0.8073133E-01
          2   -1    0    0  501    0  0.00000000000E+00  0.00000000000E+00  0.29625300627E+04  0.29625300627E+04  0.00000000000E+00 0. -1.
         -2   -1    0    0    0  501 -0.00000000000E+00 -0.00000000000E+00 -0.11407917128E+04  0.11407917128E+04  0.00000000000E+00 0.  1.
         23    2    1    2    0    0 -0.12502503303E+03 -0.98183640687E+03 -0.81610238982E+03  0.12859049165E+04  0.88850182529E+02 0.  0.
         13    1    3    3    0    0 -0.11623504886E+03 -0.57120705129E+03 -0.46942394169E+03  0.74842963534E+03  0.00000000000E+00 0.  1.
        -13    1    3    3    0    0 -0.87899841758E+01 -0.41062935558E+03 -0.34667844813E+03  0.53747528119E+03  0.00000000000E+00 0. -1.
         22    1    1    2    0    0  0.12502503303E+03  0.98183640687E+03  0.26378407398E+04  0.28174168590E+04  0.00000000000E+00 0. -1.
<mgrwt>
<rscale>  0 0.36767539E+04</rscale>
<asrwt>0</asrwt>
<pdfrwt beam="1">  1        2 0.45577385E+00 0.36767539E+04</pdfrwt>
<pdfrwt beam="2">  1       -2 0.17550642E+00 0.36767539E+04</pdfrwt>
<totfact> 0.28987211E-01</totfact>
</mgrwt>
</event>
<event>
 6    1  0.8968082E-007  0.2192647E+04  0.7818608E-02  0.8521495E-01
          2   -1    0    0  501    0  0.00000000000E+00  0.00000000000E+00  0.52163617774E+03  0.52163617774E+03  0.00000000000E+00 0. -1.
         -2   -1    0    0    0  501 -0.00000000000E+00 -0.00000000000E+00 -0.23041441353E+04  0.23041441353E+04  0.00000000000E+00 0.  1.
         23    2    1    2    0    0  0.31119180196E+03 -0.79813598485E+03 -0.17703063835E+04  0.19690363219E+04  0.96218281350E+02 0.  0.
         13    1    3    3    0    0  0.25077189089E+03 -0.57259039624E+03 -0.12072680679E+04  0.13595008242E+04  0.00000000000E+00 0.  1.
        -13    1    3    3    0    0  0.60419911064E+02 -0.22554558861E+03 -0.56303831558E+03  0.60953549774E+03  0.00000000000E+00 0. -1.
         22    1    1    2    0    0 -0.31119180196E+03  0.79813598485E+03 -0.12201574066E+02  0.85674399113E+03  0.00000000000E+00 0. -1.
<mgrwt>
<rscale>  0 0.21926467E+04</rscale>
<asrwt>0</asrwt>
<pdfrwt beam="1">  1        2 0.80251719E-01 0.21926467E+04</pdfrwt>
<pdfrwt beam="2">  1       -2 0.35448372E+00 0.21926467E+04</pdfrwt>
<totfact> 0.78240538E-01</totfact>
</mgrwt>
</event>
<event>
 6    1  0.8968082E-007  0.2408628E+04  0.7818608E-02  0.8436280E-01
         -2   -1    0    0    0  501 -0.00000000000E+00  0.00000000000E+00  0.67369199573E+03  0.67369199573E+03  0.00000000000E+00 0.  1.
          2   -1    0    0  501    0  0.00000000000E+00 -0.00000000000E+00 -0.21528716544E+04  0.21528716544E+04  0.00000000000E+00 0. -1.
         23    2    1    2    0    0 -0.10331592740E+04 -0.10278285281E+03 -0.28793213672E+02  0.10428587305E+04  0.93503381117E+02 0.  0.
         13    1    3    3    0    0 -0.22087965194E+03 -0.14229470744E+02 -0.43795053477E+02  0.22562868875E+03  0.00000000000E+00 0. -1.
        -13    1    3    3    0    0 -0.81227962211E+03 -0.88553382069E+02  0.15001839805E+02  0.81723004177E+03  0.00000000000E+00 0.  1.
         22    1    1    2    0    0  0.10331592740E+04  0.10278285281E+03 -0.14503864450E+04  0.17837049196E+04  0.00000000000E+00 0. -1.
<mgrwt>
<rscale>  0 0.24086282E+04</rscale>
<asrwt>0</asrwt>
<pdfrwt beam="1">  1        2 0.33121102E+00 0.24086282E+04</pdfrwt>
<pdfrwt beam="2">  1       -2 0.10364492E+00 0.24086282E+04</pdfrwt>
<totfact> 0.37397888E+00</totfact>
</mgrwt>
</event>
<event>
 6    1  0.8968082E-007  0.2618838E+04  0.7818608E-02  0.8361830E-01
         -2   -1    0    0    0  501 -0.00000000000E+00  0.00000000000E+00  0.75533769652E+03  0.75533769652E+03  0.00000000000E+00 0.  1.
          2   -1    0    0  501    0  0.00000000000E+00 -0.00000000000E+00 -0.22699488866E+04  0.22699488866E+04  0.00000000000E+00 0. -1.
         23    2    1    2    0    0 -0.25313515906E+03 -0.26632552009E+03 -0.22081772567E+04  0.22404040567E+04  0.91415803980E+02 0.  0.
         11    1    3    3    0    0 -0.46857939810E+02 -0.45311197406E+02 -0.64311718080E+03  0.64641200435E+03  0.00000000000E+00 0. -1.
        -11    1    3    3    0    0 -0.20627721925E+03 -0.22101432268E+03 -0.15650600759E+04  0.15939920524E+04  0.00000000000E+00 0.  1.
         22    1    1    2    0    0  0.25313515906E+03  0.26632552009E+03  0.69356606661E+03  0.78488252634E+03  0.00000000000E+00 0.  1.
<mgrwt>
<rscale>  0 0.26188379E+04</rscale>
<asrwt>0</asrwt>
<pdfrwt beam="1">  1        2 0.34922290E+00 0.26188379E+04</pdfrwt>
<pdfrwt beam="2">  1       -2 0.11620580E+00 0.26188379E+04</pdfrwt>
<totfact> 0.23932538E+00</totfact>
</mgrwt>
</event>
<event>
 6    1  0.8968082E-007  0.1343708E+04  0.7818608E-02  0.8995605E-01
          2   -1    0    0  501    0  0.00000000000E+00  0.00000000000E+00  0.97338041784E+03  0.97338041784E+03  0.00000000000E+00 0. -1.
         -2   -1    0    0    0  501 -0.00000000000E+00 -0.00000000000E+00 -0.46373225091E+03  0.46373225091E+03  0.00000000000E+00 0.  1.
         23    2    1    2    0    0  0.19931041281E+03  0.45786792714E+03 -0.22154598452E+03  0.55166782774E+03  0.76727371534E+02 0.  0.
         13    1    3    3    0    0  0.66703359221E+02  0.23887829188E+03 -0.12803013067E+03  0.27911268481E+03  0.00000000000E+00 0.  1.
        -13    1    3    3    0    0  0.13260705359E+03  0.21898963527E+03 -0.93515853850E+02  0.27255514293E+03  0.00000000000E+00 0. -1.
         22    1    1    2    0    0 -0.19931041281E+03 -0.45786792714E+03  0.73119415145E+03  0.88544484101E+03  0.00000000000E+00 0. -1.
<mgrwt>
<rscale>  0 0.13437081E+04</rscale>
<asrwt>0</asrwt>
<pdfrwt beam="1">  1        2 0.14975083E+00 0.13437081E+04</pdfrwt>
<pdfrwt beam="2">  1       -2 0.71343423E-01 0.13437081E+04</pdfrwt>
<totfact> 0.45678924E+01</totfact>
</mgrwt>
</event>
<event>
 6    1  0.8968082E-007  0.2023324E+04  0.7818608E-02  0.8595793E-01
         -2   -1    0    0    0  501 -0.00000000000E+00  0.00000000000E+00  0.56096059973E+03  0.56096059973E+03  0.00000000000E+00 0.  1.
          2   -1    0    0  501    0  0.00000000000E+00 -0.00000000000E+00 -0.18244772464E+04  0.18244772464E+04  0.00000000000E+00 0. -1.
         23    2    1    2    0    0  0.46700610560E+03  0.79987022347E+03 -0.11066784820E+04  0.14460309657E+04  0.91548971858E+02 0.  0.
         11    1    3    3    0    0  0.33888242276E+03  0.63049186349E+03 -0.89690012349E+03  0.11475151929E+04  0.00000000000E+00 0.  1.
        -11    1    3    3    0    0  0.12812368284E+03  0.16937835998E+03 -0.20977835849E+03  0.29851577282E+03  0.00000000000E+00 0. -1.
         22    1    1    2    0    0 -0.46700610560E+03 -0.79987022347E+03 -0.15683816466E+03  0.93940688040E+03  0.00000000000E+00 0.  1.
<mgrwt>
<rscale>  0 0.20233238E+04</rscale>
<asrwt>0</asrwt>
<pdfrwt beam="1">  1        2 0.28068881E+00 0.20233238E+04</pdfrwt>
<pdfrwt beam="2">  1       -2 0.86301631E-01 0.20233238E+04</pdfrwt>
<totfact> 0.90249470E+00</totfact>
</mgrwt>
</event>
<event>
 6    1  0.8968082E-007  0.3664634E+04  0.7818608E-02  0.8075845E-01
          2   -1    0    0  501    0  0.00000000000E+00  0.00000000000E+00  0.13099239423E+04  0.13099239423E+04  0.00000000000E+00 0. -1.
         -2   -1    0    0    0  501 -0.00000000000E+00 -0.00000000000E+00 -0.25630382956E+04  0.25630382956E+04  0.00000000000E+00 0.  1.
         23    2    1    2    0    0  0.52955387076E+03  0.43127657561E+03  0.11687238049E+04  0.13566699553E+04  0.90615941633E+02 0.  0.
         11    1    3    3    0    0  0.18879137616E+03  0.15773596101E+03  0.50930053340E+03  0.56560573762E+03  0.00000000000E+00 0.  1.
        -11    1    3    3    0    0  0.34076249460E+03  0.27354061460E+03  0.65942327151E+03  0.79106421772E+03  0.00000000000E+00 0. -1.
         22    1    1    2    0    0 -0.52955387076E+03 -0.43127657561E+03 -0.24218381582E+04  0.25162922826E+04  0.00000000000E+00 0.  1.
<mgrwt>
<rscale>  0 0.36646338E+04</rscale>
<asrwt>0</asrwt>
<pdfrwt beam="1">  1        2 0.20152676E+00 0.36646338E+04</pdfrwt>
<pdfrwt beam="2">  1       -2 0.39431358E+00 0.36646338E+04</pdfrwt>
<totfact> 0.10684813E-01</totfact>
</mgrwt>
</event>
<event>
 6    1  0.8968082E-007  0.2134225E+04  0.7818608E-02  0.8546315E-01
          1   -1    0    0  501    0  0.00000000000E+00  0.00000000000E+00  0.17587926860E+04  0.17587926860E+04  0.00000000000E+00 0. -1.
         -1   -1    0    0    0  501 -0.00000000000E+00 -0.00000000000E+00 -0.64744916150E+03  0.64744916150E+03  0.00000000000E+00 0.  1.
         23    2    1    2    0    0  0.53909758620E+03  0.48530011446E+03  0.14361174922E+04  0.16114962664E+04  0.91347449816E+02 0.  0.
         11    1    3    3    0    0  0.29339374192E+03  0.21298259346E+03  0.65807110826E+03  0.75133152232E+03  0.00000000000E+00 0. -1.
        -11    1    3    3    0    0  0.24570384429E+03  0.27231752100E+03  0.77804638399E+03  0.86016474409E+03  0.00000000000E+00 0.  1.
         22    1    1    2    0    0 -0.53909758620E+03 -0.48530011446E+03 -0.32477396774E+03  0.79474558109E+03  0.00000000000E+00 0.  1.
<mgrwt>
<rscale>  0 0.21342248E+04</rscale>
<asrwt>0</asrwt>
<pdfrwt beam="1">  1        1 0.27058349E+00 0.21342248E+04</pdfrwt>
<pdfrwt beam="2">  1       -1 0.99607564E-01 0.21342248E+04</pdfrwt>
<totfact> 0.38319475E+00</totfact>
</mgrwt>
</event>
<event>
 6    1  0.8968082E-007  0.3436646E+04  0.7818608E-02  0.8128970E-01
          2   -1    0    0  501    0  0.00000000000E+00  0.00000000000E+00  0.27950151526E+04  0.27950151526E+04  0.00000000000E+00 0. -1.
         -2   -1    0    0    0  501 -0.00000000000E+00 -0.00000000000E+00 -0.10563930983E+04  0.10563930983E+04  0.00000000000E+00 0.  1.
         23    2    1    2    0    0  0.98129410555E+03 -0.14038783930E+04  0.73283031001E+03  0.18650976767E+04  0.87956902329E+02 0.  0.
         11    1    3    3    0    0  0.48130200119E+03 -0.66323762703E+03  0.39569305938E+03  0.91000481510E+03  0.00000000000E+00 0. -1.
        -11    1    3    3    0    0  0.49999210436E+03 -0.74064076593E+03  0.33713725062E+03  0.95509286163E+03  0.00000000000E+00 0.  1.
         22    1    1    2    0    0 -0.98129410555E+03  0.14038783930E+04  0.10057917443E+04  0.19863105741E+04  0.00000000000E+00 0. -1.
<mgrwt>
<rscale>  0 0.34366465E+04</rscale>
<asrwt>0</asrwt>
<pdfrwt beam="1">  1        2 0.43000233E+00 0.34366465E+04</pdfrwt>
<pdfrwt beam="2">  1       -2 0.16252202E+00 0.34366465E+04</pdfrwt>
<totfact> 0.46398456E-01</totfact>
</mgrwt>
</event>
<event>
 6    1  0.8968082E-007  0.3050441E+04  0.7818608E-02  0.8229472E-01
          2   -1    0    0  501    0  0.00000000000E+00  0.00000000000E+00  0.30097257999E+04  0.30097257999E+04  0.00000000000E+00 0. -1.
         -2   -1    0    0    0  501 -0.00000000000E+00 -0.00000000000E+00 -0.77292665360E+03  0.77292665360E+03  0.00000000000E+00 0.  1.
         23    2    1    2    0    0 -0.74945301260E+03 -0.35798516807E+03  0.27036839628E+04  0.28298593855E+04  0.91454754163E+02 0.  0.
         11    1    3    3    0    0 -0.39133624677E+03 -0.18954398049E+03  0.15691613605E+04  0.16282930798E+04  0.00000000000E+00 0. -1.
        -11    1    3    3    0    0 -0.35811676583E+03 -0.16844118757E+03  0.11345226023E+04  0.12015663056E+04  0.00000000000E+00 0.  1.
         22    1    1    2    0    0  0.74945301260E+03  0.35798516807E+03 -0.46688481649E+03  0.95279306805E+03  0.00000000000E+00 0.  1.
<mgrwt>
<rscale>  0 0.30504408E+04</rscale>
<asrwt>0</asrwt>
<pdfrwt beam="1">  1        2 0.46303473E+00 0.30504408E+04</pdfrwt>
<pdfrwt beam="2">  1       -2 0.11891179E+00 0.30504408E+04</pdfrwt>
<totfact> 0.79444990E-01</totfact>
</mgrwt>
</event>
<event>
 6    1  0.8968082E-007  0.4351959E+03  0.7818608E-02  0.1032231E+00
          2   -1    0    0  501    0  0.00000000000E+00  0.00000000000E+00  0.11693197983E+03  0.11693197983E+03  0.00000000000E+00 0. -1.
         -2   -1    0    0    0  501 -0.00000000000E+00 -0.00000000000E+00 -0.40492652732E+03  0.40492652732E+03  0.00000000000E+00 0.  1.
         23    2    1    2    0    0  0.44756100507E+02  0.18124998803E+02 -0.39302220022E+03  0.40626252126E+03  0.90835908099E+02 0.  0.
         13    1    3    3    0    0  0.61652747369E+02  0.25687514525E+01 -0.15055183845E+03  0.16270684006E+03  0.00000000000E+00 0. -1.
        -13    1    3    3    0    0 -0.16896646862E+02  0.15556247351E+02 -0.24247036178E+03  0.24355568120E+03  0.00000000000E+00 0.  1.
         22    1    1    2    0    0 -0.44756100507E+02 -0.18124998803E+02  0.10502765274E+03  0.11559598589E+03  0.00000000000E+00 0. -1.
<mgrwt>
<rscale>  0 0.43519587E+03</rscale>
<asrwt>0</asrwt>
<pdfrwt beam="1">  1        2 0.17989535E-01 0.43519587E+03</pdfrwt>
<pdfrwt beam="2">  1       -2 0.62296389E-01 0.43519587E+03</pdfrwt>
<totfact> 0.77330506E+02</totfact>
</mgrwt>
</event>
<event>
 6    1  0.8968082E-007  0.3255925E+04  0.7818608E-02  0.8174202E-01
          2   -1    0    0  501    0  0.00000000000E+00  0.00000000000E+00  0.14428733167E+04  0.14428733167E+04  0.00000000000E+00 0. -1.
         -2   -1    0    0    0  501 -0.00000000000E+00 -0.00000000000E+00 -0.18367942367E+04  0.18367942367E+04  0.00000000000E+00 0.  1.
         23    2    1    2    0    0  0.23543749971E+03  0.15062510118E+04  0.37372269844E+03  0.15727698846E+04  0.98557231282E+02 0.  0.
         13    1    3    3    0    0  0.19755113746E+03  0.10811342277E+04  0.30406200881E+03  0.11403207336E+04  0.00000000000E+00 0.  1.
        -13    1    3    3    0    0  0.37886362246E+02  0.42511678403E+03  0.69660689635E+02  0.43244915098E+03  0.00000000000E+00 0. -1.
         22    1    1    2    0    0 -0.23543749971E+03 -0.15062510118E+04 -0.76764361850E+03  0.17068976688E+04  0.00000000000E+00 0. -1.
<mgrwt>
<rscale>  0 0.32559247E+04</rscale>
<asrwt>0</asrwt>
<pdfrwt beam="1">  1        2 0.22198051E+00 0.32559247E+04</pdfrwt>
<pdfrwt beam="2">  1       -2 0.28258373E+00 0.32559247E+04</pdfrwt>
<totfact> 0.46556275E-01</totfact>
</mgrwt>
</event>
<event>
 6    1  0.8968082E-007  0.9316768E+03  0.7818608E-02  0.9386828E-01
          1   -1    0    0  501    0  0.00000000000E+00  0.00000000000E+00  0.33263852418E+03  0.33263852418E+03  0.00000000000E+00 0. -1.
         -1   -1    0    0    0  501 -0.00000000000E+00 -0.00000000000E+00 -0.65237613800E+03  0.65237613800E+03  0.00000000000E+00 0.  1.
         23    2    1    2    0    0 -0.40857240555E+03  0.20363102786E+03 -0.22812497341E+03  0.51940765840E+03  0.96676295085E+02 0.  0.
         11    1    3    3    0    0 -0.36324350904E+03  0.19874862643E+03 -0.17533174923E+03  0.44965329494E+03  0.00000000000E+00 0. -1.
        -11    1    3    3    0    0 -0.45328896509E+02  0.48824014352E+01 -0.52793224177E+02  0.69754363459E+02  0.00000000000E+00 0.  1.
         22    1    1    2    0    0  0.40857240555E+03 -0.20363102786E+03 -0.91612640415E+02  0.46560700378E+03  0.00000000000E+00 0. -1.
<mgrwt>
<rscale>  0 0.93167684E+03</rscale>
<asrwt>0</asrwt>
<pdfrwt beam="1">  1        1 0.51175158E-01 0.93167684E+03</pdfrwt>
<pdfrwt beam="2">  1       -1 0.10036556E+00 0.93167684E+03</pdfrwt>
<totfact> 0.72881795E+01</totfact>
</mgrwt>
</event>
<event>
 6    1  0.8968082E-007  0.4899540E+04  0.7818608E-02  0.7844194E-01
          2   -1    0    0  501    0  0.00000000000E+00  0.00000000000E+00  0.24269494860E+04  0.24269494860E+04  0.00000000000E+00 0. -1.
         -2   -1    0    0    0  501 -0.00000000000E+00 -0.00000000000E+00 -0.24728046288E+04  0.24728046288E+04  0.00000000000E+00 0.  1.
         23    2    1    2    0    0 -0.52064379912E+03 -0.16953277573E+04 -0.17116847053E+04  0.24666091744E+04  0.95342112886E+02 0.  0.
         13    1    3    3    0    0 -0.34940764788E+03 -0.10093542169E+04 -0.99153304463E+03  0.14574015981E+04  0.00000000000E+00 0. -1.
        -13    1    3    3    0    0 -0.17123615124E+03 -0.68597354043E+03 -0.72015166065E+03  0.10092075763E+04  0.00000000000E+00 0.  1.
         22    1    1    2    0    0  0.52064379912E+03  0.16953277573E+04  0.16658295624E+04  0.24331449404E+04  0.00000000000E+00 0. -1.
<mgrwt>
<rscale>  0 0.48995395E+04</rscale>
<asrwt>0</asrwt>
<pdfrwt beam="1">  1        2 0.37337684E+00 0.48995395E+04</pdfrwt>
<pdfrwt beam="2">  1       -2 0.38043148E+00 0.48995395E+04</pdfrwt>
<totfact> 0.28015476E-02</totfact>
</mgrwt>
</event>
<event>
 6    1  0.8968082E-007  0.3798248E+04  0.7818608E-02  0.8046531E-01
         -2   -1    0    0    0  501 -0.00000000000E+00  0.00000000000E+00  0.11997740623E+04  0.11997740623E+04  0.00000000000E+00 0.  1.
          2   -1    0    0  501    0  0.00000000000E+00 -0.00000000000E+00 -0.30061254406E+04  0.30061254406E+04  0.00000000000E+00 0. -1.
         23    2    1    2    0    0  0.14886746318E+04  0.48090856955E+03 -0.20938712139E+04  0.26152729385E+04  0.89054315867E+02 0.  0.
         13    1    3    3    0    0  0.60163492892E+03  0.20915548692E+03 -0.92207653939E+03  0.11206853929E+04  0.00000000000E+00 0.  1.
        -13    1    3    3    0    0  0.88703970284E+03  0.27175308263E+03 -0.11717946745E+04  0.14945875456E+04  0.00000000000E+00 0. -1.
         22    1    1    2    0    0 -0.14886746318E+04 -0.48090856955E+03  0.28751983548E+03  0.15906265644E+04  0.00000000000E+00 0.  1.
<mgrwt>
<rscale>  0 0.37982477E+04</rscale>
<asrwt>0</asrwt>
<pdfrwt beam="1">  1        2 0.46248084E+00 0.37982477E+04</pdfrwt>
<pdfrwt beam="2">  1       -2 0.18458062E+00 0.37982477E+04</pdfrwt>
<totfact> 0.23326494E-01</totfact>
</mgrwt>
</event>
<event>
 6    1  0.8968082E-007  0.3627623E+04  0.7818608E-02  0.8084194E-01
         -2   -1    0    0    0  501 -0.00000000000E+00  0.00000000000E+00  0.15064239283E+04  0.15064239283E+04  0.00000000000E+00 0.  1.
          2   -1    0    0  501    0  0.00000000000E+00 -0.00000000000E+00 -0.21839215801E+04  0.21839215801E+04  0.00000000000E+00 0. -1.
         23    2    1    2    0    0 -0.98646591226E+03  0.74769518072E+02 -0.18841179470E+04  0.21300128472E+04  0.91371846310E+02 0.  0.
         11    1    3    3    0    0 -0.44373546492E+03  0.68682041553E+02 -0.79092255546E+03  0.90949264670E+03  0.00000000000E+00 0.  1.
        -11    1    3    3    0    0 -0.54273044734E+03  0.60874765185E+01 -0.10931953915E+04  0.12205202005E+04  0.00000000000E+00 0. -1.
         22    1    1    2    0    0  0.98646591226E+03 -0.74769518072E+02  0.12066202952E+04  0.15603326612E+04  0.00000000000E+00 0.  1.
<mgrwt>
<rscale>  0 0.36276228E+04</rscale>
<asrwt>0</asrwt>
<pdfrwt beam="1">  1        2 0.33598793E+00 0.36276228E+04</pdfrwt>
<pdfrwt beam="2">  1       -2 0.23175753E+00 0.36276228E+04</pdfrwt>
<totfact> 0.35743547E-01</totfact>
</mgrwt>
</event>
<event>
 6    1  0.8968082E-007  0.4134793E+04  0.7818608E-02  0.7977893E-01
          2   -1    0    0  501    0  0.00000000000E+00  0.00000000000E+00  0.28116999710E+04  0.28116999710E+04  0.00000000000E+00 0. -1.
         -2   -1    0    0    0  501 -0.00000000000E+00 -0.00000000000E+00 -0.15201223304E+04  0.15201223304E+04  0.00000000000E+00 0.  1.
         23    2    1    2    0    0  0.39806464322E+03 -0.16105407235E+04 -0.64455377385E+03  0.17821357056E+04  0.90891274107E+02 0.  0.
         11    1    3    3    0    0  0.17927217622E+03 -0.66718405597E+03 -0.22284251340E+03  0.72590072564E+03  0.00000000000E+00 0.  1.
        -11    1    3    3    0    0  0.21879246700E+03 -0.94335666753E+03 -0.42171126045E+03  0.10562349800E+04  0.00000000000E+00 0. -1.
         22    1    1    2    0    0 -0.39806464322E+03  0.16105407235E+04  0.19361314145E+04  0.25496865957E+04  0.00000000000E+00 0. -1.
<mgrwt>
<rscale>  0 0.41347928E+04</rscale>
<asrwt>0</asrwt>
<pdfrwt beam="1">  1        2 0.43256922E+00 0.41347928E+04</pdfrwt>
<pdfrwt beam="2">  1       -2 0.23386497E+00 0.41347928E+04</pdfrwt>
<totfact> 0.14353318E-01</totfact>
</mgrwt>
</event>
<event>
 6    1  0.8968082E-007  0.1418316E+04  0.7818608E-02  0.8940666E-01
          1   -1    0    0  501    0  0.00000000000E+00  0.00000000000E+00  0.21790753490E+04  0.21790753490E+04  0.00000000000E+00 0. -1.
         -1   -1    0    0    0  501 -0.00000000000E+00 -0.00000000000E+00 -0.23078833795E+03  0.23078833795E+03  0.00000000000E+00 0.  1.
         23    2    1    2    0    0  0.24666689785E+03  0.26944595028E+03 -0.48499649770E+02  0.37993692782E+03  0.92488780263E+02 0.  0.
         13    1    3    3    0    0  0.23414153229E+03  0.20654969075E+03 -0.47345552875E+02  0.31579523946E+03  0.00000000000E+00 0. -1.
        -13    1    3    3    0    0  0.12525365564E+02  0.62896259531E+02 -0.11540968956E+01  0.64141688356E+02  0.00000000000E+00 0.  1.
         22    1    1    2    0    0 -0.24666689785E+03 -0.26944595028E+03  0.19967866608E+04  0.20299267591E+04  0.00000000000E+00 0. -1.
<mgrwt>
<rscale>  0 0.14183162E+04</rscale>
<asrwt>0</asrwt>
<pdfrwt beam="1">  1        1 0.33524235E+00 0.14183162E+04</pdfrwt>
<pdfrwt beam="2">  1       -1 0.35505900E-01 0.14183162E+04</pdfrwt>
<totfact> 0.16602579E+01</totfact>
</mgrwt>
</event>
<event>
 6    1  0.8968082E-007  0.2499264E+04  0.7818608E-02  0.8403248E-01
         -1   -1    0    0    0  501 -0.00000000000E+00  0.00000000000E+00  0.93221647980E+03  0.93221647980E+03  0.00000000000E+00 0.  1.
          1   -1    0    0  501    0  0.00000000000E+00 -0.00000000000E+00 -0.16751258945E+04  0.16751258945E+04  0.00000000000E+00 0. -1.
         23    2    1    2    0    0 -0.63831539349E+02 -0.10591284100E+04  0.31344303132E+03  0.11101089441E+04  0.90927880614E+02 0.  0.
         11    1    3    3    0    0 -0.73052828405E+02 -0.98107658489E+03  0.26938609124E+03  0.10200082584E+04  0.00000000000E+00 0.  1.
        -11    1    3    3    0    0  0.92212890560E+01 -0.78051825147E+02  0.44056940084E+02  0.90100685625E+02  0.00000000000E+00 0. -1.
         22    1    1    2    0    0  0.63831539349E+02  0.10591284100E+04 -0.10563524460E+04  0.14972334302E+04  0.00000000000E+00 0. -1.
<mgrwt>
<rscale>  0 0.24992639E+04</rscale>
<asrwt>0</asrwt>
<pdfrwt beam="1">  1        1 0.25771167E+00 0.24992639E+04</pdfrwt>
<pdfrwt beam="2">  1       -1 0.14341792E+00 0.24992639E+04</pdfrwt>
<totfact> 0.17321233E+00</totfact>
</mgrwt>
</event>
<event>
 6    1  0.8968082E-007  0.2421904E+04  0.7818608E-02  0.8431348E-01
          1   -1    0    0  501    0  0.00000000000E+00  0.00000000000E+00  0.24881879916E+04  0.24881879916E+04  0.00000000000E+00 0. -1.
         -1   -1    0    0    0  501 -0.00000000000E+00 -0.00000000000E+00 -0.58934634398E+03  0.58934634398E+03  0.00000000000E+00 0.  1.
         23    2    1    2    0    0  0.51301081145E+03 -0.73466308859E+03  0.19826024980E+04  0.21775755441E+04  0.90623609608E+02 0.  0.
         13    1    3    3    0    0  0.34558126562E+03 -0.55143882622E+03  0.14924399334E+04  0.16281548284E+04  0.00000000000E+00 0. -1.
        -13    1    3    3    0    0  0.16742954583E+03 -0.18322426237E+03  0.49016256456E+03  0.54942071570E+03  0.00000000000E+00 0.  1.
         22    1    1    2    0    0 -0.51301081145E+03  0.73466308859E+03 -0.83760850358E+02  0.89995879153E+03  0.00000000000E+00 0.  1.
<mgrwt>
<rscale>  0 0.24219038E+04</rscale>
<asrwt>0</asrwt>
<pdfrwt beam="1">  1        1 0.38279815E+00 0.24219038E+04</pdfrwt>
<pdfrwt beam="2">  1       -1 0.90668670E-01 0.24219038E+04</pdfrwt>
<totfact> 0.14669732E+00</totfact>
</mgrwt>
</event>
<event>
 6    1  0.8968082E-007  0.2119334E+04  0.7818608E-02  0.8552774E-01
         -2   -1    0    0    0  501 -0.00000000000E+00  0.00000000000E+00  0.67294992703E+03  0.67294992703E+03  0.00000000000E+00 0.  1.
          2   -1    0    0  501    0  0.00000000000E+00 -0.00000000000E+00 -0.16686141266E+04  0.16686141266E+04  0.00000000000E+00 0. -1.
         23    2    1    2    0    0 -0.71286251839E+02 -0.11194459055E+03 -0.16581266673E+04  0.16659385345E+04  0.91399314617E+02 0.  0.
         11    1    3    3    0    0 -0.75633762997E+02 -0.44656993458E+02 -0.11514169783E+04  0.11547622141E+04  0.00000000000E+00 0. -1.
        -11    1    3    3    0    0  0.43475111581E+01 -0.67287597090E+02 -0.50670968900E+03  0.51117632037E+03  0.00000000000E+00 0.  1.
         22    1    1    2    0    0  0.71286251839E+02  0.11194459055E+03  0.66246246772E+03  0.67562551919E+03  0.00000000000E+00 0.  1.
<mgrwt>
<rscale>  0 0.21193336E+04</rscale>
<asrwt>0</asrwt>
<pdfrwt beam="1">  1        2 0.25670986E+00 0.21193336E+04</pdfrwt>
<pdfrwt beam="2">  1       -2 0.10353076E+00 0.21193336E+04</pdfrwt>
<totfact> 0.71433308E+00</totfact>
</mgrwt>
</event>
<event>
 6    1  0.8968082E-007  0.1680980E+04  0.7818608E-02  0.8772287E-01
         -1   -1    0    0    0  501 -0.00000000000E+00  0.00000000000E+00  0.18180605571E+04  0.18180605571E+04  0.00000000000E+00 0.  1.
          1   -1    0    0  501    0  0.00000000000E+00 -0.00000000000E+00 -0.38855861813E+03  0.38855861813E+03  0.00000000000E+00 0. -1.
         23    2    1    2    0    0 -0.37262681299E+03 -0.21106944476E+03 -0.22880606177E+03  0.49390598337E+03  0.90497813417E+02 0.  0.
         13    1    3    3    0    0 -0.63747781315E+02 -0.75849649536E+02 -0.35524668619E+02  0.10525659617E+03  0.00000000000E+00 0. -1.
        -13    1    3    3    0    0 -0.30887903167E+03 -0.13521979522E+03 -0.19328139315E+03  0.38864938719E+03  0.00000000000E+00 0.  1.
         22    1    1    2    0    0  0.37262681299E+03  0.21106944476E+03  0.16583080007E+04  0.17127131919E+04  0.00000000000E+00 0.  1.
<mgrwt>
<rscale>  0 0.16809796E+04</rscale>
<asrwt>0</asrwt>
<pdfrwt beam="1">  1        1 0.59778250E-01 0.16809796E+04</pdfrwt>
<pdfrwt beam="2">  1       -1 0.27970162E+00 0.16809796E+04</pdfrwt>
<totfact> 0.26598429E+00</totfact>
</mgrwt>
</event>
<event>
 6    1  0.8968082E-007  0.2087358E+04  0.7818608E-02  0.8566833E-01
          2   -1    0    0  501    0  0.00000000000E+00  0.00000000000E+00  0.10319349466E+04  0.10319349466E+04  0.00000000000E+00 0. -1.
         -2   -1    0    0    0  501 -0.00000000000E+00 -0.00000000000E+00 -0.10555565496E+04  0.10555565496E+04  0.00000000000E+00 0.  1.
         23    2    1    2    0    0  0.36771253642E+03 -0.88846355892E+03  0.38867652985E+03  0.10412746184E+04  0.92754413103E+02 0.  0.
         13    1    3    3    0    0  0.20219510443E+03 -0.59567358616E+03  0.27100866017E+03  0.68494932323E+03  0.00000000000E+00 0. -1.
        -13    1    3    3    0    0  0.16551743199E+03 -0.29278997276E+03  0.11766786968E+03  0.35632529520E+03  0.00000000000E+00 0.  1.
         22    1    1    2    0    0 -0.36771253642E+03  0.88846355892E+03 -0.41229813284E+03  0.10462168778E+04  0.00000000000E+00 0. -1.
<mgrwt>
<rscale>  0 0.20873578E+04</rscale>
<asrwt>0</asrwt>
<pdfrwt beam="1">  1        2 0.15875922E+00 0.20873578E+04</pdfrwt>
<pdfrwt beam="2">  1       -2 0.16239332E+00 0.20873578E+04</pdfrwt>
<totfact> 0.53616419E+00</totfact>
</mgrwt>
</event>
<event>
 6    1  0.8968082E-007  0.1637210E+04  0.7818608E-02  0.8798009E-01
          1   -1    0    0  501    0  0.00000000000E+00  0.00000000000E+00  0.81802613675E+03  0.81802613675E+03  0.00000000000E+00 0. -1.
         -1   -1    0    0    0  501 -0.00000000000E+00 -0.00000000000E+00 -0.81918397537E+03  0.81918397537E+03  0.00000000000E+00 0.  1.
         23    2    1    2    0    0 -0.46004927994E+03 -0.24062433731E+03 -0.63023907003E+03  0.82155785325E+03  0.90612411799E+02 0.  0.
         11    1    3    3    0    0 -0.40591839024E+03 -0.18457538555E+03 -0.50149815716E+03  0.67107243582E+03  0.00000000000E+00 0.  1.
        -11    1    3    3    0    0 -0.54130889701E+02 -0.56048951758E+02 -0.12874091287E+03  0.15048541743E+03  0.00000000000E+00 0. -1.
         22    1    1    2    0    0  0.46004927994E+03  0.24062433731E+03  0.62908123141E+03  0.81565225886E+03  0.00000000000E+00 0. -1.
<mgrwt>
<rscale>  0 0.16372097E+04</rscale>
<asrwt>0</asrwt>
<pdfrwt beam="1">  1        1 0.12585017E+00 0.16372097E+04</pdfrwt>
<pdfrwt beam="2">  1       -1 0.12602830E+00 0.16372097E+04</pdfrwt>
<totfact> 0.11188633E+01</totfact>
</mgrwt>
</event>
<event>
 6    1  0.8968082E-007  0.1600431E+04  0.7818608E-02  0.8820283E-01
         -1   -1    0    0    0  501 -0.00000000000E+00  0.00000000000E+00  0.17646488478E+03  0.17646488478E+03  0.00000000000E+00 0.  1.
          1   -1    0    0  501    0  0.00000000000E+00 -0.00000000000E+00 -0.36287392458E+04  0.36287392458E+04  0.00000000000E+00 0. -1.
         23    2    1    2    0    0  0.24887245997E+03 -0.29620500027E+03 -0.33901825612E+04  0.34133747096E+04  0.90078891341E+02 0.  0.
         11    1    3    3    0    0  0.10652150399E+03 -0.10344707433E+03 -0.16689654461E+04  0.16755577544E+04  0.00000000000E+00 0. -1.
        -11    1    3    3    0    0  0.14235095598E+03 -0.19275792594E+03 -0.17212171151E+04  0.17378169553E+04  0.00000000000E+00 0.  1.
         22    1    1    2    0    0 -0.24887245997E+03  0.29620500027E+03 -0.62091799841E+02  0.39182942095E+03  0.00000000000E+00 0.  1.
<mgrwt>
<rscale>  0 0.16004313E+04</rscale>
<asrwt>0</asrwt>
<pdfrwt beam="1">  1        1 0.55826762E+00 0.16004313E+04</pdfrwt>
<pdfrwt beam="2">  1       -1 0.27148442E-01 0.16004313E+04</pdfrwt>
<totfact> 0.23246867E+00</totfact>
</mgrwt>
</event>
<event>
 6    1  0.8968082E-007  0.1913313E+04  0.7818608E-02  0.8648258E-01
         -2   -1    0    0    0  501 -0.00000000000E+00  0.00000000000E+00  0.30641792291E+03  0.30641792291E+03  0.00000000000E+00 0.  1.
          2   -1    0    0  501    0  0.00000000000E+00 -0.00000000000E+00 -0.29867419016E+04  0.29867419016E+04  0.00000000000E+00 0. -1.
         23    2    1    2    0    0  0.74859219039E+03 -0.41999751593E+03 -0.62476036885E+03  0.10655759462E+04  0.91314827321E+02 0.  0.
         11    1    3    3    0    0  0.26738287643E+03 -0.16897952391E+03 -0.18042293536E+03  0.36414299075E+03  0.00000000000E+00 0. -1.
        -11    1    3    3    0    0  0.48120931396E+03 -0.25101799202E+03 -0.44433743349E+03  0.70143295543E+03  0.00000000000E+00 0.  1.
         22    1    1    2    0    0 -0.74859219039E+03  0.41999751593E+03 -0.20555636098E+04  0.22275838783E+04  0.00000000000E+00 0. -1.
<mgrwt>
<rscale>  0 0.19133126E+04</rscale>
<asrwt>0</asrwt>
<pdfrwt beam="1">  1        2 0.45949877E+00 0.19133126E+04</pdfrwt>
<pdfrwt beam="2">  1       -2 0.47141217E-01 0.19133126E+04</pdfrwt>
<totfact> 0.71024052E+00</totfact>
</mgrwt>
</event>
<event>
 6    1  0.8968082E-007  0.1297473E+04  0.7818608E-02  0.9031572E-01
          1   -1    0    0  501    0  0.00000000000E+00  0.00000000000E+00  0.55612108836E+03  0.55612108836E+03  0.00000000000E+00 0. -1.
         -1   -1    0    0    0  501 -0.00000000000E+00 -0.00000000000E+00 -0.75677590136E+03  0.75677590136E+03  0.00000000000E+00 0.  1.
         23    2    1    2    0    0 -0.40024542619E+03  0.29271507034E+03  0.31742309581E+03  0.59576155398E+03  0.91081797637E+02 0.  0.
         11    1    3    3    0    0 -0.73756861032E+02  0.89452761253E+02  0.10492750568E+03  0.15637024171E+03  0.00000000000E+00 0.  1.
        -11    1    3    3    0    0 -0.32648856516E+03  0.20326230909E+03  0.21249559013E+03  0.43939131227E+03  0.00000000000E+00 0. -1.
         22    1    1    2    0    0  0.40024542619E+03 -0.29271507034E+03 -0.51807790882E+03  0.71713543574E+03  0.00000000000E+00 0.  1.
<mgrwt>
<rscale>  0 0.12974730E+04</rscale>
<asrwt>0</asrwt>
<pdfrwt beam="1">  1        1 0.85557091E-01 0.12974730E+04</pdfrwt>
<pdfrwt beam="2">  1       -1 0.11642706E+00 0.12974730E+04</pdfrwt>
<totfact> 0.25015455E+01</totfact>
</mgrwt>
</event>
<event>
 6    1  0.8968082E-007  0.1931176E+04  0.7818608E-02  0.8639492E-01
          1   -1    0    0  501    0  0.00000000000E+00  0.00000000000E+00  0.50326651992E+03  0.50326651992E+03  0.00000000000E+00 0. -1.
         -1   -1    0    0    0  501 -0.00000000000E+00 -0.00000000000E+00 -0.18526165981E+04  0.18526165981E+04  0.00000000000E+00 0.  1.
         23    2    1    2    0    0  0.56980040776E+03 -0.77376312023E+03 -0.76146702851E+03  0.12293892872E+04  0.90466087460E+02 0.  0.
         11    1    3    3    0    0  0.16613937134E+03 -0.22337953054E+03 -0.27430210675E+03  0.39082265945E+03  0.00000000000E+00 0. -1.
        -11    1    3    3    0    0  0.40366103641E+03 -0.55038358969E+03 -0.48716492176E+03  0.83856662771E+03  0.00000000000E+00 0.  1.
         22    1    1    2    0    0 -0.56980040776E+03  0.77376312023E+03 -0.58788304971E+03  0.11264938309E+04  0.00000000000E+00 0. -1.
<mgrwt>
<rscale>  0 0.19311757E+04</rscale>
<asrwt>0</asrwt>
<pdfrwt beam="1">  1        1 0.77425620E-01 0.19311757E+04</pdfrwt>
<pdfrwt beam="2">  1       -1 0.28501793E+00 0.19311757E+04</pdfrwt>
<totfact> 0.16936292E+00</totfact>
</mgrwt>
</event>
<event>
 6    1  0.8968082E-007  0.8128372E+03  0.7818608E-02  0.9541619E-01
         -1   -1    0    0    0  501 -0.00000000000E+00  0.00000000000E+00  0.20622569733E+03  0.20622569733E+03  0.00000000000E+00 0.  1.
          1   -1    0    0  501    0  0.00000000000E+00 -0.00000000000E+00 -0.80094818511E+03  0.80094818511E+03  0.00000000000E+00 0. -1.
         23    2    1    2    0    0  0.19634635898E+03 -0.10900417434E+03 -0.71256004962E+03  0.75356100089E+03  0.98379647484E+02 0.  0.
         11    1    3    3    0    0  0.13995076328E+03 -0.26431642091E+02 -0.36172114222E+03  0.38875060460E+03  0.00000000000E+00 0.  1.
        -11    1    3    3    0    0  0.56395595698E+02 -0.82572532251E+02 -0.35083890740E+03  0.36481039629E+03  0.00000000000E+00 0. -1.
         22    1    1    2    0    0 -0.19634635898E+03  0.10900417434E+03  0.11783756184E+03  0.25361288155E+03  0.00000000000E+00 0.  1.
<mgrwt>
<rscale>  0 0.81283725E+03</rscale>
<asrwt>0</asrwt>
<pdfrwt beam="1">  1        1 0.12322280E+00 0.81283725E+03</pdfrwt>
<pdfrwt beam="2">  1       -1 0.31727031E-01 0.81283725E+03</pdfrwt>
<totfact> 0.20591809E+02</totfact>
</mgrwt>
</event>
<event>
 6    1  0.8968082E-007  0.5301176E+04  0.7818608E-02  0.7783656E-01
          2   -1    0    0  501    0  0.00000000000E+00  0.00000000000E+00  0.43102971923E+04  0.43102971923E+04  0.00000000000E+00 0. -1.
         -2   -1    0    0    0  501 -0.00000000000E+00 -0.00000000000E+00 -0.16299613979E+04  0.16299613979E+04  0.00000000000E+00 0.  1.
         23    2    1    2    0    0  0.19698167675E+04  0.10400124569E+04 -0.26761092613E+03  0.22453710580E+04  0.90948183203E+02 0.  0.
         13    1    3    3    0    0  0.44877780989E+03  0.19931012644E+03 -0.41173004082E+02  0.49276897774E+03  0.00000000000E+00 0.  1.
        -13    1    3    3    0    0  0.15210389577E+04  0.84070233051E+03 -0.22643792205E+03  0.17526020803E+04  0.00000000000E+00 0. -1.
         22    1    1    2    0    0 -0.19698167675E+04 -0.10400124569E+04  0.29479467205E+04  0.36948875322E+04  0.00000000000E+00 0.  1.
<mgrwt>
<rscale>  0 0.53011765E+04</rscale>
<asrwt>0</asrwt>
<pdfrwt beam="1">  1        2 0.66312264E+00 0.53011765E+04</pdfrwt>
<pdfrwt beam="2">  1       -2 0.25076329E+00 0.53011765E+04</pdfrwt>
<totfact> 0.83236288E-03</totfact>
</mgrwt>
</event>
<event>
 6    1  0.8968082E-007  0.1876117E+04  0.7818608E-02  0.8666836E-01
          2   -1    0    0  501    0  0.00000000000E+00  0.00000000000E+00  0.66381174731E+03  0.66381174731E+03  0.00000000000E+00 0. -1.
         -2   -1    0    0    0  501 -0.00000000000E+00 -0.00000000000E+00 -0.13256080658E+04  0.13256080658E+04  0.00000000000E+00 0.  1.
         23    2    1    2    0    0  0.92094237948E+03 -0.82522256628E+02 -0.17939860882E+03  0.94651409374E+03  0.93596365485E+02 0.  0.
         11    1    3    3    0    0  0.12453895020E+03  0.19648313832E+02 -0.33264254818E+02  0.13039370001E+03  0.00000000000E+00 0. -1.
        -11    1    3    3    0    0  0.79640342928E+03 -0.10217057046E+03 -0.14613435400E+03  0.81612039372E+03  0.00000000000E+00 0.  1.
         22    1    1    2    0    0 -0.92094237948E+03  0.82522256628E+02 -0.48239770963E+03  0.10429057193E+04  0.00000000000E+00 0.  1.
<mgrwt>
<rscale>  0 0.18761175E+04</rscale>
<asrwt>0</asrwt>
<pdfrwt beam="1">  1        2 0.10212489E+00 0.18761175E+04</pdfrwt>
<pdfrwt beam="2">  1       -2 0.20393970E+00 0.18761175E+04</pdfrwt>
<totfact> 0.51478108E+00</totfact>
</mgrwt>
</event>
<event>
 6    1  0.8968082E-007  0.3160421E+04  0.7818608E-02  0.8199349E-01
         -1   -1    0    0    0  501 -0.00000000000E+00  0.00000000000E+00  0.80330083870E+03  0.80330083870E+03  0.00000000000E+00 0.  1.
          1   -1    0    0  501    0  0.00000000000E+00 -0.00000000000E+00 -0.31085056658E+04  0.31085056658E+04  0.00000000000E+00 0. -1.
         23    2    1    2    0    0  0.81901492543E+03  0.71060336128E+03 -0.25738659111E+04  0.27947024972E+04  0.99165187995E+02 0.  0.
         11    1    3    3    0    0  0.24983539443E+03  0.27026109393E+03 -0.93299238961E+03  0.10029624032E+04  0.00000000000E+00 0.  1.
        -11    1    3    3    0    0  0.56917953100E+03  0.44034226735E+03 -0.16408735215E+04  0.17917400940E+04  0.00000000000E+00 0. -1.
         22    1    1    2    0    0 -0.81901492543E+03 -0.71060336128E+03  0.26866108395E+03  0.11171040073E+04  0.00000000000E+00 0.  1.
<mgrwt>
<rscale>  0 0.31604210E+04</rscale>
<asrwt>0</asrwt>
<pdfrwt beam="1">  1        1 0.47823165E+00 0.31604210E+04</pdfrwt>
<pdfrwt beam="2">  1       -1 0.12358474E+00 0.31604210E+04</pdfrwt>
<totfact> 0.24016609E-01</totfact>
</mgrwt>
</event>
<event>
 6    1  0.8968082E-007  0.2825048E+04  0.7818608E-02  0.8295534E-01
         -1   -1    0    0    0  501 -0.00000000000E+00  0.00000000000E+00  0.26403688270E+04  0.26403688270E+04  0.00000000000E+00 0.  1.
          1   -1    0    0  501    0  0.00000000000E+00 -0.00000000000E+00 -0.75566135420E+03  0.75566135420E+03  0.00000000000E+00 0. -1.
         23    2    1    2    0    0  0.78786043167E+03 -0.90428123968E+02 -0.45951297709E+03  0.92130376742E+03  0.93526201474E+02 0.  0.
         11    1    3    3    0    0  0.20844468465E+03 -0.34194297869E+02 -0.17002803203E+03  0.27116041054E+03  0.00000000000E+00 0. -1.
        -11    1    3    3    0    0  0.57941574701E+03 -0.56233826099E+02 -0.28948494506E+03  0.65014335689E+03  0.00000000000E+00 0.  1.
         22    1    1    2    0    0 -0.78786043167E+03  0.90428123968E+02  0.23442204499E+04  0.24747264138E+04  0.00000000000E+00 0.  1.
<mgrwt>
<rscale>  0 0.28250484E+04</rscale>
<asrwt>0</asrwt>
<pdfrwt beam="1">  1        1 0.11625559E+00 0.28250484E+04</pdfrwt>
<pdfrwt beam="2">  1       -1 0.40621058E+00 0.28250484E+04</pdfrwt>
<totfact> 0.13555596E-01</totfact>
</mgrwt>
</event>
<event>
 6    1  0.8968082E-007  0.4095953E+04  0.7818608E-02  0.7985465E-01
         -1   -1    0    0    0  501 -0.00000000000E+00  0.00000000000E+00  0.18188784627E+04  0.18188784627E+04  0.00000000000E+00 0.  1.
          1   -1    0    0  501    0  0.00000000000E+00 -0.00000000000E+00 -0.23059308532E+04  0.23059308532E+04  0.00000000000E+00 0. -1.
         23    2    1    2    0    0  0.98682875811E+03 -0.14322937106E+04  0.84319154723E+03  0.19350958175E+04  0.91255499418E+02 0.  0.
         13    1    3    3    0    0  0.39528082761E+03 -0.52102958608E+03  0.35317251135E+03  0.74326952381E+03  0.00000000000E+00 0. -1.
        -13    1    3    3    0    0  0.59154793050E+03 -0.91126412455E+03  0.49001903588E+03  0.11918262937E+04  0.00000000000E+00 0.  1.
         22    1    1    2    0    0 -0.98682875811E+03  0.14322937106E+04 -0.13302439377E+04  0.21897134984E+04  0.00000000000E+00 0. -1.
<mgrwt>
<rscale>  0 0.40959531E+04</rscale>
<asrwt>0</asrwt>
<pdfrwt beam="1">  1        1 0.35475859E+00 0.40959531E+04</pdfrwt>
<pdfrwt beam="2">  1       -1 0.27982746E+00 0.40959531E+04</pdfrwt>
<totfact> 0.63892857E-02</totfact>
</mgrwt>
</event>
<event>
 6    1  0.8968082E-007  0.2092267E+04  0.7818608E-02  0.8564658E-01
         -2   -1    0    0    0  501 -0.00000000000E+00  0.00000000000E+00  0.50723485471E+03  0.50723485471E+03  0.00000000000E+00 0.  1.
          2   -1    0    0  501    0  0.00000000000E+00 -0.00000000000E+00 -0.21575703733E+04  0.21575703733E+04  0.00000000000E+00 0. -1.
         23    2    1    2    0    0 -0.17537131071E+03  0.30930206147E+03  0.42320870738E+03  0.56099712866E+03  0.95860870598E+02 0.  0.
         13    1    3    3    0    0  0.84023891372E+01  0.42995482988E+02  0.38600012725E+02  0.58388121077E+02  0.00000000000E+00 0.  1.
        -13    1    3    3    0    0 -0.18377369984E+03  0.26630657849E+03  0.38460869465E+03  0.50260900758E+03  0.00000000000E+00 0. -1.
         22    1    1    2    0    0  0.17537131071E+03 -0.30930206147E+03 -0.20735442259E+04  0.21038080993E+04  0.00000000000E+00 0. -1.
<mgrwt>
<rscale>  0 0.20922666E+04</rscale>
<asrwt>0</asrwt>
<pdfrwt beam="1">  1        2 0.33193391E+00 0.20922666E+04</pdfrwt>
<pdfrwt beam="2">  1       -2 0.78036131E-01 0.20922666E+04</pdfrwt>
<totfact> 0.73521814E+00</totfact>
</mgrwt>
</event>
<event>
 6    1  0.8968082E-007  0.1579616E+04  0.7818608E-02  0.8833169E-01
         -2   -1    0    0    0  501 -0.00000000000E+00  0.00000000000E+00  0.88479512104E+03  0.88479512104E+03  0.00000000000E+00 0.  1.
          2   -1    0    0  501    0  0.00000000000E+00 -0.00000000000E+00 -0.70501822564E+03  0.70501822564E+03  0.00000000000E+00 0. -1.
         23    2    1    2    0    0  0.45015001980E+02  0.71207488780E+03  0.42464901442E+03  0.83546637684E+03  0.92737722352E+02 0.  0.
         13    1    3    3    0    0  0.66919079150E+02  0.32771614088E+03  0.19320668215E+03  0.38627044176E+03  0.00000000000E+00 0.  1.
        -13    1    3    3    0    0 -0.21904077169E+02  0.38435874692E+03  0.23144233228E+03  0.44919593509E+03  0.00000000000E+00 0. -1.
         22    1    1    2    0    0 -0.45015001980E+02 -0.71207488780E+03 -0.24487211903E+03  0.75434696984E+03  0.00000000000E+00 0. -1.
<mgrwt>
<rscale>  0 0.15796160E+04</rscale>
<asrwt>0</asrwt>
<pdfrwt beam="1">  1        2 0.10846434E+00 0.15796160E+04</pdfrwt>
<pdfrwt beam="2">  1       -2 0.13612233E+00 0.15796160E+04</pdfrwt>
<totfact> 0.15055948E+01</totfact>
</mgrwt>
</event>
<event>
 6    1  0.8968082E-007  0.3194475E+04  0.7818608E-02  0.8190278E-01
         -2   -1    0    0    0  501 -0.00000000000E+00  0.00000000000E+00  0.56668623955E+03  0.56668623955E+03  0.00000000000E+00 0.  1.
          2   -1    0    0  501    0  0.00000000000E+00 -0.00000000000E+00 -0.45019055830E+04  0.45019055830E+04  0.00000000000E+00 0. -1.
         23    2    1    2    0    0 -0.98948178257E+03 -0.21168904543E+03 -0.39274164055E+04  0.40566889933E+04  0.90771782009E+02 0.  0.
         11    1    3    3    0    0 -0.84510765880E+03 -0.20032661054E+03 -0.34605668383E+04  0.35678930124E+04  0.00000000000E+00 0. -1.
        -11    1    3    3    0    0 -0.14437412377E+03 -0.11362434884E+02 -0.46684956720E+03  0.48879598089E+03  0.00000000000E+00 0.  1.
         22    1    1    2    0    0  0.98948178257E+03  0.21168904543E+03 -0.78029379803E+01  0.10119028292E+04  0.00000000000E+00 0.  1.
<mgrwt>
<rscale>  0 0.31944752E+04</rscale>
<asrwt>0</asrwt>
<pdfrwt beam="1">  1        2 0.69260087E+00 0.31944752E+04</pdfrwt>
<pdfrwt beam="2">  1       -2 0.87182497E-01 0.31944752E+04</pdfrwt>
<totfact> 0.11707527E-01</totfact>
</mgrwt>
</event>
<event>
 6    1  0.8968082E-007  0.4010616E+04  0.7818608E-02  0.8002408E-01
         -2   -1    0    0    0  501 -0.00000000000E+00  0.00000000000E+00  0.16754747748E+04  0.16754747748E+04  0.00000000000E+00 0.  1.
          2   -1    0    0  501    0  0.00000000000E+00 -0.00000000000E+00 -0.24000721002E+04  0.24000721002E+04  0.00000000000E+00 0. -1.
         23    2    1    2    0    0  0.77082125116E+03  0.40541604254E+03 -0.21969240500E+04  0.23649114513E+04  0.88336417217E+02 0.  0.
         11    1    3    3    0    0  0.40924746163E+03  0.21852911531E+03 -0.12883338507E+04  0.13693219380E+04  0.00000000000E+00 0. -1.
        -11    1    3    3    0    0  0.36157378952E+03  0.18688692723E+03 -0.90859019930E+03  0.99558951336E+03  0.00000000000E+00 0.  1.
         22    1    1    2    0    0 -0.77082125116E+03 -0.40541604254E+03  0.14723267246E+04  0.17106354237E+04  0.00000000000E+00 0.  1.
<mgrwt>
<rscale>  0 0.40106160E+04</rscale>
<asrwt>0</asrwt>
<pdfrwt beam="1">  1        2 0.36924186E+00 0.40106160E+04</pdfrwt>
<pdfrwt beam="2">  1       -2 0.25776535E+00 0.40106160E+04</pdfrwt>
<totfact> 0.18041564E-01</totfact>
</mgrwt>
</event>
<event>
 6    1  0.8968082E-007  0.2930088E+04  0.7818608E-02  0.8263981E-01
         -2   -1    0    0    0  501 -0.00000000000E+00  0.00000000000E+00  0.78811938842E+03  0.78811938842E+03  0.00000000000E+00 0.  1.
          2   -1    0    0  501    0  0.00000000000E+00 -0.00000000000E+00 -0.27233863620E+04  0.27233863620E+04  0.00000000000E+00 0. -1.
         23    2    1    2    0    0  0.42939580856E+03 -0.72193931988E+03 -0.24049857844E+04  0.25491061955E+04  0.91698586777E+02 0.  0.
         13    1    3    3    0    0  0.24184889107E+03 -0.33869592925E+03 -0.10972842612E+04  0.11735580805E+04  0.00000000000E+00 0. -1.
        -13    1    3    3    0    0  0.18754691749E+03 -0.38324339063E+03 -0.13077015232E+04  0.13755481150E+04  0.00000000000E+00 0.  1.
         22    1    1    2    0    0 -0.42939580856E+03  0.72193931988E+03  0.46971881084E+03  0.96239955489E+03  0.00000000000E+00 0.  1.
<mgrwt>
<rscale>  0 0.29300878E+04</rscale>
<asrwt>0</asrwt>
<pdfrwt beam="1">  1        2 0.41898252E+00 0.29300878E+04</pdfrwt>
<pdfrwt beam="2">  1       -2 0.12124914E+00 0.29300878E+04</pdfrwt>
<totfact> 0.11452042E+00</totfact>
</mgrwt>
</event>
<event>
 6    1  0.8968082E-007  0.3100605E+04  0.7818608E-02  0.8215572E-01
         -2   -1    0    0    0  501 -0.00000000000E+00  0.00000000000E+00  0.12883696481E+04  0.12883696481E+04  0.00000000000E+00 0.  1.
          2   -1    0    0  501    0  0.00000000000E+00 -0.00000000000E+00 -0.18654873061E+04  0.18654873061E+04  0.00000000000E+00 0. -1.
         23    2    1    2    0    0  0.14016617336E+04 -0.51369148187E+03  0.13201772267E+03  0.15011599033E+04  0.86705376816E+02 0.  0.
         13    1    3    3    0    0  0.52821158150E+03 -0.23814159648E+03  0.45336848622E+02  0.58118355504E+03  0.00000000000E+00 0.  1.
        -13    1    3    3    0    0  0.87345015208E+03 -0.27554988538E+03  0.86680874051E+02  0.91997634830E+03  0.00000000000E+00 0. -1.
         22    1    1    2    0    0 -0.14016617336E+04  0.51369148187E+03 -0.70913538069E+03  0.16526970509E+04  0.00000000000E+00 0. -1.
<mgrwt>
<rscale>  0 0.31006046E+04</rscale>
<asrwt>0</asrwt>
<pdfrwt beam="1">  1        2 0.28699805E+00 0.31006046E+04</pdfrwt>
<pdfrwt beam="2">  1       -2 0.19821071E+00 0.31006046E+04</pdfrwt>
<totfact> 0.92081670E-01</totfact>
</mgrwt>
</event>
<event>
 6    1  0.8968082E-007  0.1057534E+04  0.7818608E-02  0.9247600E-01
         -2   -1    0    0    0  501 -0.00000000000E+00  0.00000000000E+00  0.23258202851E+03  0.23258202851E+03  0.00000000000E+00 0.  1.
          2   -1    0    0  501    0  0.00000000000E+00 -0.00000000000E+00 -0.12021323238E+04  0.12021323238E+04  0.00000000000E+00 0. -1.
         23    2    1    2    0    0 -0.28105269987E+03 -0.39573443607E+03 -0.75932665447E+03  0.90576223427E+03  0.90729779343E+02 0.  0.
         13    1    3    3    0    0 -0.17358603744E+01  0.25074262768E+01 -0.23441095064E+02  0.23638640730E+02  0.00000000000E+00 0. -1.
        -13    1    3    3    0    0 -0.27931683950E+03 -0.39824186234E+03 -0.73588555940E+03  0.88212359354E+03  0.00000000000E+00 0.  1.
         22    1    1    2    0    0  0.28105269987E+03  0.39573443607E+03 -0.21022364079E+03  0.52895211800E+03  0.00000000000E+00 0.  1.
<mgrwt>
<rscale>  0 0.10575337E+04</rscale>
<asrwt>0</asrwt>
<pdfrwt beam="1">  1        2 0.18494343E+00 0.10575337E+04</pdfrwt>
<pdfrwt beam="2">  1       -2 0.35781851E-01 0.10575337E+04</pdfrwt>
<totfact> 0.13786766E+02</totfact>
</mgrwt>
</event>
<event>
 6    1  0.8968082E-007  0.1640875E+04  0.7818608E-02  0.8795823E-01
         -1   -1    0    0    0  501 -0.00000000000E+00  0.00000000000E+00  0.65909947644E+03  0.65909947644E+03  0.00000000000E+00 0.  1.
          1   -1    0    0  501    0  0.00000000000E+00 -0.00000000000E+00 -0.10212681765E+04  0.10212681765E+04  0.00000000000E+00 0. -1.
         23    2    1    2    0    0  0.44667077859E+03  0.35014015547E+02  0.51910419041E+03  0.69174099276E+03  0.91080595226E+02 0.  0.
         13    1    3    3    0    0  0.22224032792E+03 -0.19701591244E+02  0.29523456056E+03  0.37005724125E+03  0.00000000000E+00 0.  1.
        -13    1    3    3    0    0  0.22443045067E+03  0.54715606791E+02  0.22386962985E+03  0.32168375151E+03  0.00000000000E+00 0. -1.
         22    1    1    2    0    0 -0.44667077859E+03 -0.35014015547E+02 -0.88127289050E+03  0.98862666020E+03  0.00000000000E+00 0. -1.
<mgrwt>
<rscale>  0 0.16408745E+04</rscale>
<asrwt>0</asrwt>
<pdfrwt beam="1">  1        1 0.15711818E+00 0.16408745E+04</pdfrwt>
<pdfrwt beam="2">  1       -1 0.10139992E+00 0.16408745E+04</pdfrwt>
<totfact> 0.12859954E+01</totfact>
</mgrwt>
</event>
<event>
 6    1  0.1235084E-006  0.3331960E+04  0.7818608E-02  0.8154810E-01
          2   -1    0    0  501    0  0.00000000000E+00  0.00000000000E+00  0.23522145666E+04  0.23522145666E+04  0.00000000000E+00 0. -1.
         -2   -1    0    0    0  501 -0.00000000000E+00 -0.00000000000E+00 -0.11799476960E+04  0.11799476960E+04  0.00000000000E+00 0.  1.
         23    2    1    2    0    0 -0.46198319067E+03 -0.10005420646E+04 -0.73648008861E+03  0.13281142038E+04  0.83495664753E+02 0.  0.
         13    1    3    3    0    0 -0.21936792946E+03 -0.41783399521E+03 -0.35567293355E+03  0.59094058219E+03  0.00000000000E+00 0. -1.
        -13    1    3    3    0    0 -0.24261526120E+03 -0.58270806937E+03 -0.38080715507E+03  0.73717362163E+03  0.00000000000E+00 0.  1.
         22    1    1    2    0    0  0.46198319067E+03  0.10005420646E+04  0.19087469591E+04  0.22040480588E+04  0.00000000000E+00 0. -1.
<mgrwt>
<rscale>  0 0.33319605E+04</rscale>
<asrwt>0</asrwt>
<pdfrwt beam="1">  1        2 0.36187916E+00 0.33319605E+04</pdfrwt>
<pdfrwt beam="2">  1       -2 0.18153042E+00 0.33319605E+04</pdfrwt>
<totfact> 0.62412392E-01</totfact>
</mgrwt>
</event>
<event>
 6    1  0.8968082E-007  0.9165917E+03  0.7818608E-02  0.9405075E-01
          2   -1    0    0  501    0  0.00000000000E+00  0.00000000000E+00  0.30046261161E+03  0.30046261161E+03  0.00000000000E+00 0. -1.
         -2   -1    0    0    0  501 -0.00000000000E+00 -0.00000000000E+00 -0.69903893484E+03  0.69903893484E+03  0.00000000000E+00 0.  1.
         23    2    1    2    0    0  0.11355955985E+03 -0.31270038191E+03 -0.53800995233E+03  0.63878137872E+03  0.88936148585E+02 0.  0.
         11    1    3    3    0    0  0.35308967513E+02 -0.14274278425E+03 -0.16195401498E+03  0.21874946540E+03  0.00000000000E+00 0.  1.
        -11    1    3    3    0    0  0.78250592338E+02 -0.16995759766E+03 -0.37605593734E+03  0.42003191333E+03  0.00000000000E+00 0. -1.
         22    1    1    2    0    0 -0.11355955985E+03  0.31270038191E+03  0.13943362910E+03  0.36072016772E+03  0.00000000000E+00 0. -1.
<mgrwt>
<rscale>  0 0.91659165E+03</rscale>
<asrwt>0</asrwt>
<pdfrwt beam="1">  1        2 0.46225017E-01 0.91659165E+03</pdfrwt>
<pdfrwt beam="2">  1       -2 0.10754445E+00 0.91659165E+03</pdfrwt>
<totfact> 0.76236978E+01</totfact>
</mgrwt>
</event>
<event>
 6    1  0.8968082E-007  0.2050833E+04  0.7818608E-02  0.8583217E-01
          2   -1    0    0  501    0  0.00000000000E+00  0.00000000000E+00  0.10294719505E+04  0.10294719505E+04  0.00000000000E+00 0. -1.
         -2   -1    0    0    0  501 -0.00000000000E+00 -0.00000000000E+00 -0.10213767899E+04  0.10213767899E+04  0.00000000000E+00 0.  1.
         23    2    1    2    0    0  0.22797422436E+03  0.71777457411E+03 -0.68883811131E+03  0.10247451533E+04  0.91826463110E+02 0.  0.
         13    1    3    3    0    0  0.20013477967E+02  0.11943222361E+03 -0.73686454908E+02  0.14175432612E+03  0.00000000000E+00 0.  1.
        -13    1    3    3    0    0  0.20796074639E+03  0.59834235050E+03 -0.61515165641E+03  0.88299082715E+03  0.00000000000E+00 0. -1.
         22    1    1    2    0    0 -0.22797422436E+03 -0.71777457411E+03  0.69693327189E+03  0.10261035872E+04  0.00000000000E+00 0. -1.
<mgrwt>
<rscale>  0 0.20508328E+04</rscale>
<asrwt>0</asrwt>
<pdfrwt beam="1">  1        2 0.15838030E+00 0.20508328E+04</pdfrwt>
<pdfrwt beam="2">  1       -2 0.15713489E+00 0.20508328E+04</pdfrwt>
<totfact> 0.59034024E+00</totfact>
</mgrwt>
</event>
<event>
 6    1  0.8968082E-007  0.1518573E+04  0.7818608E-02  0.8872196E-01
          1   -1    0    0  501    0  0.00000000000E+00  0.00000000000E+00  0.10338920399E+04  0.10338920399E+04  0.00000000000E+00 0. -1.
         -1   -1    0    0    0  501 -0.00000000000E+00 -0.00000000000E+00 -0.55761683832E+03  0.55761683832E+03  0.00000000000E+00 0.  1.
         23    2    1    2    0    0 -0.57761918841E+03  0.14267252834E+03  0.72877578883E+03  0.94516846964E+03  0.90718842958E+02 0.  0.
         11    1    3    3    0    0 -0.12011207414E+03  0.57408489956E+02  0.12286261808E+03  0.18115702579E+03  0.00000000000E+00 0. -1.
        -11    1    3    3    0    0 -0.45750711427E+03  0.85264038384E+02  0.60591317075E+03  0.76401144385E+03  0.00000000000E+00 0.  1.
         22    1    1    2    0    0  0.57761918841E+03 -0.14267252834E+03 -0.25250058726E+03  0.64634040855E+03  0.00000000000E+00 0.  1.
<mgrwt>
<rscale>  0 0.15185725E+04</rscale>
<asrwt>0</asrwt>
<pdfrwt beam="1">  1        1 0.15906031E+00 0.15185725E+04</pdfrwt>
<pdfrwt beam="2">  1       -1 0.85787206E-01 0.15185725E+04</pdfrwt>
<totfact> 0.18461398E+01</totfact>
</mgrwt>
</event>
<event>
 6    1  0.8968082E-007  0.3720561E+04  0.7818608E-02  0.8063420E-01
          1   -1    0    0  501    0  0.00000000000E+00  0.00000000000E+00  0.25601844811E+04  0.25601844811E+04  0.00000000000E+00 0. -1.
         -1   -1    0    0    0  501 -0.00000000000E+00 -0.00000000000E+00 -0.13517166439E+04  0.13517166439E+04  0.00000000000E+00 0.  1.
         23    2    1    2    0    0  0.40619222958E+03  0.15267691457E+04  0.16349909201E+04  0.22754604473E+04  0.92243086293E+02 0.  0.
         13    1    3    3    0    0  0.18563103324E+03  0.83221419745E+03  0.83788492295E+03  0.11954457307E+04  0.00000000000E+00 0. -1.
        -13    1    3    3    0    0  0.22056119634E+03  0.69455494821E+03  0.79710599710E+03  0.10800147166E+04  0.00000000000E+00 0.  1.
         22    1    1    2    0    0 -0.40619222958E+03 -0.15267691457E+04 -0.42652308279E+03  0.16364406777E+04  0.00000000000E+00 0.  1.
<mgrwt>
<rscale>  0 0.37205612E+04</rscale>
<asrwt>0</asrwt>
<pdfrwt beam="1">  1        1 0.39387453E+00 0.37205612E+04</pdfrwt>
<pdfrwt beam="2">  1       -1 0.20795641E+00 0.37205612E+04</pdfrwt>
<totfact> 0.13077601E-01</totfact>
</mgrwt>
</event>
<event>
 6    1  0.8968082E-007  0.9393623E+03  0.7818608E-02  0.9377672E-01
         -2   -1    0    0    0  501 -0.00000000000E+00  0.00000000000E+00  0.14240079000E+03  0.14240079000E+03  0.00000000000E+00 0.  1.
          2   -1    0    0  501    0  0.00000000000E+00 -0.00000000000E+00 -0.15491513445E+04  0.15491513445E+04  0.00000000000E+00 0. -1.
         23    2    1    2    0    0  0.26023930463E+01  0.45735874573E+03 -0.55390567094E+03  0.72380826852E+03  0.88899508038E+02 0.  0.
         11    1    3    3    0    0 -0.13526000045E+02  0.21549746947E+03 -0.19645207435E+03  0.29191699084E+03  0.00000000000E+00 0.  1.
        -11    1    3    3    0    0  0.16128393091E+02  0.24186127626E+03 -0.35745359660E+03  0.43189127768E+03  0.00000000000E+00 0. -1.
         22    1    1    2    0    0 -0.26023930463E+01 -0.45735874573E+03 -0.85284488359E+03  0.96774386602E+03  0.00000000000E+00 0.  1.
<mgrwt>
<rscale>  0 0.93936228E+03</rscale>
<asrwt>0</asrwt>
<pdfrwt beam="1">  1        2 0.23833098E+00 0.93936228E+03</pdfrwt>
<pdfrwt beam="2">  1       -2 0.21907813E-01 0.93936228E+03</pdfrwt>
<totfact> 0.21686145E+02</totfact>
</mgrwt>
</event>
<event>
 6    1  0.8968082E-007  0.1831865E+04  0.7818608E-02  0.8689535E-01
         -2   -1    0    0    0  501 -0.00000000000E+00  0.00000000000E+00  0.45779544306E+03  0.45779544306E+03  0.00000000000E+00 0.  1.
          2   -1    0    0  501    0  0.00000000000E+00 -0.00000000000E+00 -0.18325485198E+04  0.18325485198E+04  0.00000000000E+00 0. -1.
         23    2    1    2    0    0  0.65838355922E+03 -0.61400242864E+03 -0.49415481800E+03  0.10310103348E+04  0.91243810416E+02 0.  0.
         11    1    3    3    0    0  0.42457159416E+03 -0.36945891101E+03 -0.35337665212E+03  0.66455698308E+03  0.00000000000E+00 0.  1.
        -11    1    3    3    0    0  0.23381196506E+03 -0.24454351763E+03 -0.14077816588E+03  0.36645335174E+03  0.00000000000E+00 0. -1.
         22    1    1    2    0    0 -0.65838355922E+03  0.61400242864E+03 -0.88059825876E+03  0.12593336281E+04  0.00000000000E+00 0.  1.
<mgrwt>
<rscale>  0 0.18318650E+04</rscale>
<asrwt>0</asrwt>
<pdfrwt beam="1">  1        2 0.28193055E+00 0.18318650E+04</pdfrwt>
<pdfrwt beam="2">  1       -2 0.70430067E-01 0.18318650E+04</pdfrwt>
<totfact> 0.14294645E+01</totfact>
</mgrwt>
</event>
<event>
 6    1  0.8968082E-007  0.2039018E+04  0.7818608E-02  0.8588593E-01
          2   -1    0    0  501    0  0.00000000000E+00  0.00000000000E+00  0.12758925474E+04  0.12758925474E+04  0.00000000000E+00 0. -1.
         -2   -1    0    0    0  501 -0.00000000000E+00 -0.00000000000E+00 -0.81464412157E+03  0.81464412157E+03  0.00000000000E+00 0.  1.
         23    2    1    2    0    0  0.12546078382E+03 -0.31480507609E+03  0.12147765424E+04  0.12643119618E+04  0.89219081921E+02 0.  0.
         11    1    3    3    0    0  0.16537737517E+02 -0.15203105283E+03  0.47255523542E+03  0.49668439507E+03  0.00000000000E+00 0. -1.
        -11    1    3    3    0    0  0.10892304630E+03 -0.16277402326E+03  0.74222130701E+03  0.76762756675E+03  0.00000000000E+00 0.  1.
         22    1    1    2    0    0 -0.12546078382E+03  0.31480507609E+03 -0.75352811659E+03  0.82622470715E+03  0.00000000000E+00 0.  1.
<mgrwt>
<rscale>  0 0.20390178E+04</rscale>
<asrwt>0</asrwt>
<pdfrwt beam="1">  1        2 0.19629116E+00 0.20390178E+04</pdfrwt>
<pdfrwt beam="2">  1       -2 0.12532986E+00 0.20390178E+04</pdfrwt>
<totfact> 0.75347013E+00</totfact>
</mgrwt>
</event>
<event>
 6    1  0.8968082E-007  0.1756672E+04  0.7818608E-02  0.8729686E-01
          1   -1    0    0  501    0  0.00000000000E+00  0.00000000000E+00  0.14835607190E+04  0.14835607190E+04  0.00000000000E+00 0. -1.
         -1   -1    0    0    0  501 -0.00000000000E+00 -0.00000000000E+00 -0.52001542891E+03  0.52001542891E+03  0.00000000000E+00 0.  1.
         23    2    1    2    0    0  0.74227892635E+03  0.24036822626E+02  0.10128225424E+04  0.12592751194E+04  0.91698149546E+02 0.  0.
         11    1    3    3    0    0  0.17431586669E+03  0.44081407067E+02  0.23149915945E+03  0.29312293096E+03  0.00000000000E+00 0.  1.
        -11    1    3    3    0    0  0.56796305965E+03 -0.20044584442E+02  0.78132338297E+03  0.96615218846E+03  0.00000000000E+00 0. -1.
         22    1    1    2    0    0 -0.74227892635E+03 -0.24036822626E+02 -0.49277252359E+02  0.74430102844E+03  0.00000000000E+00 0.  1.
<mgrwt>
<rscale>  0 0.17566724E+04</rscale>
<asrwt>0</asrwt>
<pdfrwt beam="1">  1        1 0.22824011E+00 0.17566724E+04</pdfrwt>
<pdfrwt beam="2">  1       -1 0.80002374E-01 0.17566724E+04</pdfrwt>
<totfact> 0.99208448E+00</totfact>
</mgrwt>
</event>
<event>
 6    1  0.8968082E-007  0.3544202E+04  0.7818608E-02  0.8103394E-01
          1   -1    0    0  501    0  0.00000000000E+00  0.00000000000E+00  0.16596389040E+04  0.16596389040E+04  0.00000000000E+00 0. -1.
         -1   -1    0    0    0  501 -0.00000000000E+00 -0.00000000000E+00 -0.18921836992E+04  0.18921836992E+04  0.00000000000E+00 0.  1.
         23    2    1    2    0    0 -0.11183237641E+04  0.29248868603E+03 -0.14606169726E+04  0.18652998652E+04  0.98711567681E+02 0.  0.
         13    1    3    3    0    0 -0.11290538634E+03  0.55738649285E+02 -0.13230739496E+03  0.18264629767E+03  0.00000000000E+00 0. -1.
        -13    1    3    3    0    0 -0.10054183778E+04  0.23675003674E+03 -0.13283095776E+04  0.16826535675E+04  0.00000000000E+00 0.  1.
         22    1    1    2    0    0  0.11183237641E+04 -0.29248868603E+03  0.12280721774E+04  0.16865227380E+04  0.00000000000E+00 0. -1.
<mgrwt>
<rscale>  0 0.35442018E+04</rscale>
<asrwt>0</asrwt>
<pdfrwt beam="1">  1        1 0.25532906E+00 0.35442018E+04</pdfrwt>
<pdfrwt beam="2">  1       -1 0.29110518E+00 0.35442018E+04</pdfrwt>
<totfact> 0.15567060E-01</totfact>
</mgrwt>
</event>
<event>
 6    1  0.8968082E-007  0.4370339E+04  0.7818608E-02  0.7933738E-01
          2   -1    0    0  501    0  0.00000000000E+00  0.00000000000E+00  0.32297596469E+04  0.32297596469E+04  0.00000000000E+00 0. -1.
         -2   -1    0    0    0  501 -0.00000000000E+00 -0.00000000000E+00 -0.14784277387E+04  0.14784277387E+04  0.00000000000E+00 0.  1.
         23    2    1    2    0    0  0.14047948889E+04  0.84220989503E+03  0.24327410160E+04  0.29341849731E+04  0.91904395658E+02 0.  0.
         13    1    3    3    0    0  0.20320350811E+03  0.14166379894E+03  0.42016965928E+03  0.48775284748E+03  0.00000000000E+00 0.  1.
        -13    1    3    3    0    0  0.12015913808E+04  0.70054609609E+03  0.20125713568E+04  0.24464321256E+04  0.00000000000E+00 0. -1.
         22    1    1    2    0    0 -0.14047948889E+04 -0.84220989503E+03 -0.68140910791E+03  0.17740024125E+04  0.00000000000E+00 0.  1.
<mgrwt>
<rscale>  0 0.43703392E+04</rscale>
<asrwt>0</asrwt>
<pdfrwt beam="1">  1        2 0.49688610E+00 0.43703392E+04</pdfrwt>
<pdfrwt beam="2">  1       -2 0.22745042E+00 0.43703392E+04</pdfrwt>
<totfact> 0.84117631E-02</totfact>
</mgrwt>
</event>
<event>
 6    1  0.8968082E-007  0.3647233E+04  0.7818608E-02  0.8079757E-01
         -2   -1    0    0    0  501 -0.00000000000E+00  0.00000000000E+00  0.19895255397E+04  0.19895255397E+04  0.00000000000E+00 0.  1.
          2   -1    0    0  501    0  0.00000000000E+00 -0.00000000000E+00 -0.16715427254E+04  0.16715427254E+04  0.00000000000E+00 0. -1.
         23    2    1    2    0    0 -0.43000218717E+03  0.79822009266E+03 -0.14276104605E+04  0.16940519769E+04  0.98403638983E+02 0.  0.
         13    1    3    3    0    0 -0.98785565268E+02  0.27959333046E+03 -0.45264478291E+03  0.54112689625E+03  0.00000000000E+00 0.  1.
        -13    1    3    3    0    0 -0.33121662191E+03  0.51862676220E+03 -0.97496567758E+03  0.11529250806E+04  0.00000000000E+00 0. -1.
         22    1    1    2    0    0  0.43000218717E+03 -0.79822009266E+03  0.17455932747E+04  0.19670162882E+04  0.00000000000E+00 0.  1.
<mgrwt>
<rscale>  0 0.36472329E+04</rscale>
<asrwt>0</asrwt>
<pdfrwt beam="1">  1        2 0.25716042E+00 0.36472329E+04</pdfrwt>
<pdfrwt beam="2">  1       -2 0.30608085E+00 0.36472329E+04</pdfrwt>
<totfact> 0.24085698E-01</totfact>
</mgrwt>
</event>
<event>
 6    1  0.8968082E-007  0.2032400E+04  0.7818608E-02  0.8591621E-01
          1   -1    0    0  501    0  0.00000000000E+00  0.00000000000E+00  0.24304023550E+04  0.24304023550E+04  0.00000000000E+00 0. -1.
         -1   -1    0    0    0  501 -0.00000000000E+00 -0.00000000000E+00 -0.42489370932E+03  0.42489370932E+03  0.00000000000E+00 0.  1.
         23    2    1    2    0    0 -0.46335356697E+03  0.42057861589E+03 -0.11659510285E+03  0.64285234307E+03  0.89898925587E+02 0.  0.
         11    1    3    3    0    0 -0.25485443861E+03  0.29047050996E+03 -0.72011242422E+02  0.39307699128E+03  0.00000000000E+00 0. -1.
        -11    1    3    3    0    0 -0.20849912836E+03  0.13010810593E+03 -0.44583860425E+02  0.24977535179E+03  0.00000000000E+00 0.  1.
         22    1    1    2    0    0  0.46335356697E+03 -0.42057861589E+03  0.21221037485E+04  0.22124437212E+04  0.00000000000E+00 0. -1.
<mgrwt>
<rscale>  0 0.20324002E+04</rscale>
<asrwt>0</asrwt>
<pdfrwt beam="1">  1        1 0.37390805E+00 0.20324002E+04</pdfrwt>
<pdfrwt beam="2">  1       -1 0.65368265E-01 0.20324002E+04</pdfrwt>
<totfact> 0.33231586E+00</totfact>
</mgrwt>
</event>
<event>
 6    1  0.8968082E-007  0.3706894E+04  0.7818608E-02  0.8066436E-01
         -1   -1    0    0    0  501 -0.00000000000E+00  0.00000000000E+00  0.31008110549E+04  0.31008110549E+04  0.00000000000E+00 0.  1.
          1   -1    0    0  501    0  0.00000000000E+00 -0.00000000000E+00 -0.11078601510E+04  0.11078601510E+04  0.00000000000E+00 0. -1.
         23    2    1    2    0    0 -0.94471643123E+03  0.64038163224E+03 -0.65976186959E+03  0.13208583954E+04  0.82482759905E+02 0.  0.
         11    1    3    3    0    0 -0.47201892329E+03  0.33147100200E+03 -0.28704429651E+03  0.64425873473E+03  0.00000000000E+00 0. -1.
        -11    1    3    3    0    0 -0.47269750793E+03  0.30891063024E+03 -0.37271757308E+03  0.67659966063E+03  0.00000000000E+00 0.  1.
         22    1    1    2    0    0  0.94471643123E+03 -0.64038163224E+03  0.26527127735E+04  0.28878128106E+04  0.00000000000E+00 0.  1.
<mgrwt>
<rscale>  0 0.37068936E+04</rscale>
<asrwt>0</asrwt>
<pdfrwt beam="1">  1        1 0.17044002E+00 0.37068936E+04</pdfrwt>
<pdfrwt beam="2">  1       -1 0.47704785E+00 0.37068936E+04</pdfrwt>
<totfact> 0.21195859E-02</totfact>
</mgrwt>
</event>
<event>
 6    1  0.8968082E-007  0.5662001E+03  0.7818608E-02  0.9978123E-01
          2   -1    0    0  501    0  0.00000000000E+00  0.00000000000E+00  0.10531861510E+04  0.10531861510E+04  0.00000000000E+00 0. -1.
         -2   -1    0    0    0  501 -0.00000000000E+00 -0.00000000000E+00 -0.76098266370E+02  0.76098266370E+02  0.00000000000E+00 0.  1.
         23    2    1    2    0    0 -0.24728648394E+03  0.10011642950E+03  0.36323563973E+03  0.45996499947E+03  0.91944364581E+02 0.  0.
         11    1    3    3    0    0 -0.11731678276E+03  0.80795246976E+02  0.13306480315E+03  0.19492906732E+03  0.00000000000E+00 0.  1.
        -11    1    3    3    0    0 -0.12996970118E+03  0.19321182522E+02  0.23017083658E+03  0.26503593215E+03  0.00000000000E+00 0. -1.
         22    1    1    2    0    0  0.24728648394E+03 -0.10011642950E+03  0.61385224489E+03  0.66931941788E+03  0.00000000000E+00 0. -1.
<mgrwt>
<rscale>  0 0.56620011E+03</rscale>
<asrwt>0</asrwt>
<pdfrwt beam="1">  1        2 0.16202863E+00 0.56620011E+03</pdfrwt>
<pdfrwt beam="2">  1       -2 0.11707426E-01 0.56620011E+03</pdfrwt>
<totfact> 0.12461486E+03</totfact>
</mgrwt>
</event>
<event>
 6    1  0.8968082E-007  0.1269642E+04  0.7818608E-02  0.9053992E-01
          1   -1    0    0  501    0  0.00000000000E+00  0.00000000000E+00  0.36371386813E+03  0.36371386813E+03  0.00000000000E+00 0. -1.
         -1   -1    0    0    0  501 -0.00000000000E+00 -0.00000000000E+00 -0.11080072432E+04  0.11080072432E+04  0.00000000000E+00 0.  1.
         23    2    1    2    0    0 -0.34800733031E+03 -0.33038524284E+03 -0.85005967484E+03  0.98034547014E+03  0.90621627666E+02 0.  0.
         11    1    3    3    0    0 -0.15955866734E+03 -0.21366467694E+03 -0.46208311524E+03  0.53350948247E+03  0.00000000000E+00 0. -1.
        -11    1    3    3    0    0 -0.18844866297E+03 -0.11672056590E+03 -0.38797655960E+03  0.44683598767E+03  0.00000000000E+00 0.  1.
         22    1    1    2    0    0  0.34800733031E+03  0.33038524284E+03  0.10576629973E+03  0.49137564123E+03  0.00000000000E+00 0. -1.
<mgrwt>
<rscale>  0 0.12696418E+04</rscale>
<asrwt>0</asrwt>
<pdfrwt beam="1">  1        1 0.55955980E-01 0.12696418E+04</pdfrwt>
<pdfrwt beam="2">  1       -1 0.17046265E+00 0.12696418E+04</pdfrwt>
<totfact> 0.16365379E+01</totfact>
</mgrwt>
</event>
<event>
 6    1  0.8968082E-007  0.4442781E+04  0.7818608E-02  0.7920731E-01
         -2   -1    0    0    0  501 -0.00000000000E+00  0.00000000000E+00  0.14973485418E+04  0.14973485418E+04  0.00000000000E+00 0.  1.
          2   -1    0    0  501    0  0.00000000000E+00 -0.00000000000E+00 -0.32955432226E+04  0.32955432226E+04  0.00000000000E+00 0. -1.
         23    2    1    2    0    0  0.17565785361E+04 -0.23882095209E+03  0.54299224707E+03  0.18562678811E+04  0.91028927096E+02 0.  0.
         11    1    3    3    0    0  0.21208823549E+03 -0.96186545350E+01  0.41670254009E+02  0.21635699253E+03  0.00000000000E+00 0. -1.
        -11    1    3    3    0    0  0.15444903006E+04 -0.22920229756E+03  0.50132199306E+03  0.16399108886E+04  0.00000000000E+00 0.  1.
         22    1    1    2    0    0 -0.17565785361E+04  0.23882095209E+03 -0.23411869279E+04  0.29366238833E+04  0.00000000000E+00 0. -1.
<mgrwt>
<rscale>  0 0.44427815E+04</rscale>
<asrwt>0</asrwt>
<pdfrwt beam="1">  1        2 0.50700664E+00 0.44427815E+04</pdfrwt>
<pdfrwt beam="2">  1       -2 0.23036132E+00 0.44427815E+04</pdfrwt>
<totfact> 0.72521803E-02</totfact>
</mgrwt>
</event>
<event>
 6    1  0.8968082E-007  0.4037294E+04  0.7818608E-02  0.7997065E-01
          2   -1    0    0  501    0  0.00000000000E+00  0.00000000000E+00  0.36130500192E+04  0.36130500192E+04  0.00000000000E+00 0. -1.
         -2   -1    0    0    0  501 -0.00000000000E+00 -0.00000000000E+00 -0.11278380052E+04  0.11278380052E+04  0.00000000000E+00 0.  1.
         23    2    1    2    0    0 -0.10019617453E+04 -0.10093706363E+04  0.29237426982E+04  0.32525783854E+04  0.90765453222E+02 0.  0.
         11    1    3    3    0    0 -0.49446692773E+03 -0.51310536752E+03  0.13639737917E+04  0.15388954367E+04  0.00000000000E+00 0. -1.
        -11    1    3    3    0    0 -0.50749481760E+03 -0.49626526876E+03  0.15597689065E+04  0.17136829487E+04  0.00000000000E+00 0.  1.
         22    1    1    2    0    0  0.10019617453E+04  0.10093706363E+04 -0.43853068422E+03  0.14883096390E+04  0.00000000000E+00 0.  1.
<mgrwt>
<rscale>  0 0.40372937E+04</rscale>
<asrwt>0</asrwt>
<pdfrwt beam="1">  1        2 0.55585385E+00 0.40372937E+04</pdfrwt>
<pdfrwt beam="2">  1       -2 0.17351354E+00 0.40372937E+04</pdfrwt>
<totfact> 0.10671757E-01</totfact>
</mgrwt>
</event>
<event>
 6    1  0.8968082E-007  0.4743960E+04  0.7818608E-02  0.7869265E-01
          2   -1    0    0  501    0  0.00000000000E+00  0.00000000000E+00  0.28823539028E+04  0.28823539028E+04  0.00000000000E+00 0. -1.
         -2   -1    0    0    0  501 -0.00000000000E+00 -0.00000000000E+00 -0.19519769257E+04  0.19519769257E+04  0.00000000000E+00 0.  1.
         23    2    1    2    0    0 -0.18716016155E+04  0.14430024717E+04  0.26919149600E+03  0.23802902866E+04  0.90382778288E+02 0.  0.
         13    1    3    3    0    0 -0.11508057946E+04  0.93862211421E+03  0.18509391326E+03  0.14965377399E+04  0.00000000000E+00 0.  1.
        -13    1    3    3    0    0 -0.72079582095E+03  0.50438035751E+03  0.84097582740E+02  0.88375254679E+03  0.00000000000E+00 0. -1.
         22    1    1    2    0    0  0.18716016155E+04 -0.14430024717E+04  0.66118548106E+03  0.24540405418E+04  0.00000000000E+00 0. -1.
<mgrwt>
<rscale>  0 0.47439597E+04</rscale>
<asrwt>0</asrwt>
<pdfrwt beam="1">  1        2 0.44343906E+00 0.47439597E+04</pdfrwt>
<pdfrwt beam="2">  1       -2 0.30030414E+00 0.47439597E+04</pdfrwt>
<totfact> 0.48419521E-02</totfact>
</mgrwt>
</event>
<event>
 6    1  0.8968082E-007  0.1611582E+04  0.7818608E-02  0.8813464E-01
         -2   -1    0    0    0  501 -0.00000000000E+00  0.00000000000E+00  0.54212104647E+03  0.54212104647E+03  0.00000000000E+00 0.  1.
          2   -1    0    0  501    0  0.00000000000E+00 -0.00000000000E+00 -0.11977016953E+04  0.11977016953E+04  0.00000000000E+00 0. -1.
         23    2    1    2    0    0  0.50338978184E+03  0.39366291970E+02 -0.10033602304E+04  0.11267145826E+04  0.88334712079E+02 0.  0.
         11    1    3    3    0    0  0.89725086744E+02  0.25016093907E+02 -0.25553306298E+03  0.27198077583E+03  0.00000000000E+00 0.  1.
        -11    1    3    3    0    0  0.41366469510E+03  0.14350198062E+02 -0.74782716741E+03  0.85473380679E+03  0.00000000000E+00 0. -1.
         22    1    1    2    0    0 -0.50338978184E+03 -0.39366291970E+02  0.34777958159E+03  0.61310815912E+03  0.00000000000E+00 0.  1.
<mgrwt>
<rscale>  0 0.16115822E+04</rscale>
<asrwt>0</asrwt>
<pdfrwt beam="1">  1        2 0.18426180E+00 0.16115822E+04</pdfrwt>
<pdfrwt beam="2">  1       -2 0.83403238E-01 0.16115822E+04</pdfrwt>
<totfact> 0.22904944E+01</totfact>
</mgrwt>
</event>
<event>
 6    1  0.8968082E-007  0.2487230E+04  0.7818608E-02  0.8407549E-01
         -2   -1    0    0    0  501 -0.00000000000E+00  0.00000000000E+00  0.77590091491E+03  0.77590091491E+03  0.00000000000E+00 0.  1.
          2   -1    0    0  501    0  0.00000000000E+00 -0.00000000000E+00 -0.19932670503E+04  0.19932670503E+04  0.00000000000E+00 0. -1.
         23    2    1    2    0    0  0.44244952838E+02  0.10144497714E+04 -0.14056245169E+04  0.17364496238E+04  0.91711824543E+02 0.  0.
         11    1    3    3    0    0  0.55799814445E+02  0.60002526063E+03 -0.77425346837E+03  0.98112810885E+03  0.00000000000E+00 0. -1.
        -11    1    3    3    0    0 -0.11554861607E+02  0.41442451079E+03 -0.63137104852E+03  0.75532151491E+03  0.00000000000E+00 0.  1.
         22    1    1    2    0    0 -0.44244952838E+02 -0.10144497714E+04  0.18825838149E+03  0.10327183415E+04  0.00000000000E+00 0.  1.
<mgrwt>
<rscale>  0 0.24872296E+04</rscale>
<asrwt>0</asrwt>
<pdfrwt beam="1">  1        2 0.30665647E+00 0.24872296E+04</pdfrwt>
<pdfrwt beam="2">  1       -2 0.11936937E+00 0.24872296E+04</pdfrwt>
<totfact> 0.32370746E+00</totfact>
</mgrwt>
</event>
<event>
 6    1  0.8968082E-007  0.4121711E+04  0.7818608E-02  0.7980434E-01
          4   -1    0    0  501    0  0.00000000000E+00  0.00000000000E+00  0.28301691134E+04  0.28301691134E+04  0.00000000000E+00 0. -1.
         -4   -1    0    0    0  501 -0.00000000000E+00 -0.00000000000E+00 -0.15006612242E+04  0.15006612242E+04  0.00000000000E+00 0.  1.
         23    2    1    2    0    0  0.76146337845E+03 -0.18589854319E+04  0.18690982794E+03  0.20197302441E+04  0.93389841741E+02 0.  0.
         13    1    3    3    0    0  0.64572568858E+03 -0.14902956383E+04  0.16797687568E+03  0.16328377094E+04  0.00000000000E+00 0. -1.
        -13    1    3    3    0    0  0.11573768987E+03 -0.36868979358E+03  0.18932952262E+02  0.38689253472E+03  0.00000000000E+00 0.  1.
         22    1    1    2    0    0 -0.76146337845E+03  0.18589854319E+04  0.11425980613E+04  0.23111000935E+04  0.00000000000E+00 0. -1.
<mgrwt>
<rscale>  0 0.41217108E+04</rscale>
<asrwt>0</asrwt>
<pdfrwt beam="1">  1        4 0.43541063E+00 0.41217108E+04</pdfrwt>
<pdfrwt beam="2">  1       -4 0.23087096E+00 0.41217108E+04</pdfrwt>
<totfact> 0.48207632E-04</totfact>
</mgrwt>
</event>
<event>
 6    1  0.8968082E-007  0.2226608E+04  0.7818608E-02  0.8507434E-01
         -2   -1    0    0    0  501 -0.00000000000E+00  0.00000000000E+00  0.83786254169E+03  0.83786254169E+03  0.00000000000E+00 0.  1.
          2   -1    0    0  501    0  0.00000000000E+00 -0.00000000000E+00 -0.14792948006E+04  0.14792948006E+04  0.00000000000E+00 0. -1.
         23    2    1    2    0    0 -0.34015508204E+03  0.56147858425E+03 -0.12546096177E+04  0.14188532993E+04  0.90198179419E+02 0.  0.
         13    1    3    3    0    0 -0.16023523046E+03  0.20105592950E+03 -0.55248024059E+03  0.60937117762E+03  0.00000000000E+00 0.  1.
        -13    1    3    3    0    0 -0.17991985158E+03  0.36042265476E+03 -0.70212937714E+03  0.80948212166E+03  0.00000000000E+00 0. -1.
         22    1    1    2    0    0  0.34015508204E+03 -0.56147858425E+03  0.61317735879E+03  0.89830404304E+03  0.00000000000E+00 0.  1.
<mgrwt>
<rscale>  0 0.22266079E+04</rscale>
<asrwt>0</asrwt>
<pdfrwt beam="1">  1        2 0.22758381E+00 0.22266079E+04</pdfrwt>
<pdfrwt beam="2">  1       -2 0.12890193E+00 0.22266079E+04</pdfrwt>
<totfact> 0.52786819E+00</totfact>
</mgrwt>
</event>
<event>
 6    1  0.8968082E-007  0.1073475E+04  0.7818608E-02  0.9231438E-01
         -1   -1    0    0    0  501 -0.00000000000E+00  0.00000000000E+00  0.44149463323E+03  0.44149463323E+03  0.00000000000E+00 0.  1.
          1   -1    0    0  501    0  0.00000000000E+00 -0.00000000000E+00 -0.65252645479E+03  0.65252645479E+03  0.00000000000E+00 0. -1.
         23    2    1    2    0    0 -0.70856566710E+02 -0.50546155433E+03  0.49995276062E+02  0.52074350984E+03  0.90345113101E+02 0.  0.
         11    1    3    3    0    0 -0.41499360278E+02 -0.39440660074E+03  0.73906254322E+02  0.40341157400E+03  0.00000000000E+00 0.  1.
        -11    1    3    3    0    0 -0.29357206432E+02 -0.11105495359E+03 -0.23910978260E+02  0.11733193584E+03  0.00000000000E+00 0. -1.
         22    1    1    2    0    0  0.70856566710E+02  0.50546155433E+03 -0.26102709762E+03  0.57327757818E+03  0.00000000000E+00 0. -1.
<mgrwt>
<rscale>  0 0.10734746E+04</rscale>
<asrwt>0</asrwt>
<pdfrwt beam="1">  1        1 0.10038868E+00 0.10734746E+04</pdfrwt>
<pdfrwt beam="2">  1       -1 0.67922252E-01 0.10734746E+04</pdfrwt>
<totfact> 0.66360446E+01</totfact>
</mgrwt>
</event>
<event>
 6    1  0.8968082E-007  0.2353591E+04  0.7818608E-02  0.8457086E-01
          1   -1    0    0  501    0  0.00000000000E+00  0.00000000000E+00  0.15505285569E+04  0.15505285569E+04  0.00000000000E+00 0. -1.
         -1   -1    0    0    0  501 -0.00000000000E+00 -0.00000000000E+00 -0.89314574389E+03  0.89314574389E+03  0.00000000000E+00 0.  1.
         23    2    1    2    0    0  0.27247697479E+03 -0.11085760749E+04  0.61806484952E+03  0.13014262902E+04  0.92312593559E+02 0.  0.
         11    1    3    3    0    0  0.22688456073E+03 -0.80730442974E+03  0.41869851963E+03  0.93729690948E+03  0.00000000000E+00 0. -1.
        -11    1    3    3    0    0  0.45592414062E+02 -0.30127164515E+03  0.19936632989E+03  0.36412938069E+03  0.00000000000E+00 0.  1.
         22    1    1    2    0    0 -0.27247697479E+03  0.11085760749E+04  0.39317963515E+02  0.11422480107E+04  0.00000000000E+00 0.  1.
<mgrwt>
<rscale>  0 0.23535913E+04</rscale>
<asrwt>0</asrwt>
<pdfrwt beam="1">  1        1 0.23854286E+00 0.23535913E+04</pdfrwt>
<pdfrwt beam="2">  1       -1 0.13740704E+00 0.23535913E+04</pdfrwt>
<totfact> 0.23899588E+00</totfact>
</mgrwt>
</event>
<event>
 6    1  0.8968082E-007  0.2278981E+04  0.7818608E-02  0.8486255E-01
          2   -1    0    0  501    0  0.00000000000E+00  0.00000000000E+00  0.16903097532E+04  0.16903097532E+04  0.00000000000E+00 0. -1.
         -2   -1    0    0    0  501 -0.00000000000E+00 -0.00000000000E+00 -0.76816597911E+03  0.76816597911E+03  0.00000000000E+00 0.  1.
         23    2    1    2    0    0 -0.80655973551E+03 -0.46650842226E+03  0.11666704161E+04  0.14951678928E+04  0.78983876934E+02 0.  0.
         13    1    3    3    0    0 -0.24231918200E+03 -0.10939635236E+03  0.29513885097E+03  0.39723178275E+03  0.00000000000E+00 0.  1.
        -13    1    3    3    0    0 -0.56424055351E+03 -0.35711206990E+03  0.87153156512E+03  0.10979361100E+04  0.00000000000E+00 0. -1.
         22    1    1    2    0    0  0.80655973551E+03  0.46650842226E+03 -0.24452664204E+03  0.96330783951E+03  0.00000000000E+00 0.  1.
<mgrwt>
<rscale>  0 0.22789809E+04</rscale>
<asrwt>0</asrwt>
<pdfrwt beam="1">  1        2 0.26004765E+00 0.22789809E+04</pdfrwt>
<pdfrwt beam="2">  1       -2 0.11817938E+00 0.22789809E+04</pdfrwt>
<totfact> 0.49740813E+00</totfact>
</mgrwt>
</event>
<event>
 6    1  0.8968082E-007  0.1383893E+04  0.7818608E-02  0.8965560E-01
         -2   -1    0    0    0  501 -0.00000000000E+00  0.00000000000E+00  0.57090136213E+03  0.57090136213E+03  0.00000000000E+00 0.  1.
          2   -1    0    0  501    0  0.00000000000E+00 -0.00000000000E+00 -0.83865678950E+03  0.83865678950E+03  0.00000000000E+00 0. -1.
         23    2    1    2    0    0 -0.46051093271E+02 -0.60673874920E+03  0.19458203931E+03  0.64535363315E+03  0.91468731403E+02 0.  0.
         11    1    3    3    0    0  0.10858552809E+02 -0.12159887436E+03  0.72030581288E+02  0.14174836527E+03  0.00000000000E+00 0. -1.
        -11    1    3    3    0    0 -0.56909646080E+02 -0.48513987484E+03  0.12255145802E+03  0.50360526788E+03  0.00000000000E+00 0.  1.
         22    1    1    2    0    0  0.46051093271E+02  0.60673874920E+03 -0.46233746668E+03  0.76420451848E+03  0.00000000000E+00 0. -1.
<mgrwt>
<rscale>  0 0.13838935E+04</rscale>
<asrwt>0</asrwt>
<pdfrwt beam="1">  1        2 0.12902412E+00 0.13838935E+04</pdfrwt>
<pdfrwt beam="2">  1       -2 0.87830979E-01 0.13838935E+04</pdfrwt>
<totfact> 0.35224303E+01</totfact>
</mgrwt>
</event>
<event>
 6    1  0.8968082E-007  0.8687174E+03  0.7818608E-02  0.9465554E-01
          2   -1    0    0  501    0  0.00000000000E+00  0.00000000000E+00  0.99605244345E+03  0.99605244345E+03  0.00000000000E+00 0. -1.
         -2   -1    0    0    0  501 -0.00000000000E+00 -0.00000000000E+00 -0.18941521377E+03  0.18941521377E+03  0.00000000000E+00 0.  1.
         23    2    1    2    0    0  0.20251672208E+03  0.18521740493E+03 -0.43495395211E+02  0.29213457840E+03  0.90179003563E+02 0.  0.
         11    1    3    3    0    0  0.19401878868E+03  0.13461666799E+03 -0.46722816954E+02  0.24072382367E+03  0.00000000000E+00 0. -1.
        -11    1    3    3    0    0  0.84979334065E+01  0.50600736937E+02  0.32274217424E+01  0.51410754730E+02  0.00000000000E+00 0.  1.
         22    1    1    2    0    0 -0.20251672208E+03 -0.18521740493E+03  0.85013262489E+03  0.89333307882E+03  0.00000000000E+00 0. -1.
<mgrwt>
<rscale>  0 0.86871741E+03</rscale>
<asrwt>0</asrwt>
<pdfrwt beam="1">  1        2 0.15323883E+00 0.86871741E+03</pdfrwt>
<pdfrwt beam="2">  1       -2 0.29140803E-01 0.86871741E+03</pdfrwt>
<totfact> 0.27486224E+02</totfact>
</mgrwt>
</event>
<event>
 6    1  0.8968082E-007  0.9071628E+03  0.7818608E-02  0.9416672E-01
          2   -1    0    0  501    0  0.00000000000E+00  0.00000000000E+00  0.17666821246E+04  0.17666821246E+04  0.00000000000E+00 0. -1.
         -2   -1    0    0    0  501 -0.00000000000E+00 -0.00000000000E+00 -0.11645336226E+03  0.11645336226E+03  0.00000000000E+00 0.  1.
         23    2    1    2    0    0  0.13579390868E+03 -0.25211235364E+03  0.11394462310E+03  0.32039124005E+03  0.87558809217E+02 0.  0.
         13    1    3    3    0    0  0.54987264689E+02 -0.29034920308E+02  0.23407414981E+02  0.66441951742E+02  0.00000000000E+00 0. -1.
        -13    1    3    3    0    0  0.80806643990E+02 -0.22307743333E+03  0.90537208121E+02  0.25394928830E+03  0.00000000000E+00 0.  1.
         22    1    1    2    0    0 -0.13579390868E+03  0.25211235364E+03  0.15362841392E+04  0.15627442468E+04  0.00000000000E+00 0. -1.
<mgrwt>
<rscale>  0 0.90716277E+03</rscale>
<asrwt>0</asrwt>
<pdfrwt beam="1">  1        2 0.27179723E+00 0.90716277E+03</pdfrwt>
<pdfrwt beam="2">  1       -2 0.17915903E-01 0.90716277E+03</pdfrwt>
<totfact> 0.23444864E+02</totfact>
</mgrwt>
</event>
<event>
 6    1  0.8968082E-007  0.1052617E+04  0.7818608E-02  0.9252646E-01
         -1   -1    0    0    0  501 -0.00000000000E+00  0.00000000000E+00  0.65819000651E+03  0.65819000651E+03  0.00000000000E+00 0.  1.
          1   -1    0    0  501    0  0.00000000000E+00 -0.00000000000E+00 -0.42085236060E+03  0.42085236060E+03  0.00000000000E+00 0. -1.
         23    2    1    2    0    0  0.95685196648E+02 -0.72624329581E+02 -0.40167111546E+03  0.42884074667E+03  0.90192853988E+02 0.  0.
         11    1    3    3    0    0  0.27025860045E+02 -0.76023374833E+02 -0.23857867949E+03  0.25185260955E+03  0.00000000000E+00 0. -1.
        -11    1    3    3    0    0  0.68659336602E+02  0.33990452519E+01 -0.16309243597E+03  0.17698813712E+03  0.00000000000E+00 0.  1.
         22    1    1    2    0    0 -0.95685196648E+02  0.72624329581E+02  0.63900876137E+03  0.65020162043E+03  0.00000000000E+00 0.  1.
<mgrwt>
<rscale>  0 0.10526173E+04</rscale>
<asrwt>0</asrwt>
<pdfrwt beam="1">  1        1 0.64746517E-01 0.10526173E+04</pdfrwt>
<pdfrwt beam="2">  1       -1 0.10126000E+00 0.10526173E+04</pdfrwt>
<totfact> 0.51907861E+01</totfact>
</mgrwt>
</event>
<event>
 6    1  0.8968082E-007  0.4883079E+03  0.7818608E-02  0.1016877E+00
         -2   -1    0    0    0  501 -0.00000000000E+00  0.00000000000E+00  0.41348522931E+02  0.41348522931E+02  0.00000000000E+00 0.  1.
          2   -1    0    0  501    0  0.00000000000E+00 -0.00000000000E+00 -0.14416755299E+04  0.14416755299E+04  0.00000000000E+00 0. -1.
         23    2    1    2    0    0 -0.67552386639E+02 -0.15702284651E+03 -0.12171210847E+04  0.12324568777E+04  0.91360393577E+02 0.  0.
         11    1    3    3    0    0 -0.75315255376E+02 -0.59989676915E+02 -0.63253044370E+03  0.63981709202E+03  0.00000000000E+00 0. -1.
        -11    1    3    3    0    0  0.77628687375E+01 -0.97033169593E+02 -0.58459064095E+03  0.59263978572E+03  0.00000000000E+00 0.  1.
         22    1    1    2    0    0  0.67552386639E+02  0.15702284651E+03 -0.18320592235E+03  0.25056717512E+03  0.00000000000E+00 0.  1.
<mgrwt>
<rscale>  0 0.48830791E+03</rscale>
<asrwt>0</asrwt>
<pdfrwt beam="1">  1        2 0.22179626E+00 0.48830791E+03</pdfrwt>
<pdfrwt beam="2">  1       -2 0.63613106E-02 0.48830791E+03</pdfrwt>
<totfact> 0.19736934E+03</totfact>
</mgrwt>
</event>
<event>
 6    1  0.8968082E-007  0.1902259E+04  0.7818608E-02  0.8653733E-01
          1   -1    0    0  501    0  0.00000000000E+00  0.00000000000E+00  0.42856843445E+03  0.42856843445E+03  0.00000000000E+00 0. -1.
         -1   -1    0    0    0  501 -0.00000000000E+00 -0.00000000000E+00 -0.21108580824E+04  0.21108580824E+04  0.00000000000E+00 0.  1.
         23    2    1    2    0    0 -0.48071451223E+03 -0.29857793799E+03 -0.18598210896E+04  0.19463391370E+04  0.95217243508E+02 0.  0.
         11    1    3    3    0    0 -0.94193336732E+02 -0.50846516909E+02 -0.24151725522E+03  0.26417482381E+03  0.00000000000E+00 0. -1.
        -11    1    3    3    0    0 -0.38652117550E+03 -0.24773142108E+03 -0.16183038344E+04  0.16821643132E+04  0.00000000000E+00 0.  1.
         22    1    1    2    0    0  0.48071451223E+03  0.29857793799E+03  0.17753144171E+03  0.59308737983E+03  0.00000000000E+00 0. -1.
<mgrwt>
<rscale>  0 0.19022588E+04</rscale>
<asrwt>0</asrwt>
<pdfrwt beam="1">  1        1 0.65933606E-01 0.19022588E+04</pdfrwt>
<pdfrwt beam="2">  1       -1 0.32474740E+00 0.19022588E+04</pdfrwt>
<totfact> 0.11675779E+00</totfact>
</mgrwt>
</event>
<event>
 6    1  0.8968082E-007  0.1529515E+04  0.7818608E-02  0.8865059E-01
         -2   -1    0    0    0  501 -0.00000000000E+00  0.00000000000E+00  0.43619029069E+03  0.43619029069E+03  0.00000000000E+00 0.  1.
          2   -1    0    0  501    0  0.00000000000E+00 -0.00000000000E+00 -0.13408235554E+04  0.13408235554E+04  0.00000000000E+00 0. -1.
         23    2    1    2    0    0 -0.72646173285E+03 -0.13057949980E+03 -0.67489819956E+03  0.10039835393E+04  0.87736608201E+02 0.  0.
         11    1    3    3    0    0 -0.16170335798E+03  0.13725957184E+00 -0.17790173048E+03  0.24041010904E+03  0.00000000000E+00 0. -1.
        -11    1    3    3    0    0 -0.56475837487E+03 -0.13071675937E+03 -0.49699646908E+03  0.76357343029E+03  0.00000000000E+00 0.  1.
         22    1    1    2    0    0  0.72646173285E+03  0.13057949980E+03 -0.22973506519E+03  0.77303030680E+03  0.00000000000E+00 0. -1.
<mgrwt>
<rscale>  0 0.15295152E+04</rscale>
<asrwt>0</asrwt>
<pdfrwt beam="1">  1        2 0.20628054E+00 0.15295152E+04</pdfrwt>
<pdfrwt beam="2">  1       -2 0.67106200E-01 0.15295152E+04</pdfrwt>
<totfact> 0.30749511E+01</totfact>
</mgrwt>
</event>
<event>
 6    1  0.8968082E-007  0.9363669E+03  0.7818608E-02  0.9381229E-01
         -1   -1    0    0    0  501 -0.00000000000E+00  0.00000000000E+00  0.41409268423E+03  0.41409268423E+03  0.00000000000E+00 0.  1.
          1   -1    0    0  501    0  0.00000000000E+00 -0.00000000000E+00 -0.52933984849E+03  0.52933984849E+03  0.00000000000E+00 0. -1.
         23    2    1    2    0    0  0.33870847913E+03 -0.36166200892E+01  0.26125558445E+03  0.43698329186E+03  0.89237902170E+02 0.  0.
         13    1    3    3    0    0  0.34186112664E+02 -0.25201474555E+02  0.16004255784E+02  0.45386570944E+02  0.00000000000E+00 0.  1.
        -13    1    3    3    0    0  0.30452236647E+03  0.21584854466E+02  0.24525132867E+03  0.39159672092E+03  0.00000000000E+00 0. -1.
         22    1    1    2    0    0 -0.33870847913E+03  0.36166200892E+01 -0.37650274872E+03  0.50644924086E+03  0.00000000000E+00 0. -1.
<mgrwt>
<rscale>  0 0.93636693E+03</rscale>
<asrwt>0</asrwt>
<pdfrwt beam="1">  1        1 0.81436899E-01 0.93636693E+03</pdfrwt>
<pdfrwt beam="2">  1       -1 0.63706567E-01 0.93636693E+03</pdfrwt>
<totfact> 0.10295821E+02</totfact>
</mgrwt>
</event>
<event>
 6    1  0.8968082E-007  0.4244043E+04  0.7818608E-02  0.7957047E-01
         -2   -1    0    0    0  501 -0.00000000000E+00  0.00000000000E+00  0.15011072984E+04  0.15011072984E+04  0.00000000000E+00 0.  1.
          2   -1    0    0  501    0  0.00000000000E+00 -0.00000000000E+00 -0.29997691734E+04  0.29997691734E+04  0.00000000000E+00 0. -1.
         23    2    1    2    0    0 -0.18111649139E+04  0.22130471610E+03  0.39716495552E+03  0.18696308554E+04  0.92116289710E+02 0.  0.
         13    1    3    3    0    0 -0.20198768549E+03 -0.33747286488E+01  0.36273581667E+02  0.20524664823E+03  0.00000000000E+00 0. -1.
        -13    1    3    3    0    0 -0.16091772284E+04  0.22467944475E+03  0.36089137386E+03  0.16643842072E+04  0.00000000000E+00 0.  1.
         22    1    1    2    0    0  0.18111649139E+04 -0.22130471610E+03 -0.18958268305E+04  0.26312456164E+04  0.00000000000E+00 0. -1.
<mgrwt>
<rscale>  0 0.42440431E+04</rscale>
<asrwt>0</asrwt>
<pdfrwt beam="1">  1        2 0.46150294E+00 0.42440431E+04</pdfrwt>
<pdfrwt beam="2">  1       -2 0.23093959E+00 0.42440431E+04</pdfrwt>
<totfact> 0.11357538E-01</totfact>
</mgrwt>
</event>
<event>
 6    1  0.1360022E-006  0.4664334E+04  0.7818608E-02  0.7882482E-01
         -2   -1    0    0    0  501 -0.00000000000E+00  0.00000000000E+00  0.24241797431E+04  0.24241797431E+04  0.00000000000E+00 0.  1.
          2   -1    0    0  501    0  0.00000000000E+00 -0.00000000000E+00 -0.22436467395E+04  0.22436467395E+04  0.00000000000E+00 0. -1.
         23    2    1    2    0    0  0.20195344861E+04  0.91693582551E+03  0.80887435522E+03  0.23625925025E+04  0.90965716892E+02 0.  0.
         11    1    3    3    0    0  0.56859315177E+03  0.23391089263E+03  0.26079512450E+03  0.66785221037E+03  0.00000000000E+00 0. -1.
        -11    1    3    3    0    0  0.14509413344E+04  0.68302493288E+03  0.54807923073E+03  0.16947402921E+04  0.00000000000E+00 0.  1.
         22    1    1    2    0    0 -0.20195344861E+04 -0.91693582551E+03 -0.62834135170E+03  0.23052339801E+04  0.00000000000E+00 0. -1.
<mgrwt>
<rscale>  0 0.46643340E+04</rscale>
<asrwt>0</asrwt>
<pdfrwt beam="1">  1        2 0.34517642E+00 0.46643340E+04</pdfrwt>
<pdfrwt beam="2">  1       -2 0.37295073E+00 0.46643340E+04</pdfrwt>
<totfact> 0.40555743E-02</totfact>
</mgrwt>
</event>
<event>
 6    1  0.8968082E-007  0.3499979E+04  0.7818608E-02  0.8113795E-01
          1   -1    0    0  501    0  0.00000000000E+00  0.00000000000E+00  0.15896185568E+04  0.15896185568E+04  0.00000000000E+00 0. -1.
         -1   -1    0    0    0  501 -0.00000000000E+00 -0.00000000000E+00 -0.19265397179E+04  0.19265397179E+04  0.00000000000E+00 0.  1.
         23    2    1    2    0    0  0.14597138354E+04 -0.85068319593E+03  0.28505881519E+03  0.17158012345E+04  0.91043763459E+02 0.  0.
         13    1    3    3    0    0  0.33203174043E+03 -0.23825800551E+03  0.64150863411E+02  0.41367534023E+03  0.00000000000E+00 0. -1.
        -13    1    3    3    0    0  0.11276820950E+04 -0.61242519042E+03  0.22090795178E+03  0.13021258942E+04  0.00000000000E+00 0.  1.
         22    1    1    2    0    0 -0.14597138354E+04  0.85068319593E+03 -0.62197997634E+03  0.18003570402E+04  0.00000000000E+00 0.  1.
<mgrwt>
<rscale>  0 0.34999790E+04</rscale>
<asrwt>0</asrwt>
<pdfrwt beam="1">  1        1 0.24455670E+00 0.34999790E+04</pdfrwt>
<pdfrwt beam="2">  1       -1 0.29639073E+00 0.34999790E+04</pdfrwt>
<totfact> 0.16128085E-01</totfact>
</mgrwt>
</event>
<event>
 6    1  0.8968082E-007  0.2269531E+04  0.7818608E-02  0.8490033E-01
          2   -1    0    0  501    0  0.00000000000E+00  0.00000000000E+00  0.34672275447E+04  0.34672275447E+04  0.00000000000E+00 0. -1.
         -2   -1    0    0    0  501 -0.00000000000E+00 -0.00000000000E+00 -0.37138963594E+03  0.37138963594E+03  0.00000000000E+00 0.  1.
         23    2    1    2    0    0 -0.70886918084E+03  0.87792322731E+03  0.17225286485E+04  0.20611968497E+04  0.90458828161E+02 0.  0.
         13    1    3    3    0    0 -0.31696000940E+03  0.37598905908E+03  0.67179058012E+03  0.83254669758E+03  0.00000000000E+00 0. -1.
        -13    1    3    3    0    0 -0.39190917144E+03  0.50193416823E+03  0.10507380684E+04  0.12286501521E+04  0.00000000000E+00 0.  1.
         22    1    1    2    0    0  0.70886918084E+03 -0.87792322731E+03  0.13733092602E+04  0.17774203309E+04  0.00000000000E+00 0.  1.
<mgrwt>
<rscale>  0 0.22695307E+04</rscale>
<asrwt>0</asrwt>
<pdfrwt beam="1">  1        2 0.53341960E+00 0.22695307E+04</pdfrwt>
<pdfrwt beam="2">  1       -2 0.57136869E-01 0.22695307E+04</pdfrwt>
<totfact> 0.22421849E+00</totfact>
</mgrwt>
</event>
<event>
 6    1  0.8968082E-007  0.1227254E+04  0.7818608E-02  0.9089330E-01
          1   -1    0    0  501    0  0.00000000000E+00  0.00000000000E+00  0.38780749834E+03  0.38780749834E+03  0.00000000000E+00 0. -1.
         -1   -1    0    0    0  501 -0.00000000000E+00 -0.00000000000E+00 -0.97094017332E+03  0.97094017332E+03  0.00000000000E+00 0.  1.
         23    2    1    2    0    0 -0.26065694049E+02 -0.18623082855E+03  0.34968784741E+03  0.40716190627E+03  0.90210228791E+02 0.  0.
         11    1    3    3    0    0 -0.23932308834E+02 -0.95061655083E+02  0.26561634614E+03  0.28312809294E+03  0.00000000000E+00 0. -1.
        -11    1    3    3    0    0 -0.21333852156E+01 -0.91169173467E+02  0.84071501273E+02  0.12403381333E+03  0.00000000000E+00 0.  1.
         22    1    1    2    0    0  0.26065694049E+02  0.18623082855E+03 -0.93282052239E+03  0.95158576539E+03  0.00000000000E+00 0.  1.
<mgrwt>
<rscale>  0 0.12272536E+04</rscale>
<asrwt>0</asrwt>
<pdfrwt beam="1">  1        1 0.59662693E-01 0.12272536E+04</pdfrwt>
<pdfrwt beam="2">  1       -1 0.14937541E+00 0.12272536E+04</pdfrwt>
<totfact> 0.21793682E+01</totfact>
</mgrwt>
</event>
<event>
 6    1  0.8968082E-007  0.3465425E+04  0.7818608E-02  0.8122033E-01
         -2   -1    0    0    0  501 -0.00000000000E+00  0.00000000000E+00  0.10313141555E+04  0.10313141555E+04  0.00000000000E+00 0.  1.
          2   -1    0    0  501    0  0.00000000000E+00 -0.00000000000E+00 -0.29111323500E+04  0.29111323500E+04  0.00000000000E+00 0. -1.
         23    2    1    2    0    0 -0.62926497563E+03  0.94179154136E+03 -0.24304673474E+04  0.26830179817E+04  0.92023074740E+02 0.  0.
         13    1    3    3    0    0 -0.25290941727E+03  0.44911919172E+03 -0.11594379748E+04  0.12688450020E+04  0.00000000000E+00 0. -1.
        -13    1    3    3    0    0 -0.37635555835E+03  0.49267234964E+03 -0.12710293726E+04  0.14141729797E+04  0.00000000000E+00 0.  1.
         22    1    1    2    0    0  0.62926497563E+03 -0.94179154136E+03  0.55064915300E+03  0.12594285238E+04  0.00000000000E+00 0.  1.
<mgrwt>
<rscale>  0 0.34654246E+04</rscale>
<asrwt>0</asrwt>
<pdfrwt beam="1">  1        2 0.44786651E+00 0.34654246E+04</pdfrwt>
<pdfrwt beam="2">  1       -2 0.15866372E+00 0.34654246E+04</pdfrwt>
<totfact> 0.41970767E-01</totfact>
</mgrwt>
</event>
<event>
 6    1  0.8968082E-007  0.1783953E+04  0.7818608E-02  0.8714880E-01
         -2   -1    0    0    0  501 -0.00000000000E+00  0.00000000000E+00  0.11029507346E+04  0.11029507346E+04  0.00000000000E+00 0.  1.
          2   -1    0    0  501    0  0.00000000000E+00 -0.00000000000E+00 -0.72135814352E+03  0.72135814352E+03  0.00000000000E+00 0. -1.
         23    2    1    2    0    0  0.21300663085E+03 -0.81970168760E+03  0.46972764904E+03  0.97280992345E+03  0.91828108195E+02 0.  0.
         11    1    3    3    0    0  0.10758345024E+02 -0.19084361045E+03  0.97555431603E+02  0.21460216185E+03  0.00000000000E+00 0. -1.
        -11    1    3    3    0    0  0.20224828582E+03 -0.62885807715E+03  0.37217221744E+03  0.75820776160E+03  0.00000000000E+00 0.  1.
         22    1    1    2    0    0 -0.21300663085E+03  0.81970168760E+03 -0.88135057925E+02  0.85149895471E+03  0.00000000000E+00 0. -1.
<mgrwt>
<rscale>  0 0.17839535E+04</rscale>
<asrwt>0</asrwt>
<pdfrwt beam="1">  1        2 0.11097818E+00 0.17839535E+04</pdfrwt>
<pdfrwt beam="2">  1       -2 0.16968473E+00 0.17839535E+04</pdfrwt>
<totfact> 0.79804416E+00</totfact>
</mgrwt>
</event>
<event>
 6    1  0.8968082E-007  0.6332631E+04  0.7818608E-02  0.7650474E-01
         -1   -1    0    0    0  501 -0.00000000000E+00  0.00000000000E+00  0.36248439155E+04  0.36248439155E+04  0.00000000000E+00 0.  1.
          1   -1    0    0  501    0  0.00000000000E+00 -0.00000000000E+00 -0.27657890340E+04  0.27657890340E+04  0.00000000000E+00 0. -1.
         23    2    1    2    0    0 -0.20994244633E+04  0.22756021662E+04 -0.23678748352E+03  0.31063036748E+04  0.84296570374E+02 0.  0.
         13    1    3    3    0    0 -0.11303035272E+04  0.12793794099E+04 -0.11031645862E+03  0.17107213272E+04  0.00000000000E+00 0.  1.
        -13    1    3    3    0    0 -0.96912093607E+03  0.99622275625E+03 -0.12647102490E+03  0.13955823476E+04  0.00000000000E+00 0. -1.
         22    1    1    2    0    0  0.20994244633E+04 -0.22756021662E+04  0.10958423649E+04  0.32843292747E+04  0.00000000000E+00 0. -1.
<mgrwt>
<rscale>  0 0.63326309E+04</rscale>
<asrwt>0</asrwt>
<pdfrwt beam="1">  1        1 0.42550600E+00 0.63326309E+04</pdfrwt>
<pdfrwt beam="2">  1       -1 0.55766830E+00 0.63326309E+04</pdfrwt>
<totfact> 0.40135019E-04</totfact>
</mgrwt>
</event>
<event>
 6    1  0.1122537E-006  0.3896029E+04  0.7818608E-02  0.8025856E-01
         -2   -1    0    0    0  501 -0.00000000000E+00  0.00000000000E+00  0.21898477321E+04  0.21898477321E+04  0.00000000000E+00 0.  1.
          2   -1    0    0  501    0  0.00000000000E+00 -0.00000000000E+00 -0.17328880941E+04  0.17328880941E+04  0.00000000000E+00 0. -1.
         23    2    1    2    0    0  0.11110365042E+04  0.41905090760E+03  0.17822593626E+04  0.21432906496E+04  0.85091693080E+02 0.  0.
         11    1    3    3    0    0  0.56541162493E+03  0.17852486288E+03  0.83917810853E+03  0.10275122044E+04  0.00000000000E+00 0. -1.
        -11    1    3    3    0    0  0.54562487925E+03  0.24052604472E+03  0.94308125408E+03  0.11157784452E+04  0.00000000000E+00 0.  1.
         22    1    1    2    0    0 -0.11110365042E+04 -0.41905090760E+03 -0.13252997246E+04  0.17794451766E+04  0.00000000000E+00 0. -1.
<mgrwt>
<rscale>  0 0.38960293E+04</rscale>
<asrwt>0</asrwt>
<pdfrwt beam="1">  1        2 0.26659817E+00 0.38960293E+04</pdfrwt>
<pdfrwt beam="2">  1       -2 0.33689965E+00 0.38960293E+04</pdfrwt>
<totfact> 0.14060552E-01</totfact>
</mgrwt>
</event>
<event>
 6    1  0.8968082E-007  0.1296299E+04  0.7818608E-02  0.9032505E-01
         -3   -1    0    0    0  501 -0.00000000000E+00  0.00000000000E+00  0.12249765540E+04  0.12249765540E+04  0.00000000000E+00 0.  1.
          3   -1    0    0  501    0  0.00000000000E+00 -0.00000000000E+00 -0.34294335605E+03  0.34294335605E+03  0.00000000000E+00 0. -1.
         23    2    1    2    0    0  0.25478391762E+02  0.43084228949E+03 -0.13580442529E+03  0.46235776609E+03  0.95171608571E+02 0.  0.
         11    1    3    3    0    0  0.46433521530E+02  0.40924616747E+03 -0.12653616937E+03  0.43087109402E+03  0.00000000000E+00 0. -1.
        -11    1    3    3    0    0 -0.20955129768E+02  0.21596122021E+02 -0.92682559213E+01  0.31486672065E+02  0.00000000000E+00 0.  1.
         22    1    1    2    0    0 -0.25478391762E+02 -0.43084228949E+03  0.10178376232E+04  0.11055621439E+04  0.00000000000E+00 0.  1.
<mgrwt>
<rscale>  0 0.12962987E+04</rscale>
<asrwt>0</asrwt>
<pdfrwt beam="1">  1        3 0.52760517E-01 0.12962987E+04</pdfrwt>
<pdfrwt beam="2">  1       -3 0.18845793E+00 0.12962987E+04</pdfrwt>
<totfact> 0.15865000E+00</totfact>
</mgrwt>
</event>
<event>
 6    1  0.8968082E-007  0.3822214E+04  0.7818608E-02  0.8041405E-01
          1   -1    0    0  501    0  0.00000000000E+00  0.00000000000E+00  0.38964182580E+04  0.38964182580E+04  0.00000000000E+00 0. -1.
         -1   -1    0    0    0  501 -0.00000000000E+00 -0.00000000000E+00 -0.93735567437E+03  0.93735567437E+03  0.00000000000E+00 0.  1.
         23    2    1    2    0    0  0.57457630910E+02  0.11249799645E+04 -0.47031334957E+03  0.12241339793E+04  0.91804425845E+02 0.  0.
         11    1    3    3    0    0 -0.11687005540E+02  0.64943759823E+03 -0.26245345864E+03  0.70056234415E+03  0.00000000000E+00 0.  1.
        -11    1    3    3    0    0  0.69144636450E+02  0.47554236624E+03 -0.20785989093E+03  0.52357163511E+03  0.00000000000E+00 0. -1.
         22    1    1    2    0    0 -0.57457630910E+02 -0.11249799645E+04  0.34293759332E+04  0.36096399531E+04  0.00000000000E+00 0. -1.
<mgrwt>
<rscale>  0 0.38222139E+04</rscale>
<asrwt>0</asrwt>
<pdfrwt beam="1">  1        1 0.59944895E+00 0.38222139E+04</pdfrwt>
<pdfrwt beam="2">  1       -1 0.14420857E+00 0.38222139E+04</pdfrwt>
<totfact> 0.36249034E-02</totfact>
</mgrwt>
</event>
<event>
 6    1  0.8968082E-007  0.2507983E+04  0.7818608E-02  0.8400147E-01
         -2   -1    0    0    0  501 -0.00000000000E+00  0.00000000000E+00  0.66323500130E+03  0.66323500130E+03  0.00000000000E+00 0.  1.
          2   -1    0    0  501    0  0.00000000000E+00 -0.00000000000E+00 -0.23709462417E+04  0.23709462417E+04  0.00000000000E+00 0. -1.
         23    2    1    2    0    0  0.68376803120E+03  0.55813084879E+03 -0.19298430805E+04  0.21240211915E+04  0.90127364008E+02 0.  0.
         13    1    3    3    0    0  0.28077877197E+03  0.18924651614E+03 -0.81381781586E+03  0.88144789981E+03  0.00000000000E+00 0.  1.
        -13    1    3    3    0    0  0.40298925923E+03  0.36888433265E+03 -0.11160252646E+04  0.12425732917E+04  0.00000000000E+00 0. -1.
         22    1    1    2    0    0 -0.68376803120E+03 -0.55813084879E+03  0.22213184014E+03  0.91016005146E+03  0.00000000000E+00 0.  1.
<mgrwt>
<rscale>  0 0.25079829E+04</rscale>
<asrwt>0</asrwt>
<pdfrwt beam="1">  1        2 0.36476096E+00 0.25079829E+04</pdfrwt>
<pdfrwt beam="2">  1       -2 0.10203615E+00 0.25079829E+04</pdfrwt>
<totfact> 0.28980172E+00</totfact>
</mgrwt>
</event>
<event>
 6    1  0.8968082E-007  0.6069142E+04  0.7818608E-02  0.7681888E-01
         -2   -1    0    0    0  501 -0.00000000000E+00  0.00000000000E+00  0.30533838817E+04  0.30533838817E+04  0.00000000000E+00 0.  1.
          2   -1    0    0  501    0  0.00000000000E+00 -0.00000000000E+00 -0.30158740299E+04  0.30158740299E+04  0.00000000000E+00 0. -1.
         23    2    1    2    0    0  0.85614045031E+02  0.23436936470E+04  0.19433760014E+04  0.30472460890E+04  0.93641701064E+02 0.  0.
         13    1    3    3    0    0  0.73734932176E+01  0.12384691221E+04  0.99006377563E+03  0.15855870883E+04  0.00000000000E+00 0. -1.
        -13    1    3    3    0    0  0.78240551813E+02  0.11052245250E+04  0.95331222578E+03  0.14616590007E+04  0.00000000000E+00 0.  1.
         22    1    1    2    0    0 -0.85614045031E+02 -0.23436936470E+04 -0.19058661496E+04  0.30220118226E+04  0.00000000000E+00 0. -1.
<mgrwt>
<rscale>  0 0.60691420E+04</rscale>
<asrwt>0</asrwt>
<pdfrwt beam="1">  1        2 0.46398062E+00 0.60691420E+04</pdfrwt>
<pdfrwt beam="2">  1       -2 0.46975137E+00 0.60691420E+04</pdfrwt>
<totfact> 0.29520529E-03</totfact>
</mgrwt>
</event>
<event>
 6    1  0.8968082E-007  0.7142889E+03  0.7818608E-02  0.9693103E-01
         -2   -1    0    0    0  501 -0.00000000000E+00  0.00000000000E+00  0.11530111142E+03  0.11530111142E+03  0.00000000000E+00 0.  1.
          2   -1    0    0  501    0  0.00000000000E+00 -0.00000000000E+00 -0.11062527840E+04  0.11062527840E+04  0.00000000000E+00 0. -1.
         23    2    1    2    0    0 -0.25843739120E+03  0.10829533228E+03 -0.14087105102E+03  0.32648136913E+03  0.90706489338E+02 0.  0.
         11    1    3    3    0    0 -0.15318729261E+03  0.47779763641E+02 -0.12628954033E+03  0.20420161711E+03  0.00000000000E+00 0. -1.
        -11    1    3    3    0    0 -0.10525009859E+03  0.60515568637E+02 -0.14581510685E+02  0.12227975202E+03  0.00000000000E+00 0.  1.
         22    1    1    2    0    0  0.25843739120E+03 -0.10829533228E+03 -0.85008062152E+03  0.89507252625E+03  0.00000000000E+00 0. -1.
<mgrwt>
<rscale>  0 0.71428895E+03</rscale>
<asrwt>0</asrwt>
<pdfrwt beam="1">  1        2 0.17019273E+00 0.71428895E+03</pdfrwt>
<pdfrwt beam="2">  1       -2 0.17738633E-01 0.71428895E+03</pdfrwt>
<totfact> 0.57233263E+02</totfact>
</mgrwt>
</event>
<event>
 6    1  0.8968082E-007  0.1241356E+04  0.7818608E-02  0.9077408E-01
          2   -1    0    0  501    0  0.00000000000E+00  0.00000000000E+00  0.23804669709E+04  0.23804669709E+04  0.00000000000E+00 0. -1.
         -2   -1    0    0    0  501 -0.00000000000E+00 -0.00000000000E+00 -0.16183427861E+03  0.16183427861E+03  0.00000000000E+00 0.  1.
         23    2    1    2    0    0 -0.12014027329E+02  0.54127561267E+03  0.17217907773E+04  0.18074709873E+04  0.96251044757E+02 0.  0.
         11    1    3    3    0    0 -0.29638904926E+02  0.13478331842E+03  0.55008771486E+03  0.56713446523E+03  0.00000000000E+00 0. -1.
        -11    1    3    3    0    0  0.17624877597E+02  0.40649229425E+03  0.11717030624E+04  0.12403365221E+04  0.00000000000E+00 0.  1.
         22    1    1    2    0    0  0.12014027329E+02 -0.54127561267E+03  0.49684191506E+03  0.73483026223E+03  0.00000000000E+00 0.  1.
<mgrwt>
<rscale>  0 0.12413560E+04</rscale>
<asrwt>0</asrwt>
<pdfrwt beam="1">  1        2 0.36622566E+00 0.12413560E+04</pdfrwt>
<pdfrwt beam="2">  1       -2 0.24897583E-01 0.12413560E+04</pdfrwt>
<totfact> 0.58269292E+01</totfact>
</mgrwt>
</event>
<event>
 6    1  0.8968082E-007  0.1428097E+04  0.7818608E-02  0.8933728E-01
          1   -1    0    0  501    0  0.00000000000E+00  0.00000000000E+00  0.73588576727E+03  0.73588576727E+03  0.00000000000E+00 0. -1.
         -1   -1    0    0    0  501 -0.00000000000E+00 -0.00000000000E+00 -0.69285911582E+03  0.69285911582E+03  0.00000000000E+00 0.  1.
         23    2    1    2    0    0 -0.61698140604E+03  0.22175103594E+03 -0.25021461829E+03  0.71053180912E+03  0.11139353316E+03 0.  0.
         11    1    3    3    0    0 -0.30167568012E+03  0.51555812737E+02 -0.99502521642E+02  0.32181822450E+03  0.00000000000E+00 0. -1.
        -11    1    3    3    0    0 -0.31530572591E+03  0.17019522321E+03 -0.15071209665E+03  0.38871358463E+03  0.00000000000E+00 0.  1.
         22    1    1    2    0    0  0.61698140604E+03 -0.22175103594E+03  0.29324126974E+03  0.71821307397E+03  0.00000000000E+00 0. -1.
<mgrwt>
<rscale>  0 0.14280969E+04</rscale>
<asrwt>0</asrwt>
<pdfrwt beam="1">  1        1 0.11321320E+00 0.14280969E+04</pdfrwt>
<pdfrwt beam="2">  1       -1 0.10659371E+00 0.14280969E+04</pdfrwt>
<totfact> 0.20181629E+01</totfact>
</mgrwt>
</event>
<event>
 6    1  0.8968082E-007  0.1774220E+04  0.7818608E-02  0.8720130E-01
          2   -1    0    0  501    0  0.00000000000E+00  0.00000000000E+00  0.34153633563E+04  0.34153633563E+04  0.00000000000E+00 0. -1.
         -2   -1    0    0    0  501 -0.00000000000E+00 -0.00000000000E+00 -0.23041882917E+03  0.23041882917E+03  0.00000000000E+00 0.  1.
         23    2    1    2    0    0  0.87180306264E+03  0.15007784150E+03  0.16228512841E+04  0.18505943851E+04  0.92137665813E+02 0.  0.
         13    1    3    3    0    0  0.80706205502E+03  0.11360695693E+03  0.14800027800E+04  0.16895750739E+04  0.00000000000E+00 0.  1.
        -13    1    3    3    0    0  0.64741007621E+02  0.36470884572E+02  0.14284850408E+03  0.16101931128E+03  0.00000000000E+00 0. -1.
         22    1    1    2    0    0 -0.87180306264E+03 -0.15007784150E+03  0.15620932431E+04  0.17951878004E+04  0.00000000000E+00 0.  1.
<mgrwt>
<rscale>  0 0.17742199E+04</rscale>
<asrwt>0</asrwt>
<pdfrwt beam="1">  1        2 0.52544048E+00 0.17742199E+04</pdfrwt>
<pdfrwt beam="2">  1       -2 0.35449053E-01 0.17742199E+04</pdfrwt>
<totfact> 0.66325049E+00</totfact>
</mgrwt>
</event>
<event>
 6    1  0.8968082E-007  0.1864861E+04  0.7818608E-02  0.8672548E-01
          2   -1    0    0  501    0  0.00000000000E+00  0.00000000000E+00  0.22686037635E+04  0.22686037635E+04  0.00000000000E+00 0. -1.
         -2   -1    0    0    0  501 -0.00000000000E+00 -0.00000000000E+00 -0.38324309220E+03  0.38324309220E+03  0.00000000000E+00 0.  1.
         23    2    1    2    0    0 -0.54767148377E+02 -0.83821751617E+03  0.37526273028E+03  0.92384111599E+03  0.83977651246E+02 0.  0.
         11    1    3    3    0    0  0.77598263251E+01 -0.50582057353E+03  0.21845759880E+03  0.55103392816E+03  0.00000000000E+00 0. -1.
        -11    1    3    3    0    0 -0.62526974702E+02 -0.33239694264E+03  0.15680513148E+03  0.37280718783E+03  0.00000000000E+00 0.  1.
         22    1    1    2    0    0  0.54767148377E+02  0.83821751617E+03  0.15100979410E+04  0.17280057397E+04  0.00000000000E+00 0.  1.
<mgrwt>
<rscale>  0 0.18648611E+04</rscale>
<asrwt>0</asrwt>
<pdfrwt beam="1">  1        2 0.34901596E+00 0.18648611E+04</pdfrwt>
<pdfrwt beam="2">  1       -2 0.58960477E-01 0.18648611E+04</pdfrwt>
<totfact> 0.11925171E+01</totfact>
</mgrwt>
</event>
<event>
 6    1  0.8968082E-007  0.4646185E+03  0.7818608E-02  0.1023450E+00
          2   -1    0    0  501    0  0.00000000000E+00  0.00000000000E+00  0.27053504782E+03  0.27053504782E+03  0.00000000000E+00 0. -1.
         -2   -1    0    0    0  501 -0.00000000000E+00 -0.00000000000E+00 -0.19948468655E+03  0.19948468655E+03  0.00000000000E+00 0.  1.
         23    2    1    2    0    0  0.27188422432E+02  0.69374157117E+02  0.24990921940E+03  0.27626092780E+03  0.91178387249E+02 0.  0.
         11    1    3    3    0    0  0.50084115606E+02  0.78041002479E+02  0.20782129216E+03  0.22757088166E+03  0.00000000000E+00 0. -1.
        -11    1    3    3    0    0 -0.22895693175E+02 -0.86668453623E+01  0.42087927237E+02  0.48690046144E+02  0.00000000000E+00 0.  1.
         22    1    1    2    0    0 -0.27188422432E+02 -0.69374157117E+02 -0.17885885813E+03  0.19375880657E+03  0.00000000000E+00 0.  1.
<mgrwt>
<rscale>  0 0.46461855E+03</rscale>
<asrwt>0</asrwt>
<pdfrwt beam="1">  1        2 0.41620777E-01 0.46461855E+03</pdfrwt>
<pdfrwt beam="2">  1       -2 0.30689952E-01 0.46461855E+03</pdfrwt>
<totfact> 0.12085680E+03</totfact>
</mgrwt>
</event>
<event>
 6    1  0.8968082E-007  0.3483337E+04  0.7818608E-02  0.8117750E-01
         -2   -1    0    0    0  501 -0.00000000000E+00  0.00000000000E+00  0.10664656191E+04  0.10664656191E+04  0.00000000000E+00 0.  1.
          2   -1    0    0  501    0  0.00000000000E+00 -0.00000000000E+00 -0.28443574509E+04  0.28443574509E+04  0.00000000000E+00 0. -1.
         23    2    1    2    0    0 -0.38058973581E+03 -0.16641020079E+04 -0.12704544804E+04  0.21299309607E+04  0.92017775077E+02 0.  0.
         13    1    3    3    0    0 -0.30041220538E+03 -0.11209825632E+04 -0.86057009491E+03  0.14447942028E+04  0.00000000000E+00 0.  1.
        -13    1    3    3    0    0 -0.80177530425E+02 -0.54311944471E+03 -0.40988438545E+03  0.68513675791E+03  0.00000000000E+00 0. -1.
         22    1    1    2    0    0  0.38058973581E+03  0.16641020079E+04 -0.50743735147E+03  0.17808921094E+04  0.00000000000E+00 0. -1.
<mgrwt>
<rscale>  0 0.34833372E+04</rscale>
<asrwt>0</asrwt>
<pdfrwt beam="1">  1        2 0.43759346E+00 0.34833372E+04</pdfrwt>
<pdfrwt beam="2">  1       -2 0.16407163E+00 0.34833372E+04</pdfrwt>
<totfact> 0.42027368E-01</totfact>
</mgrwt>
</event>
<event>
 6    1  0.8968082E-007  0.2501759E+04  0.7818608E-02  0.8402359E-01
         -1   -1    0    0    0  501 -0.00000000000E+00  0.00000000000E+00  0.28449397730E+04  0.28449397730E+04  0.00000000000E+00 0.  1.
          1   -1    0    0  501    0  0.00000000000E+00 -0.00000000000E+00 -0.54999382232E+03  0.54999382232E+03  0.00000000000E+00 0. -1.
         23    2    1    2    0    0  0.91191518664E+03 -0.53728614206E+03  0.20493136570E+04  0.23083789810E+04  0.93066370091E+02 0.  0.
         11    1    3    3    0    0  0.24280794960E+03 -0.11120910834E+03  0.58269136915E+03  0.64097768904E+03  0.00000000000E+00 0. -1.
        -11    1    3    3    0    0  0.66910723705E+03 -0.42607703372E+03  0.14666222878E+04  0.16674012920E+04  0.00000000000E+00 0.  1.
         22    1    1    2    0    0 -0.91191518664E+03  0.53728614206E+03  0.24563229365E+03  0.10865546143E+04  0.00000000000E+00 0. -1.
<mgrwt>
<rscale>  0 0.25017588E+04</rscale>
<asrwt>0</asrwt>
<pdfrwt beam="1">  1        1 0.84614436E-01 0.25017588E+04</pdfrwt>
<pdfrwt beam="2">  1       -1 0.43768303E+00 0.25017588E+04</pdfrwt>
<totfact> 0.13554547E-01</totfact>
</mgrwt>
</event>
<event>
 6    1  0.8968082E-007  0.2474261E+04  0.7818608E-02  0.8412213E-01
          1   -1    0    0  501    0  0.00000000000E+00  0.00000000000E+00  0.14221033033E+04  0.14221033033E+04  0.00000000000E+00 0. -1.
         -1   -1    0    0    0  501 -0.00000000000E+00 -0.00000000000E+00 -0.10762173257E+04  0.10762173257E+04  0.00000000000E+00 0.  1.
         23    2    1    2    0    0  0.70305807850E+03  0.10026142642E+04  0.33673185116E+01  0.12267684058E+04  0.73643453246E+02 0.  0.
         13    1    3    3    0    0  0.41819088677E+03  0.57720789680E+03  0.36577418332E+02  0.71371596692E+03  0.00000000000E+00 0. -1.
        -13    1    3    3    0    0  0.28486719173E+03  0.42540636740E+03 -0.33210099820E+02  0.51305243892E+03  0.00000000000E+00 0.  1.
         22    1    1    2    0    0 -0.70305807850E+03 -0.10026142642E+04  0.34251865909E+03  0.12715522232E+04  0.00000000000E+00 0. -1.
<mgrwt>
<rscale>  0 0.24742613E+04</rscale>
<asrwt>0</asrwt>
<pdfrwt beam="1">  1        1 0.21878512E+00 0.24742613E+04</pdfrwt>
<pdfrwt beam="2">  1       -1 0.16557190E+00 0.24742613E+04</pdfrwt>
<totfact> 0.17516776E+00</totfact>
</mgrwt>
</event>
<event>
 6    1  0.8968082E-007  0.3720061E+04  0.7818608E-02  0.8063531E-01
         -2   -1    0    0    0  501 -0.00000000000E+00  0.00000000000E+00  0.62688222889E+03  0.62688222889E+03  0.00000000000E+00 0.  1.
          2   -1    0    0  501    0  0.00000000000E+00 -0.00000000000E+00 -0.55189202463E+04  0.55189202463E+04  0.00000000000E+00 0. -1.
         23    2    1    2    0    0  0.15467037602E+04 -0.66376199597E+03 -0.37511805166E+04  0.41124731004E+04  0.90593734735E+02 0.  0.
         11    1    3    3    0    0  0.87208767762E+03 -0.40610149632E+03 -0.22251411601E+04  0.24241923449E+04  0.00000000000E+00 0. -1.
        -11    1    3    3    0    0  0.67461608259E+03 -0.25766049964E+03 -0.15260393565E+04  0.16882807555E+04  0.00000000000E+00 0.  1.
         22    1    1    2    0    0 -0.15467037602E+04  0.66376199597E+03 -0.11408575009E+04  0.20333293748E+04  0.00000000000E+00 0.  1.
<mgrwt>
<rscale>  0 0.37200608E+04</rscale>
<asrwt>0</asrwt>
<pdfrwt beam="1">  1        2 0.84906469E+00 0.37200608E+04</pdfrwt>
<pdfrwt beam="2">  1       -2 0.96443415E-01 0.37200608E+04</pdfrwt>
<totfact> 0.39494712E-03</totfact>
</mgrwt>
</event>
<event>
 6    1  0.8968082E-007  0.5185399E+04  0.7818608E-02  0.7800527E-01
         -2   -1    0    0    0  501 -0.00000000000E+00  0.00000000000E+00  0.25775832093E+04  0.25775832093E+04  0.00000000000E+00 0.  1.
          2   -1    0    0  501    0  0.00000000000E+00 -0.00000000000E+00 -0.26079043839E+04  0.26079043839E+04  0.00000000000E+00 0. -1.
         23    2    1    2    0    0 -0.90513029887E+03  0.19987873249E+04  0.13644859209E+04  0.25855071199E+04  0.92809537505E+02 0.  0.
         13    1    3    3    0    0 -0.23410806679E+03  0.62019803802E+03  0.41334788220E+03  0.78122254513E+03  0.00000000000E+00 0.  1.
        -13    1    3    3    0    0 -0.67102223208E+03  0.13785892869E+04  0.95113803871E+03  0.18042845747E+04  0.00000000000E+00 0. -1.
         22    1    1    2    0    0  0.90513029887E+03 -0.19987873249E+04 -0.13948070954E+04  0.25999804733E+04  0.00000000000E+00 0.  1.
<mgrwt>
<rscale>  0 0.51853989E+04</rscale>
<asrwt>0</asrwt>
<pdfrwt beam="1">  1        2 0.40121606E+00 0.51853989E+04</pdfrwt>
<pdfrwt beam="2">  1       -2 0.39655126E+00 0.51853989E+04</pdfrwt>
<totfact> 0.16899033E-02</totfact>
</mgrwt>
</event>
<event>
 6    1  0.8968082E-007  0.1016990E+04  0.7818608E-02  0.9290105E-01
         -2   -1    0    0    0  501 -0.00000000000E+00  0.00000000000E+00  0.23611272177E+03  0.23611272177E+03  0.00000000000E+00 0.  1.
          2   -1    0    0  501    0  0.00000000000E+00 -0.00000000000E+00 -0.10950996564E+04  0.10950996564E+04  0.00000000000E+00 0. -1.
         23    2    1    2    0    0 -0.10513488595E+03 -0.46346272449E+03 -0.21179391095E+03  0.52827411706E+03  0.91464970402E+02 0.  0.
         11    1    3    3    0    0 -0.34251454642E+02 -0.39513728489E+02 -0.37968883024E+02  0.64623006447E+02  0.00000000000E+00 0.  1.
        -11    1    3    3    0    0 -0.70883431305E+02 -0.42394899600E+03 -0.17382502793E+03  0.46365111062E+03  0.00000000000E+00 0. -1.
         22    1    1    2    0    0  0.10513488595E+03  0.46346272449E+03 -0.64719302366E+03  0.80293826108E+03  0.00000000000E+00 0. -1.
<mgrwt>
<rscale>  0 0.10169896E+04</rscale>
<asrwt>0</asrwt>
<pdfrwt beam="1">  1        2 0.16847687E+00 0.10169896E+04</pdfrwt>
<pdfrwt beam="2">  1       -2 0.36325034E-01 0.10169896E+04</pdfrwt>
<totfact> 0.15591450E+02</totfact>
</mgrwt>
</event>
<event>
 6    1  0.1923483E-006  0.3042646E+04  0.7818608E-02  0.8231657E-01
          2   -1    0    0  501    0  0.00000000000E+00  0.00000000000E+00  0.18020483764E+04  0.18020483764E+04  0.00000000000E+00 0. -1.
         -2   -1    0    0    0  501 -0.00000000000E+00 -0.00000000000E+00 -0.12843291311E+04  0.12843291311E+04  0.00000000000E+00 0.  1.
         23    2    1    2    0    0  0.39589634034E+03 -0.38205900802E+03 -0.11781786789E+04  0.13034661896E+04  0.90642759935E+02 0.  0.
         11    1    3    3    0    0  0.19484011172E+03 -0.24748505245E+03 -0.69817933862E+03  0.76594119174E+03  0.00000000000E+00 0.  1.
        -11    1    3    3    0    0  0.20105622862E+03 -0.13457395557E+03 -0.47999934031E+03  0.53752499783E+03  0.00000000000E+00 0. -1.
         22    1    1    2    0    0 -0.39589634034E+03  0.38205900802E+03  0.16958979243E+04  0.17829113179E+04  0.00000000000E+00 0. -1.
<mgrwt>
<rscale>  0 0.30426457E+04</rscale>
<asrwt>0</asrwt>
<pdfrwt beam="1">  1        2 0.27723821E+00 0.30426457E+04</pdfrwt>
<pdfrwt beam="2">  1       -2 0.19758910E+00 0.30426457E+04</pdfrwt>
<totfact> 0.10128960E+00</totfact>
</mgrwt>
</event>
<event>
 6    1  0.8968082E-007  0.2826582E+04  0.7818608E-02  0.8295063E-01
          2   -1    0    0  501    0  0.00000000000E+00  0.00000000000E+00  0.36629195781E+04  0.36629195781E+04  0.00000000000E+00 0. -1.
         -2   -1    0    0    0  501 -0.00000000000E+00 -0.00000000000E+00 -0.54530055229E+03  0.54530055229E+03  0.00000000000E+00 0.  1.
         23    2    1    2    0    0 -0.24599878087E+03  0.13842741534E+04  0.17505214424E+04  0.22471780262E+04  0.93559762053E+02 0.  0.
         11    1    3    3    0    0 -0.20732800326E+03  0.10445438497E+04  0.13778460921E+04  0.17414122454E+04  0.00000000000E+00 0.  1.
        -11    1    3    3    0    0 -0.38670777603E+02  0.33973030371E+03  0.37267535030E+03  0.50576578079E+03  0.00000000000E+00 0. -1.
         22    1    1    2    0    0  0.24599878087E+03 -0.13842741534E+04  0.13670975834E+04  0.19610421042E+04  0.00000000000E+00 0.  1.
<mgrwt>
<rscale>  0 0.28265824E+04</rscale>
<asrwt>0</asrwt>
<pdfrwt beam="1">  1        2 0.56352607E+00 0.28265824E+04</pdfrwt>
<pdfrwt beam="2">  1       -2 0.83892395E-01 0.28265824E+04</pdfrwt>
<totfact> 0.66988687E-01</totfact>
</mgrwt>
</event>
<event>
 6    1  0.8968082E-007  0.1799408E+04  0.7818608E-02  0.8706614E-01
          4   -1    0    0  501    0  0.00000000000E+00  0.00000000000E+00  0.82031319749E+03  0.82031319749E+03  0.00000000000E+00 0. -1.
         -4   -1    0    0    0  501 -0.00000000000E+00 -0.00000000000E+00 -0.98677861482E+03  0.98677861482E+03  0.00000000000E+00 0.  1.
         23    2    1    2    0    0  0.30341494688E+03  0.72589330533E+03 -0.51706322829E+03  0.94575532420E+03  0.90094564166E+02 0.  0.
         13    1    3    3    0    0  0.24254812120E+03  0.56634592107E+03 -0.35897832068E+03  0.71305170088E+03  0.00000000000E+00 0. -1.
        -13    1    3    3    0    0  0.60866825684E+02  0.15954738425E+03 -0.15808490761E+03  0.23270362332E+03  0.00000000000E+00 0.  1.
         22    1    1    2    0    0 -0.30341494688E+03 -0.72589330533E+03  0.35059781095E+03  0.86133648811E+03  0.00000000000E+00 0. -1.
<mgrwt>
<rscale>  0 0.17994083E+04</rscale>
<asrwt>0</asrwt>
<pdfrwt beam="1">  1        4 0.12620203E+00 0.17994083E+04</pdfrwt>
<pdfrwt beam="2">  1       -4 0.15181210E+00 0.17994083E+04</pdfrwt>
<totfact> 0.25415607E-01</totfact>
</mgrwt>
</event>
<event>
 6    1  0.8968082E-007  0.1520788E+04  0.7818608E-02  0.8870746E-01
         -1   -1    0    0    0  501 -0.00000000000E+00  0.00000000000E+00  0.16271853278E+04  0.16271853278E+04  0.00000000000E+00 0.  1.
          1   -1    0    0  501    0  0.00000000000E+00 -0.00000000000E+00 -0.35533682824E+03  0.35533682824E+03  0.00000000000E+00 0. -1.
         23    2    1    2    0    0  0.23478068213E+03  0.20950478008E+03  0.15367019054E+04  0.15712296224E+04  0.91079957503E+02 0.  0.
         11    1    3    3    0    0  0.15639749188E+03  0.88402275837E+02  0.73381508769E+03  0.75548641335E+03  0.00000000000E+00 0.  1.
        -11    1    3    3    0    0  0.78383190250E+02  0.12110250424E+03  0.80288681774E+03  0.81574320907E+03  0.00000000000E+00 0. -1.
         22    1    1    2    0    0 -0.23478068213E+03 -0.20950478008E+03 -0.26485340589E+03  0.41129253359E+03  0.00000000000E+00 0. -1.
<mgrwt>
<rscale>  0 0.15207878E+04</rscale>
<asrwt>0</asrwt>
<pdfrwt beam="1">  1        1 0.54667205E-01 0.15207878E+04</pdfrwt>
<pdfrwt beam="2">  1       -1 0.25033620E+00 0.15207878E+04</pdfrwt>
<totfact> 0.47056289E+00</totfact>
</mgrwt>
</event>
<event>
 6    1  0.8968082E-007  0.2752442E+04  0.7818608E-02  0.8318187E-01
         -2   -1    0    0    0  501 -0.00000000000E+00  0.00000000000E+00  0.90341932155E+03  0.90341932155E+03  0.00000000000E+00 0.  1.
          2   -1    0    0  501    0  0.00000000000E+00 -0.00000000000E+00 -0.20964615095E+04  0.20964615095E+04  0.00000000000E+00 0. -1.
         23    2    1    2    0    0  0.97157608798E+03 -0.17405372090E+03  0.44563551157E+03  0.10868937962E+04  0.92153798696E+02 0.  0.
         11    1    3    3    0    0  0.94976985326E+03 -0.15603999035E+03  0.43873101379E+03  0.10577788782E+04  0.00000000000E+00 0.  1.
        -11    1    3    3    0    0  0.21806234726E+02 -0.18013730549E+02  0.69044977738E+01  0.29114918009E+02  0.00000000000E+00 0. -1.
         22    1    1    2    0    0 -0.97157608798E+03  0.17405372090E+03 -0.16386776995E+04  0.19129870348E+04  0.00000000000E+00 0. -1.
<mgrwt>
<rscale>  0 0.27524417E+04</rscale>
<asrwt>0</asrwt>
<pdfrwt beam="1">  1        2 0.32253254E+00 0.27524417E+04</pdfrwt>
<pdfrwt beam="2">  1       -2 0.13898759E+00 0.27524417E+04</pdfrwt>
<totfact> 0.18872053E+00</totfact>
</mgrwt>
</event>
<event>
 6    1  0.8968082E-007  0.3913853E+04  0.7818608E-02  0.8022154E-01
         -2   -1    0    0    0  501 -0.00000000000E+00  0.00000000000E+00  0.12314094905E+04  0.12314094905E+04  0.00000000000E+00 0.  1.
          2   -1    0    0  501    0  0.00000000000E+00 -0.00000000000E+00 -0.31099014256E+04  0.31099014256E+04  0.00000000000E+00 0. -1.
         23    2    1    2    0    0 -0.15114323319E+03  0.51611195261E+03 -0.30256189464E+04  0.30743791086E+04  0.90670118262E+02 0.  0.
         13    1    3    3    0    0 -0.92147361130E+02  0.27523039805E+03 -0.13814447138E+04  0.14116063210E+04  0.00000000000E+00 0. -1.
        -13    1    3    3    0    0 -0.58995872061E+02  0.24088155456E+03 -0.16441742326E+04  0.16627727877E+04  0.00000000000E+00 0.  1.
         22    1    1    2    0    0  0.15114323319E+03 -0.51611195261E+03  0.11471270113E+04  0.12669318074E+04  0.00000000000E+00 0.  1.
<mgrwt>
<rscale>  0 0.39138534E+04</rscale>
<asrwt>0</asrwt>
<pdfrwt beam="1">  1        2 0.47844637E+00 0.39138534E+04</pdfrwt>
<pdfrwt beam="2">  1       -2 0.18944761E+00 0.39138534E+04</pdfrwt>
<totfact> 0.18402080E-01</totfact>
</mgrwt>
</event>
<event>
 6    1  0.8968082E-007  0.1951416E+04  0.7818608E-02  0.8629678E-01
         -1   -1    0    0    0  501 -0.00000000000E+00  0.00000000000E+00  0.21006216141E+04  0.21006216141E+04  0.00000000000E+00 0.  1.
          1   -1    0    0  501    0  0.00000000000E+00 -0.00000000000E+00 -0.45320187663E+03  0.45320187663E+03  0.00000000000E+00 0. -1.
         23    2    1    2    0    0 -0.32591004412E+03  0.30473758766E+03  0.19586865552E+04  0.20097928059E+04  0.61088025891E+02 0.  0.
         13    1    3    3    0    0 -0.13701223893E+03  0.10235103212E+03  0.85293290513E+03  0.86990955165E+03  0.00000000000E+00 0. -1.
        -13    1    3    3    0    0 -0.18889780518E+03  0.20238655554E+03  0.11057536501E+04  0.11398832543E+04  0.00000000000E+00 0.  1.
         22    1    1    2    0    0  0.32591004412E+03 -0.30473758766E+03 -0.31126681775E+03  0.54403068482E+03  0.00000000000E+00 0. -1.
<mgrwt>
<rscale>  0 0.19514155E+04</rscale>
<asrwt>0</asrwt>
<pdfrwt beam="1">  1        1 0.69723367E-01 0.19514155E+04</pdfrwt>
<pdfrwt beam="2">  1       -1 0.32317255E+00 0.19514155E+04</pdfrwt>
<totfact> 0.11037051E+00</totfact>
</mgrwt>
</event>
<event>
 6    1  0.8968082E-007  0.2018843E+04  0.7818608E-02  0.8597861E-01
         -1   -1    0    0    0  501 -0.00000000000E+00  0.00000000000E+00  0.94215412330E+03  0.94215412330E+03  0.00000000000E+00 0.  1.
          1   -1    0    0  501    0  0.00000000000E+00 -0.00000000000E+00 -0.10814913239E+04  0.10814913239E+04  0.00000000000E+00 0. -1.
         23    2    1    2    0    0  0.79432402104E+03 -0.19918892163E+03  0.51715458032E+03  0.97407013531E+03  0.10361897349E+03 0.  0.
         11    1    3    3    0    0  0.43455204577E+03 -0.74177361544E+02  0.32344996864E+03  0.54677019273E+03  0.00000000000E+00 0. -1.
        -11    1    3    3    0    0  0.35977197527E+03 -0.12501156008E+03  0.19370461168E+03  0.42729994258E+03  0.00000000000E+00 0.  1.
         22    1    1    2    0    0 -0.79432402104E+03  0.19918892163E+03 -0.65649178089E+03  0.10495753119E+04  0.00000000000E+00 0. -1.
<mgrwt>
<rscale>  0 0.20188427E+04</rscale>
<asrwt>0</asrwt>
<pdfrwt beam="1">  1        1 0.16638328E+00 0.20188427E+04</pdfrwt>
<pdfrwt beam="2">  1       -1 0.14494679E+00 0.20188427E+04</pdfrwt>
<totfact> 0.46384891E+00</totfact>
</mgrwt>
</event>
<event>
 6    1  0.8968082E-007  0.1930581E+04  0.7818608E-02  0.8639782E-01
         -2   -1    0    0    0  501 -0.00000000000E+00  0.00000000000E+00  0.51587982010E+03  0.51587982010E+03  0.00000000000E+00 0.  1.
          2   -1    0    0  501    0  0.00000000000E+00 -0.00000000000E+00 -0.18062078807E+04  0.18062078807E+04  0.00000000000E+00 0. -1.
         23    2    1    2    0    0 -0.93736052139E+03 -0.14300713698E+03 -0.44521119363E+03  0.10519230236E+04  0.96089814302E+02 0.  0.
         11    1    3    3    0    0 -0.50250865645E+03 -0.47110509343E+02 -0.19447105467E+03  0.54088200284E+03  0.00000000000E+00 0. -1.
        -11    1    3    3    0    0 -0.43485186495E+03 -0.95896627633E+02 -0.25074013897E+03  0.51104102079E+03  0.00000000000E+00 0.  1.
         22    1    1    2    0    0  0.93736052139E+03  0.14300713698E+03 -0.84511686696E+03  0.12701646772E+04  0.00000000000E+00 0.  1.
<mgrwt>
<rscale>  0 0.19305815E+04</rscale>
<asrwt>0</asrwt>
<pdfrwt beam="1">  1        2 0.27787814E+00 0.19305815E+04</pdfrwt>
<pdfrwt beam="2">  1       -2 0.79366125E-01 0.19305815E+04</pdfrwt>
<totfact> 0.11254159E+01</totfact>
</mgrwt>
</event>
<event>
 6    1  0.8968082E-007  0.2229014E+04  0.7818608E-02  0.8506448E-01
          2   -1    0    0  501    0  0.00000000000E+00  0.00000000000E+00  0.14045059279E+04  0.14045059279E+04  0.00000000000E+00 0. -1.
         -2   -1    0    0    0  501 -0.00000000000E+00 -0.00000000000E+00 -0.88438610766E+03  0.88438610766E+03  0.00000000000E+00 0.  1.
         23    2    1    2    0    0 -0.14566026713E+03 -0.77576398509E+03 -0.54480490565E+03  0.96333881302E+03  0.90457777259E+02 0.  0.
         11    1    3    3    0    0 -0.40287504594E+02 -0.18741254161E+03 -0.18082651007E+03  0.26352375704E+03  0.00000000000E+00 0. -1.
        -11    1    3    3    0    0 -0.10537276254E+03 -0.58835144349E+03 -0.36397839558E+03  0.69981505599E+03  0.00000000000E+00 0.  1.
         22    1    1    2    0    0  0.14566026713E+03  0.77576398509E+03  0.10649247259E+04  0.13255532226E+04  0.00000000000E+00 0. -1.
<mgrwt>
<rscale>  0 0.22290137E+04</rscale>
<asrwt>0</asrwt>
<pdfrwt beam="1">  1        2 0.21607784E+00 0.22290137E+04</pdfrwt>
<pdfrwt beam="2">  1       -2 0.13605940E+00 0.22290137E+04</pdfrwt>
<totfact> 0.50732695E+00</totfact>
</mgrwt>
</event>
<event>
 6    1  0.8968082E-007  0.2164166E+04  0.7818608E-02  0.8533493E-01
          1   -1    0    0  501    0  0.00000000000E+00  0.00000000000E+00  0.22055838256E+04  0.22055838256E+04  0.00000000000E+00 0. -1.
         -1   -1    0    0    0  501 -0.00000000000E+00 -0.00000000000E+00 -0.53088161861E+03  0.53088161861E+03  0.00000000000E+00 0.  1.
         23    2    1    2    0    0  0.52418997471E+03  0.41524779928E+03 -0.23372414202E+03  0.71426441711E+03  0.91328082176E+02 0.  0.
         13    1    3    3    0    0  0.78564071480E+02  0.96515223283E+02 -0.19383959084E+02  0.12594935301E+03  0.00000000000E+00 0.  1.
        -13    1    3    3    0    0  0.44562590323E+03  0.31873257600E+03 -0.21434018294E+03  0.58831506410E+03  0.00000000000E+00 0. -1.
         22    1    1    2    0    0 -0.52418997471E+03 -0.41524779928E+03  0.19084263491E+04  0.20222010271E+04  0.00000000000E+00 0. -1.
<mgrwt>
<rscale>  0 0.21641663E+04</rscale>
<asrwt>0</asrwt>
<pdfrwt beam="1">  1        1 0.33932058E+00 0.21641663E+04</pdfrwt>
<pdfrwt beam="2">  1       -1 0.81674096E-01 0.21641663E+04</pdfrwt>
<totfact> 0.29469600E+00</totfact>
</mgrwt>
</event>
<event>
 6    1  0.8968082E-007  0.4598955E+04  0.7818608E-02  0.7893538E-01
          1   -1    0    0  501    0  0.00000000000E+00  0.00000000000E+00  0.34381243074E+04  0.34381243074E+04  0.00000000000E+00 0. -1.
         -1   -1    0    0    0  501 -0.00000000000E+00 -0.00000000000E+00 -0.15379308864E+04  0.15379308864E+04  0.00000000000E+00 0.  1.
         23    2    1    2    0    0 -0.20483098293E+04 -0.49460065200E+03  0.19445372606E+04  0.28684097450E+04  0.79663954277E+02 0.  0.
         13    1    3    3    0    0 -0.13937538608E+04 -0.35618315908E+03  0.13701383098E+04  0.19866291187E+04  0.00000000000E+00 0.  1.
        -13    1    3    3    0    0 -0.65455596844E+03 -0.13841749293E+03  0.57439895088E+03  0.88178062632E+03  0.00000000000E+00 0. -1.
         22    1    1    2    0    0  0.20483098293E+04  0.49460065200E+03 -0.44343839719E+02  0.21076454488E+04  0.00000000000E+00 0.  1.
<mgrwt>
<rscale>  0 0.45989553E+04</rscale>
<asrwt>0</asrwt>
<pdfrwt beam="1">  1        1 0.52894220E+00 0.45989553E+04</pdfrwt>
<pdfrwt beam="2">  1       -1 0.23660475E+00 0.45989553E+04</pdfrwt>
<totfact> 0.17760633E-02</totfact>
</mgrwt>
</event>
<event>
 6    1  0.8968082E-007  0.1752001E+04  0.7818608E-02  0.8732249E-01
          2   -1    0    0  501    0  0.00000000000E+00  0.00000000000E+00  0.11664686821E+04  0.11664686821E+04  0.00000000000E+00 0. -1.
         -2   -1    0    0    0  501 -0.00000000000E+00 -0.00000000000E+00 -0.65786349652E+03  0.65786349652E+03  0.00000000000E+00 0.  1.
         23    2    1    2    0    0 -0.47820624112E+03 -0.73094742981E+03  0.24316746926E+03  0.91141239278E+03  0.92610892592E+02 0.  0.
         13    1    3    3    0    0 -0.34064990468E+03 -0.49416461745E+03  0.12455482603E+03  0.61298852468E+03  0.00000000000E+00 0.  1.
        -13    1    3    3    0    0 -0.13755633644E+03 -0.23678281236E+03  0.11861264323E+03  0.29842386811E+03  0.00000000000E+00 0. -1.
         22    1    1    2    0    0  0.47820624112E+03  0.73094742981E+03  0.26543771636E+03  0.91291978588E+03  0.00000000000E+00 0.  1.
<mgrwt>
<rscale>  0 0.17520013E+04</rscale>
<asrwt>0</asrwt>
<pdfrwt beam="1">  1        2 0.17945672E+00 0.17520013E+04</pdfrwt>
<pdfrwt beam="2">  1       -2 0.10120977E+00 0.17520013E+04</pdfrwt>
<totfact> 0.15095816E+01</totfact>
</mgrwt>
</event>
<event>
 6    1  0.8968082E-007  0.5071276E+04  0.7818608E-02  0.7817605E-01
         -1   -1    0    0    0  501 -0.00000000000E+00  0.00000000000E+00  0.16274548672E+04  0.16274548672E+04  0.00000000000E+00 0.  1.
          1   -1    0    0  501    0  0.00000000000E+00 -0.00000000000E+00 -0.39506224152E+04  0.39506224152E+04  0.00000000000E+00 0. -1.
         23    2    1    2    0    0  0.19135746559E+04  0.10408703414E+04 -0.25876964088E+04  0.33837312410E+04  0.91024040789E+02 0.  0.
         13    1    3    3    0    0  0.98164235376E+03  0.48451376910E+03 -0.13204949517E+04  0.17152499003E+04  0.00000000000E+00 0.  1.
        -13    1    3    3    0    0  0.93193230211E+03  0.55635657230E+03 -0.12672014571E+04  0.16684813406E+04  0.00000000000E+00 0. -1.
         22    1    1    2    0    0 -0.19135746559E+04 -0.10408703414E+04  0.26452886080E+03  0.21943460414E+04  0.00000000000E+00 0.  1.
<mgrwt>
<rscale>  0 0.50712758E+04</rscale>
<asrwt>0</asrwt>
<pdfrwt beam="1">  1        1 0.60778806E+00 0.50712758E+04</pdfrwt>
<pdfrwt beam="2">  1       -1 0.25037767E+00 0.50712758E+04</pdfrwt>
<totfact> 0.52582033E-03</totfact>
</mgrwt>
</event>
<event>
 6    1  0.8968082E-007  0.1984053E+04  0.7818608E-02  0.8614113E-01
          1   -1    0    0  501    0  0.00000000000E+00  0.00000000000E+00  0.75266418388E+03  0.75266418388E+03  0.00000000000E+00 0. -1.
         -1   -1    0    0    0  501 -0.00000000000E+00 -0.00000000000E+00 -0.13075105385E+04  0.13075105385E+04  0.00000000000E+00 0.  1.
         23    2    1    2    0    0 -0.62197964693E+03  0.17457907892E+03 -0.10567887824E+04  0.12420777008E+04  0.92832905467E+02 0.  0.
         13    1    3    3    0    0 -0.30450552622E+03  0.12304713891E+03 -0.58920732800E+03  0.67455873670E+03  0.00000000000E+00 0. -1.
        -13    1    3    3    0    0 -0.31747412070E+03  0.51531940011E+02 -0.46758145435E+03  0.56751896410E+03  0.00000000000E+00 0.  1.
         22    1    1    2    0    0  0.62197964693E+03 -0.17457907892E+03  0.50194242772E+03  0.81809702159E+03  0.00000000000E+00 0. -1.
<mgrwt>
<rscale>  0 0.19840528E+04</rscale>
<asrwt>0</asrwt>
<pdfrwt beam="1">  1        1 0.11579449E+00 0.19840528E+04</pdfrwt>
<pdfrwt beam="2">  1       -1 0.20115547E+00 0.19840528E+04</pdfrwt>
<totfact> 0.33429200E+00</totfact>
</mgrwt>
</event>
<event>
 6    1  0.8968082E-007  0.2598807E+04  0.7818608E-02  0.8368606E-01
          2   -1    0    0  501    0  0.00000000000E+00  0.00000000000E+00  0.30653972066E+04  0.30653972066E+04  0.00000000000E+00 0. -1.
         -2   -1    0    0    0  501 -0.00000000000E+00 -0.00000000000E+00 -0.55080949723E+03  0.55080949723E+03  0.00000000000E+00 0.  1.
         23    2    1    2    0    0 -0.51856197764E+03 -0.36418147872E+03  0.28348253877E+04  0.29062159681E+04  0.91222806551E+02 0.  0.
         11    1    3    3    0    0 -0.37760140435E+03 -0.23029006361E+03  0.21031228896E+04  0.21491259206E+04  0.00000000000E+00 0. -1.
        -11    1    3    3    0    0 -0.14096057329E+03 -0.13389141511E+03  0.73170249810E+03  0.75709004748E+03  0.00000000000E+00 0.  1.
         22    1    1    2    0    0  0.51856197764E+03  0.36418147872E+03 -0.32023767838E+03  0.70999073568E+03  0.00000000000E+00 0.  1.
<mgrwt>
<rscale>  0 0.25988073E+04</rscale>
<asrwt>0</asrwt>
<pdfrwt beam="1">  1        2 0.47159956E+00 0.25988073E+04</pdfrwt>
<pdfrwt beam="2">  1       -2 0.84739925E-01 0.25988073E+04</pdfrwt>
<totfact> 0.16994258E+00</totfact>
</mgrwt>
</event>
<event>
 6    1  0.8968082E-007  0.1045846E+04  0.7818608E-02  0.9259643E-01
         -1   -1    0    0    0  501 -0.00000000000E+00  0.00000000000E+00  0.13859015577E+03  0.13859015577E+03  0.00000000000E+00 0.  1.
          1   -1    0    0  501    0  0.00000000000E+00 -0.00000000000E+00 -0.19730742781E+04  0.19730742781E+04  0.00000000000E+00 0. -1.
         23    2    1    2    0    0  0.38434869568E+03  0.34222100460E+03 -0.79043429779E+03  0.94767166243E+03  0.91956863756E+02 0.  0.
         13    1    3    3    0    0  0.15773998272E+03  0.14346867243E+03 -0.24752779433E+03  0.32670349108E+03  0.00000000000E+00 0.  1.
        -13    1    3    3    0    0  0.22660871296E+03  0.19875233216E+03 -0.54290650346E+03  0.62096817135E+03  0.00000000000E+00 0. -1.
         22    1    1    2    0    0 -0.38434869568E+03 -0.34222100460E+03 -0.10440498245E+04  0.11639927714E+04  0.00000000000E+00 0. -1.
<mgrwt>
<rscale>  0 0.10458464E+04</rscale>
<asrwt>0</asrwt>
<pdfrwt beam="1">  1        1 0.30354989E+00 0.10458464E+04</pdfrwt>
<pdfrwt beam="2">  1       -1 0.21321563E-01 0.10458464E+04</pdfrwt>
<totfact> 0.57280029E+01</totfact>
</mgrwt>
</event>
<event>
 6    1  0.8968082E-007  0.1664285E+04  0.7818608E-02  0.8782000E-01
         -1   -1    0    0    0  501 -0.00000000000E+00  0.00000000000E+00  0.19340165070E+03  0.19340165070E+03  0.00000000000E+00 0.  1.
          1   -1    0    0  501    0  0.00000000000E+00 -0.00000000000E+00 -0.35804318424E+04  0.35804318424E+04  0.00000000000E+00 0. -1.
         23    2    1    2    0    0 -0.74856364531E+03  0.45930505501E+02 -0.89400336213E+03  0.11704434118E+04  0.90766878948E+02 0.  0.
         13    1    3    3    0    0 -0.64814560281E+03  0.87401486408E+01 -0.77541708509E+03  0.10106635288E+04  0.00000000000E+00 0. -1.
        -13    1    3    3    0    0 -0.10041804250E+03  0.37190356860E+02 -0.11858627704E+03  0.15977988298E+03  0.00000000000E+00 0.  1.
         22    1    1    2    0    0  0.74856364531E+03 -0.45930505501E+02 -0.24930268296E+04  0.26033900813E+04  0.00000000000E+00 0. -1.
<mgrwt>
<rscale>  0 0.16642853E+04</rscale>
<asrwt>0</asrwt>
<pdfrwt beam="1">  1        1 0.55083563E+00 0.16642853E+04</pdfrwt>
<pdfrwt beam="2">  1       -1 0.29754102E-01 0.16642853E+04</pdfrwt>
<totfact> 0.21513138E+00</totfact>
</mgrwt>
</event>
<event>
 6    1  0.8968082E-007  0.1204259E+04  0.7818608E-02  0.9109137E-01
          2   -1    0    0  501    0  0.00000000000E+00  0.00000000000E+00  0.16557223107E+04  0.16557223107E+04  0.00000000000E+00 0. -1.
         -2   -1    0    0    0  501 -0.00000000000E+00 -0.00000000000E+00 -0.21897386794E+03  0.21897386794E+03  0.00000000000E+00 0.  1.
         23    2    1    2    0    0  0.45995168461E+03 -0.18753963384E+03  0.12426444112E+04  0.13414016619E+04  0.92014235994E+02 0.  0.
         11    1    3    3    0    0  0.39060463023E+03 -0.16823224040E+03  0.11334710862E+04  0.12106323832E+04  0.00000000000E+00 0.  1.
        -11    1    3    3    0    0  0.69347054384E+02 -0.19307393439E+02  0.10917332494E+03  0.13076927878E+03  0.00000000000E+00 0. -1.
         22    1    1    2    0    0 -0.45995168461E+03  0.18753963384E+03  0.19410403158E+03  0.53329451667E+03  0.00000000000E+00 0.  1.
<mgrwt>
<rscale>  0 0.12042590E+04</rscale>
<asrwt>0</asrwt>
<pdfrwt beam="1">  1        2 0.25472650E+00 0.12042590E+04</pdfrwt>
<pdfrwt beam="2">  1       -2 0.33688289E-01 0.12042590E+04</pdfrwt>
<totfact> 0.84357268E+01</totfact>
</mgrwt>
</event>
<event>
 6    1  0.8968082E-007  0.4535591E+04  0.7818608E-02  0.7904435E-01
         -2   -1    0    0    0  501 -0.00000000000E+00  0.00000000000E+00  0.37828969096E+04  0.37828969096E+04  0.00000000000E+00 0.  1.
          2   -1    0    0  501    0  0.00000000000E+00 -0.00000000000E+00 -0.13595125149E+04  0.13595125149E+04  0.00000000000E+00 0. -1.
         23    2    1    2    0    0  0.58051511252E+03 -0.13887613290E+04 -0.70956388852E+03  0.16666331414E+04  0.92354163288E+02 0.  0.
         11    1    3    3    0    0  0.28854154018E+03 -0.80873021059E+03 -0.40180253976E+03  0.94802218059E+03  0.00000000000E+00 0. -1.
        -11    1    3    3    0    0  0.29197357234E+03 -0.58003111837E+03 -0.30776134876E+03  0.71861096082E+03  0.00000000000E+00 0.  1.
         22    1    1    2    0    0 -0.58051511252E+03  0.13887613290E+04  0.31329482832E+04  0.34757762831E+04  0.00000000000E+00 0.  1.
<mgrwt>
<rscale>  0 0.45355907E+04</rscale>
<asrwt>0</asrwt>
<pdfrwt beam="1">  1        2 0.20915577E+00 0.45355907E+04</pdfrwt>
<pdfrwt beam="2">  1       -2 0.58198413E+00 0.45355907E+04</pdfrwt>
<totfact> 0.69878608E-03</totfact>
</mgrwt>
</event>
<event>
 6    1  0.8968082E-007  0.1535138E+04  0.7818608E-02  0.8861417E-01
          1   -1    0    0  501    0  0.00000000000E+00  0.00000000000E+00  0.48521486822E+03  0.48521486822E+03  0.00000000000E+00 0. -1.
         -1   -1    0    0    0  501 -0.00000000000E+00 -0.00000000000E+00 -0.12142298014E+04  0.12142298014E+04  0.00000000000E+00 0.  1.
         23    2    1    2    0    0 -0.36709059889E+03  0.66512314144E+03 -0.46720653566E+03  0.89589757203E+03  0.84889407740E+02 0.  0.
         11    1    3    3    0    0 -0.25469272980E+03  0.48717488685E+03 -0.29458044178E+03  0.62368693562E+03  0.00000000000E+00 0. -1.
        -11    1    3    3    0    0 -0.11239786908E+03  0.17794825459E+03 -0.17262609388E+03  0.27221063641E+03  0.00000000000E+00 0.  1.
         22    1    1    2    0    0  0.36709059889E+03 -0.66512314144E+03 -0.26180839755E+03  0.80354709762E+03  0.00000000000E+00 0. -1.
<mgrwt>
<rscale>  0 0.15351382E+04</rscale>
<asrwt>0</asrwt>
<pdfrwt beam="1">  1        1 0.74648442E-01 0.15351382E+04</pdfrwt>
<pdfrwt beam="2">  1       -1 0.18680458E+00 0.15351382E+04</pdfrwt>
<totfact> 0.82917176E+00</totfact>
</mgrwt>
</event>
<event>
 6    1  0.8968082E-007  0.2691797E+04  0.7818608E-02  0.8337671E-01
         -1   -1    0    0    0  501 -0.00000000000E+00  0.00000000000E+00  0.66353100059E+03  0.66353100059E+03  0.00000000000E+00 0.  1.
          1   -1    0    0  501    0  0.00000000000E+00 -0.00000000000E+00 -0.27300048067E+04  0.27300048067E+04  0.00000000000E+00 0. -1.
         23    2    1    2    0    0 -0.62963600112E+03  0.23134181990E+03  0.43425708476E+03  0.80440168174E+03  0.92316403648E+02 0.  0.
         13    1    3    3    0    0 -0.22238454643E+03  0.12796826416E+03  0.15176158242E+03  0.29809787154E+03  0.00000000000E+00 0.  1.
        -13    1    3    3    0    0 -0.40725145469E+03  0.10337355574E+03  0.28249550234E+03  0.50630381019E+03  0.00000000000E+00 0. -1.
         22    1    1    2    0    0  0.62963600112E+03 -0.23134181990E+03 -0.25007308909E+04  0.25891341255E+04  0.00000000000E+00 0. -1.
<mgrwt>
<rscale>  0 0.26917970E+04</rscale>
<asrwt>0</asrwt>
<pdfrwt beam="1">  1        1 0.42000074E+00 0.26917970E+04</pdfrwt>
<pdfrwt beam="2">  1       -1 0.10208169E+00 0.26917970E+04</pdfrwt>
<totfact> 0.74188168E-01</totfact>
</mgrwt>
</event>
<event>
 6    1  0.8968082E-007  0.3527005E+04  0.7818608E-02  0.8107420E-01
          1   -1    0    0  501    0  0.00000000000E+00  0.00000000000E+00  0.16422372702E+04  0.16422372702E+04  0.00000000000E+00 0. -1.
         -1   -1    0    0    0  501 -0.00000000000E+00 -0.00000000000E+00 -0.18937223490E+04  0.18937223490E+04  0.00000000000E+00 0.  1.
         23    2    1    2    0    0  0.11470420262E+03 -0.57547246335E+03 -0.17906967755E+04  0.18886896784E+04  0.12738975417E+03 0.  0.
         13    1    3    3    0    0  0.11194092831E+03 -0.28025397686E+03 -0.80403007430E+03  0.85879999031E+03  0.00000000000E+00 0. -1.
        -13    1    3    3    0    0  0.27632743079E+01 -0.29521848649E+03 -0.98666670121E+03  0.10298896881E+04  0.00000000000E+00 0.  1.
         22    1    1    2    0    0 -0.11470420262E+03  0.57547246335E+03  0.15392116967E+04  0.16472699407E+04  0.00000000000E+00 0. -1.
<mgrwt>
<rscale>  0 0.35270052E+04</rscale>
<asrwt>0</asrwt>
<pdfrwt beam="1">  1        1 0.25265189E+00 0.35270052E+04</pdfrwt>
<pdfrwt beam="2">  1       -1 0.29134190E+00 0.35270052E+04</pdfrwt>
<totfact> 0.15966557E-01</totfact>
</mgrwt>
</event>
<event>
 6    1  0.8968082E-007  0.1738173E+04  0.7818608E-02  0.8739888E-01
         -1   -1    0    0    0  501 -0.00000000000E+00  0.00000000000E+00  0.26044029465E+03  0.26044029465E+03  0.00000000000E+00 0.  1.
          1   -1    0    0  501    0  0.00000000000E+00 -0.00000000000E+00 -0.29001317929E+04  0.29001317929E+04  0.00000000000E+00 0. -1.
         23    2    1    2    0    0 -0.12614716553E+03 -0.51753926635E+03 -0.25664755073E+04  0.26228727470E+04  0.94365871166E+02 0.  0.
         11    1    3    3    0    0 -0.35378832223E+02 -0.29105545024E+03 -0.12447714694E+04  0.12788357783E+04  0.00000000000E+00 0. -1.
        -11    1    3    3    0    0 -0.90768333308E+02 -0.22648381610E+03 -0.13217040379E+04  0.13440369686E+04  0.00000000000E+00 0.  1.
         22    1    1    2    0    0  0.12614716553E+03  0.51753926635E+03 -0.73215991002E+02  0.53769934064E+03  0.00000000000E+00 0.  1.
<mgrwt>
<rscale>  0 0.17381728E+04</rscale>
<asrwt>0</asrwt>
<pdfrwt beam="1">  1        1 0.44617412E+00 0.17381728E+04</pdfrwt>
<pdfrwt beam="2">  1       -1 0.40067738E-01 0.17381728E+04</pdfrwt>
<totfact> 0.40809219E+00</totfact>
</mgrwt>
</event>
<event>
 6    1  0.8968082E-007  0.7976239E+04  0.7818608E-02  0.7484360E-01
         -2   -1    0    0    0  501 -0.00000000000E+00  0.00000000000E+00  0.29849814507E+04  0.29849814507E+04  0.00000000000E+00 0.  1.
          2   -1    0    0  501    0  0.00000000000E+00 -0.00000000000E+00 -0.53283736013E+04  0.53283736013E+04  0.00000000000E+00 0. -1.
         23    2    1    2    0    0  0.10224610661E+04 -0.38467350101E+04 -0.92033562427E+03  0.40863127354E+04  0.90206657352E+02 0.  0.
         11    1    3    3    0    0  0.33170301581E+03 -0.12076791500E+04 -0.33132654965E+03  0.12954895223E+04  0.00000000000E+00 0.  1.
        -11    1    3    3    0    0  0.69075805028E+03 -0.26390558601E+04 -0.58900907462E+03  0.27908232131E+04  0.00000000000E+00 0. -1.
         22    1    1    2    0    0 -0.10224610661E+04  0.38467350101E+04 -0.14230565263E+04  0.42270423166E+04  0.00000000000E+00 0.  1.
<mgrwt>
<rscale>  0 0.79762388E+04</rscale>
<asrwt>0</asrwt>
<pdfrwt beam="1">  1        2 0.81974978E+00 0.79762388E+04</pdfrwt>
<pdfrwt beam="2">  1       -2 0.45922792E+00 0.79762388E+04</pdfrwt>
<totfact> 0.19975527E-05</totfact>
</mgrwt>
</event>
<event>
 6    1  0.8968082E-007  0.2629830E+04  0.7818608E-02  0.8358139E-01
          1   -1    0    0  501    0  0.00000000000E+00  0.00000000000E+00  0.10190265520E+04  0.10190265520E+04  0.00000000000E+00 0. -1.
         -1   -1    0    0    0  501 -0.00000000000E+00 -0.00000000000E+00 -0.16967185399E+04  0.16967185399E+04  0.00000000000E+00 0.  1.
         23    2    1    2    0    0 -0.32537875373E+03 -0.85445694148E+03  0.63431020527E+03  0.11165835138E+04  0.91876593827E+02 0.  0.
         13    1    3    3    0    0 -0.21904177537E+03 -0.61981224827E+03  0.50094421944E+03  0.82649357738E+03  0.00000000000E+00 0. -1.
        -13    1    3    3    0    0 -0.10633697836E+03 -0.23464469321E+03  0.13336598583E+03  0.29008993639E+03  0.00000000000E+00 0.  1.
         22    1    1    2    0    0  0.32537875373E+03  0.85445694148E+03 -0.13120021931E+04  0.15991615781E+04  0.00000000000E+00 0.  1.
<mgrwt>
<rscale>  0 0.26298298E+04</rscale>
<asrwt>0</asrwt>
<pdfrwt beam="1">  1        1 0.15677332E+00 0.26298298E+04</pdfrwt>
<pdfrwt beam="2">  1       -1 0.26103362E+00 0.26298298E+04</pdfrwt>
<totfact> 0.75888526E-01</totfact>
</mgrwt>
</event>
<event>
 6    1  0.8968082E-007  0.2865409E+04  0.7818608E-02  0.8283244E-01
          2   -1    0    0  501    0  0.00000000000E+00  0.00000000000E+00  0.11659329067E+04  0.11659329067E+04  0.00000000000E+00 0. -1.
         -2   -1    0    0    0  501 -0.00000000000E+00 -0.00000000000E+00 -0.17605148475E+04  0.17605148475E+04  0.00000000000E+00 0.  1.
         23    2    1    2    0    0 -0.75911921253E+03 -0.63486888994E+03  0.75851346409E+03  0.12500863192E+04  0.89736525074E+02 0.  0.
         11    1    3    3    0    0 -0.65258317472E+03 -0.58278234738E+03  0.66083001875E+03  0.10964471615E+04  0.00000000000E+00 0. -1.
        -11    1    3    3    0    0 -0.10653603781E+03 -0.52086542561E+02  0.97683445341E+02  0.15363915764E+03  0.00000000000E+00 0.  1.
         22    1    1    2    0    0  0.75911921253E+03  0.63486888994E+03 -0.13530954048E+04  0.16763614350E+04  0.00000000000E+00 0.  1.
<mgrwt>
<rscale>  0 0.28654090E+04</rscale>
<asrwt>0</asrwt>
<pdfrwt beam="1">  1        2 0.17937429E+00 0.28654090E+04</pdfrwt>
<pdfrwt beam="2">  1       -2 0.27084844E+00 0.28654090E+04</pdfrwt>
<totfact> 0.82303026E-01</totfact>
</mgrwt>
</event>
<event>
 6    1  0.8968082E-007  0.1873839E+04  0.7818608E-02  0.8667989E-01
          1   -1    0    0  501    0  0.00000000000E+00  0.00000000000E+00  0.24926115647E+04  0.24926115647E+04  0.00000000000E+00 0. -1.
         -1   -1    0    0    0  501 -0.00000000000E+00 -0.00000000000E+00 -0.35216786838E+03  0.35216786838E+03  0.00000000000E+00 0.  1.
         23    2    1    2    0    0  0.61075406589E+03 -0.26512366004E+03  0.20687492980E+04  0.21751144639E+04  0.89934359589E+02 0.  0.
         13    1    3    3    0    0  0.11962008948E+03 -0.60927605162E+02  0.54161470325E+03  0.55800324879E+03  0.00000000000E+00 0.  1.
        -13    1    3    3    0    0  0.49113397641E+03 -0.20419605488E+03  0.15271345948E+04  0.16171112151E+04  0.00000000000E+00 0. -1.
         22    1    1    2    0    0 -0.61075406589E+03  0.26512366004E+03  0.71694398276E+02  0.66966496911E+03  0.00000000000E+00 0.  1.
<mgrwt>
<rscale>  0 0.18738385E+04</rscale>
<asrwt>0</asrwt>
<pdfrwt beam="1">  1        1 0.38347869E+00 0.18738385E+04</pdfrwt>
<pdfrwt beam="2">  1       -1 0.54179674E-01 0.18738385E+04</pdfrwt>
<totfact> 0.44254033E+00</totfact>
</mgrwt>
</event>
<event>
 6    1  0.8968082E-007  0.3504852E+04  0.7818608E-02  0.8112641E-01
          2   -1    0    0  501    0  0.00000000000E+00  0.00000000000E+00  0.14615984703E+04  0.14615984703E+04  0.00000000000E+00 0. -1.
         -2   -1    0    0    0  501 -0.00000000000E+00 -0.00000000000E+00 -0.21011219215E+04  0.21011219215E+04  0.00000000000E+00 0.  1.
         23    2    1    2    0    0  0.11587465802E+04 -0.15448782988E+03 -0.16454162916E+04  0.20205204914E+04  0.92456243070E+02 0.  0.
         11    1    3    3    0    0  0.99922051288E+03 -0.14226900900E+03 -0.14695438766E+04  0.17827622695E+04  0.00000000000E+00 0.  1.
        -11    1    3    3    0    0  0.15952606728E+03 -0.12218820877E+02 -0.17587241503E+03  0.23775822193E+03  0.00000000000E+00 0. -1.
         22    1    1    2    0    0 -0.11587465802E+04  0.15448782988E+03  0.10058928404E+04  0.15421999005E+04  0.00000000000E+00 0. -1.
<mgrwt>
<rscale>  0 0.35048518E+04</rscale>
<asrwt>0</asrwt>
<pdfrwt beam="1">  1        2 0.22486130E+00 0.35048518E+04</pdfrwt>
<pdfrwt beam="2">  1       -2 0.32324953E+00 0.35048518E+04</pdfrwt>
<totfact> 0.25054833E-01</totfact>
</mgrwt>
</event>
<event>
 6    1  0.8968082E-007  0.2275995E+04  0.7818608E-02  0.8487446E-01
          2   -1    0    0  501    0  0.00000000000E+00  0.00000000000E+00  0.10300435292E+04  0.10300435292E+04  0.00000000000E+00 0. -1.
         -2   -1    0    0    0  501 -0.00000000000E+00 -0.00000000000E+00 -0.12572660604E+04  0.12572660604E+04  0.00000000000E+00 0.  1.
         23    2    1    2    0    0  0.85435934268E+03  0.57398883435E+03 -0.59739678497E+03  0.11934987986E+04  0.90351509748E+02 0.  0.
         13    1    3    3    0    0  0.17843715496E+03  0.12523348443E+03 -0.17022954886E+03  0.27658876188E+03  0.00000000000E+00 0. -1.
        -13    1    3    3    0    0  0.67592218771E+03  0.44875534992E+03 -0.42716723611E+03  0.91691003677E+03  0.00000000000E+00 0.  1.
         22    1    1    2    0    0 -0.85435934268E+03 -0.57398883435E+03  0.37017425378E+03  0.10938107910E+04  0.00000000000E+00 0. -1.
<mgrwt>
<rscale>  0 0.22759954E+04</rscale>
<asrwt>0</asrwt>
<pdfrwt beam="1">  1        2 0.15846824E+00 0.22759954E+04</pdfrwt>
<pdfrwt beam="2">  1       -2 0.19342555E+00 0.22759954E+04</pdfrwt>
<totfact> 0.32179714E+00</totfact>
</mgrwt>
</event>
<event>
 6    1  0.8968082E-007  0.1010379E+04  0.7818608E-02  0.9297234E-01
          1   -1    0    0  501    0  0.00000000000E+00  0.00000000000E+00  0.45144361024E+03  0.45144361024E+03  0.00000000000E+00 0. -1.
         -1   -1    0    0    0  501 -0.00000000000E+00 -0.00000000000E+00 -0.56533360404E+03  0.56533360404E+03  0.00000000000E+00 0.  1.
         23    2    1    2    0    0  0.46729834739E+03 -0.91223649896E+02  0.99653116504E+02  0.49496291807E+03  0.91477029163E+02 0.  0.
         13    1    3    3    0    0  0.19463622790E+03 -0.69446443979E+02  0.76859005298E+02  0.22048441326E+03  0.00000000000E+00 0.  1.
        -13    1    3    3    0    0  0.27266211948E+03 -0.21777205917E+02  0.22794111205E+02  0.27447850481E+03  0.00000000000E+00 0. -1.
         22    1    1    2    0    0 -0.46729834739E+03  0.91223649896E+02 -0.21354311031E+03  0.52181429621E+03  0.00000000000E+00 0.  1.
<mgrwt>
<rscale>  0 0.10103786E+04</rscale>
<asrwt>0</asrwt>
<pdfrwt beam="1">  1        1 0.69452863E-01 0.10103786E+04</pdfrwt>
<pdfrwt beam="2">  1       -1 0.86974401E-01 0.10103786E+04</pdfrwt>
<totfact> 0.66567616E+01</totfact>
</mgrwt>
</event>
<event>
 6    1  0.8968082E-007  0.4898004E+04  0.7818608E-02  0.7844436E-01
          1   -1    0    0  501    0  0.00000000000E+00  0.00000000000E+00  0.30228586383E+04  0.30228586383E+04  0.00000000000E+00 0. -1.
         -1   -1    0    0    0  501 -0.00000000000E+00 -0.00000000000E+00 -0.19840861503E+04  0.19840861503E+04  0.00000000000E+00 0.  1.
         23    2    1    2    0    0 -0.10452779868E+04 -0.14336140069E+04 -0.12047141869E+04  0.21466847216E+04  0.95204154589E+02 0.  0.
         11    1    3    3    0    0 -0.20171276674E+03 -0.25860490204E+03 -0.26646578281E+03  0.42257372024E+03  0.00000000000E+00 0. -1.
        -11    1    3    3    0    0 -0.84356522008E+03 -0.11750091049E+04 -0.93824840411E+03  0.17241110013E+04  0.00000000000E+00 0.  1.
         22    1    1    2    0    0  0.10452779868E+04  0.14336140069E+04  0.22434866750E+04  0.28602600671E+04  0.00000000000E+00 0. -1.
<mgrwt>
<rscale>  0 0.48980045E+04</rscale>
<asrwt>0</asrwt>
<pdfrwt beam="1">  1        1 0.46505518E+00 0.48980045E+04</pdfrwt>
<pdfrwt beam="2">  1       -1 0.30524402E+00 0.48980045E+04</pdfrwt>
<totfact> 0.12780506E-02</totfact>
</mgrwt>
</event>
<event>
 6    1  0.8968082E-007  0.1944819E+04  0.7818608E-02  0.8632863E-01
          1   -1    0    0  501    0  0.00000000000E+00  0.00000000000E+00  0.22691163427E+04  0.22691163427E+04  0.00000000000E+00 0. -1.
         -1   -1    0    0    0  501 -0.00000000000E+00 -0.00000000000E+00 -0.41671733563E+03  0.41671733563E+03  0.00000000000E+00 0.  1.
         23    2    1    2    0    0 -0.78002669882E+03 -0.52315236519E+03  0.59196586477E+03  0.11139489006E+04  0.91260726062E+02 0.  0.
         11    1    3    3    0    0 -0.33787564192E+03 -0.25285498002E+03  0.31291516497E+03  0.52536795752E+03  0.00000000000E+00 0. -1.
        -11    1    3    3    0    0 -0.44215105691E+03 -0.27029738516E+03  0.27905069980E+03  0.58858094312E+03  0.00000000000E+00 0.  1.
         22    1    1    2    0    0  0.78002669882E+03  0.52315236519E+03  0.12604331423E+04  0.15718847777E+04  0.00000000000E+00 0. -1.
<mgrwt>
<rscale>  0 0.19448189E+04</rscale>
<asrwt>0</asrwt>
<pdfrwt beam="1">  1        1 0.34909481E+00 0.19448189E+04</pdfrwt>
<pdfrwt beam="2">  1       -1 0.64110361E-01 0.19448189E+04</pdfrwt>
<totfact> 0.44946601E+00</totfact>
</mgrwt>
</event>
<event>
 6    1  0.8968082E-007  0.1480885E+04  0.7818608E-02  0.8897264E-01
          1   -1    0    0  501    0  0.00000000000E+00  0.00000000000E+00  0.31804490964E+03  0.31804490964E+03  0.00000000000E+00 0. -1.
         -1   -1    0    0    0  501 -0.00000000000E+00 -0.00000000000E+00 -0.17238297982E+04  0.17238297982E+04  0.00000000000E+00 0.  1.
         23    2    1    2    0    0 -0.66872218918E+03 -0.48397357924E+02 -0.28180607210E+03  0.73311191405E+03  0.92232021022E+02 0.  0.
         13    1    3    3    0    0 -0.24197131587E+03 -0.62103458659E+02 -0.10355235992E+03  0.27042568023E+03  0.00000000000E+00 0.  1.
        -13    1    3    3    0    0 -0.42675087331E+03  0.13706100736E+02 -0.17825371218E+03  0.46268623383E+03  0.00000000000E+00 0. -1.
         22    1    1    2    0    0  0.66872218918E+03  0.48397357924E+02 -0.11239788164E+04  0.13087627938E+04  0.00000000000E+00 0.  1.
<mgrwt>
<rscale>  0 0.14808853E+04</rscale>
<asrwt>0</asrwt>
<pdfrwt beam="1">  1        1 0.48929987E-01 0.14808853E+04</pdfrwt>
<pdfrwt beam="2">  1       -1 0.26520458E+00 0.14808853E+04</pdfrwt>
<totfact> 0.43733258E+00</totfact>
</mgrwt>
</event>
<event>
 6    1  0.8968082E-007  0.1115844E+04  0.7818608E-02  0.9189885E-01
         -2   -1    0    0    0  501 -0.00000000000E+00  0.00000000000E+00  0.18269960538E+03  0.18269960538E+03  0.00000000000E+00 0.  1.
          2   -1    0    0  501    0  0.00000000000E+00 -0.00000000000E+00 -0.17037640558E+04  0.17037640558E+04  0.00000000000E+00 0. -1.
         23    2    1    2    0    0  0.41937845987E+03 -0.38228360492E+02 -0.15576382522E+03  0.45769303672E+03  0.88774131751E+02 0.  0.
         13    1    3    3    0    0  0.14537234158E+03 -0.42990958485E+02 -0.23532297437E+02  0.15341156811E+03  0.00000000000E+00 0. -1.
        -13    1    3    3    0    0  0.27400611830E+03  0.47625979937E+01 -0.13223152778E+03  0.30428146861E+03  0.00000000000E+00 0.  1.
         22    1    1    2    0    0 -0.41937845987E+03  0.38228360492E+02 -0.13653006252E+04  0.14287706244E+04  0.00000000000E+00 0. -1.
<mgrwt>
<rscale>  0 0.11158441E+04</rscale>
<asrwt>0</asrwt>
<pdfrwt beam="1">  1        2 0.26211755E+00 0.11158441E+04</pdfrwt>
<pdfrwt beam="2">  1       -2 0.28107631E-01 0.11158441E+04</pdfrwt>
<totfact> 0.11204899E+02</totfact>
</mgrwt>
</event>
<event>
 6    1  0.8968082E-007  0.3129203E+04  0.7818608E-02  0.8207769E-01
          2   -1    0    0  501    0  0.00000000000E+00  0.00000000000E+00  0.37145456156E+04  0.37145456156E+04  0.00000000000E+00 0. -1.
         -2   -1    0    0    0  501 -0.00000000000E+00 -0.00000000000E+00 -0.65902497289E+03  0.65902497289E+03  0.00000000000E+00 0.  1.
         23    2    1    2    0    0 -0.10533560570E+04 -0.33825233915E+03  0.30727660289E+04  0.32671027710E+04  0.89976776103E+02 0.  0.
         13    1    3    3    0    0 -0.70247655034E+03 -0.19990756121E+03  0.19213251205E+04  0.20554626135E+04  0.00000000000E+00 0.  1.
        -13    1    3    3    0    0 -0.35087950668E+03 -0.13834477794E+03  0.11514409084E+04  0.12116401575E+04  0.00000000000E+00 0. -1.
         22    1    1    2    0    0  0.10533560570E+04  0.33825233915E+03 -0.17245386180E+02  0.11064678175E+04  0.00000000000E+00 0.  1.
<mgrwt>
<rscale>  0 0.31292033E+04</rscale>
<asrwt>0</asrwt>
<pdfrwt beam="1">  1        2 0.57146854E+00 0.31292033E+04</pdfrwt>
<pdfrwt beam="2">  1       -2 0.10138846E+00 0.31292033E+04</pdfrwt>
<totfact> 0.38501754E-01</totfact>
</mgrwt>
</event>
<event>
 6    1  0.8968082E-007  0.1805800E+04  0.7818608E-02  0.8703221E-01
          2   -1    0    0  501    0  0.00000000000E+00  0.00000000000E+00  0.26215432671E+04  0.26215432671E+04  0.00000000000E+00 0. -1.
         -2   -1    0    0    0  501 -0.00000000000E+00 -0.00000000000E+00 -0.31097269446E+03  0.31097269446E+03  0.00000000000E+00 0.  1.
         23    2    1    2    0    0 -0.72236616963E+02 -0.57403239186E+03  0.37338065870E+02  0.58681407394E+03  0.90693497404E+02 0.  0.
         11    1    3    3    0    0  0.21816937613E+02 -0.11316889810E+03  0.86737668552E+01  0.11557859878E+03  0.00000000000E+00 0.  1.
        -11    1    3    3    0    0 -0.94053554577E+02 -0.46086349376E+03  0.28664299015E+02  0.47123547515E+03  0.00000000000E+00 0. -1.
         22    1    1    2    0    0  0.72236616963E+02  0.57403239186E+03  0.22732325068E+04  0.23457018876E+04  0.00000000000E+00 0. -1.
<mgrwt>
<rscale>  0 0.18058000E+04</rscale>
<asrwt>0</asrwt>
<pdfrwt beam="1">  1        2 0.40331433E+00 0.18058000E+04</pdfrwt>
<pdfrwt beam="2">  1       -2 0.47841955E-01 0.18058000E+04</pdfrwt>
<totfact> 0.11564955E+01</totfact>
</mgrwt>
</event>
<event>
 6    1  0.8968082E-007  0.3839313E+04  0.7818608E-02  0.8037771E-01
          1   -1    0    0  501    0  0.00000000000E+00  0.00000000000E+00  0.28074672540E+04  0.28074672540E+04  0.00000000000E+00 0. -1.
         -1   -1    0    0    0  501 -0.00000000000E+00 -0.00000000000E+00 -0.13125999271E+04  0.13125999271E+04  0.00000000000E+00 0.  1.
         23    2    1    2    0    0  0.13442082644E+04 -0.10608693839E+04  0.16762921343E+04  0.23980756977E+04  0.92043600873E+02 0.  0.
         11    1    3    3    0    0  0.12329730811E+04 -0.93884354604E+03  0.15102145327E+04  0.21638848762E+04  0.00000000000E+00 0. -1.
        -11    1    3    3    0    0  0.11123518333E+03 -0.12202583787E+03  0.16607760161E+03  0.23419082150E+03  0.00000000000E+00 0.  1.
         22    1    1    2    0    0 -0.13442082644E+04  0.10608693839E+04 -0.18142480742E+03  0.17219914833E+04  0.00000000000E+00 0.  1.
<mgrwt>
<rscale>  0 0.38393131E+04</rscale>
<asrwt>0</asrwt>
<pdfrwt beam="1">  1        1 0.43191804E+00 0.38393131E+04</pdfrwt>
<pdfrwt beam="2">  1       -1 0.20193845E+00 0.38393131E+04</pdfrwt>
<totfact> 0.95252715E-02</totfact>
</mgrwt>
</event>
<event>
 6    1  0.8968082E-007  0.2827604E+04  0.7818608E-02  0.8294749E-01
          2   -1    0    0  501    0  0.00000000000E+00  0.00000000000E+00  0.15158753065E+04  0.15158753065E+04  0.00000000000E+00 0. -1.
         -2   -1    0    0    0  501 -0.00000000000E+00 -0.00000000000E+00 -0.13186014687E+04  0.13186014687E+04  0.00000000000E+00 0.  1.
         23    2    1    2    0    0 -0.12683673113E+04  0.55785512178E+03 -0.17548596363E+03  0.13995872872E+04  0.89951529634E+02 0.  0.
         11    1    3    3    0    0 -0.50853980443E+03  0.27033134163E+03 -0.84697747825E+02  0.58212152979E+03  0.00000000000E+00 0.  1.
        -11    1    3    3    0    0 -0.75982750690E+03  0.28752378016E+03 -0.90788215806E+02  0.81746575741E+03  0.00000000000E+00 0. -1.
         22    1    1    2    0    0  0.12683673113E+04 -0.55785512178E+03  0.37275980141E+03  0.14348894880E+04  0.00000000000E+00 0. -1.
<mgrwt>
<rscale>  0 0.28276035E+04</rscale>
<asrwt>0</asrwt>
<pdfrwt beam="1">  1        2 0.23321159E+00 0.28276035E+04</pdfrwt>
<pdfrwt beam="2">  1       -2 0.20286176E+00 0.28276035E+04</pdfrwt>
<totfact> 0.13752821E+00</totfact>
</mgrwt>
</event>
<event>
 6    1  0.8968082E-007  0.2066815E+04  0.7818608E-02  0.8576004E-01
          2   -1    0    0  501    0  0.00000000000E+00  0.00000000000E+00  0.32624389541E+03  0.32624389541E+03  0.00000000000E+00 0. -1.
         -2   -1    0    0    0  501 -0.00000000000E+00 -0.00000000000E+00 -0.32734134720E+04  0.32734134720E+04  0.00000000000E+00 0.  1.
         23    2    1    2    0    0  0.45658511373E+03 -0.24906656679E+03 -0.30277151324E+04  0.30733573509E+04  0.89232070190E+02 0.  0.
         11    1    3    3    0    0  0.10806919261E+03 -0.80168310518E+02 -0.99728677913E+03  0.10063234213E+04  0.00000000000E+00 0. -1.
        -11    1    3    3    0    0  0.34851592112E+03 -0.16889825627E+03 -0.20304283533E+04  0.20670339296E+04  0.00000000000E+00 0.  1.
         22    1    1    2    0    0 -0.45658511373E+03  0.24906656679E+03  0.80545555878E+02  0.52630001648E+03  0.00000000000E+00 0. -1.
<mgrwt>
<rscale>  0 0.20668151E+04</rscale>
<asrwt>0</asrwt>
<pdfrwt beam="1">  1        2 0.50191367E-01 0.20668151E+04</pdfrwt>
<pdfrwt beam="2">  1       -2 0.50360209E+00 0.20668151E+04</pdfrwt>
<totfact> 0.14419597E-01</totfact>
</mgrwt>
</event>
<event>
 6    1  0.8968082E-007  0.2160742E+04  0.7818608E-02  0.8534948E-01
          1   -1    0    0  501    0  0.00000000000E+00  0.00000000000E+00  0.20770184925E+04  0.20770184925E+04  0.00000000000E+00 0. -1.
         -1   -1    0    0    0  501 -0.00000000000E+00 -0.00000000000E+00 -0.56196026105E+03  0.56196026105E+03  0.00000000000E+00 0.  1.
         23    2    1    2    0    0 -0.35041830207E+03 -0.50092882955E+03 -0.32617734073E+03  0.69890888085E+03  0.91429138825E+02 0.  0.
         11    1    3    3    0    0 -0.27461863257E+03 -0.33452551657E+03 -0.20025552451E+03  0.47689096205E+03  0.00000000000E+00 0.  1.
        -11    1    3    3    0    0 -0.75799669500E+02 -0.16640331298E+03 -0.12592181622E+03  0.22201791880E+03  0.00000000000E+00 0. -1.
         22    1    1    2    0    0  0.35041830207E+03  0.50092882955E+03  0.18412355721E+04  0.19400698727E+04  0.00000000000E+00 0. -1.
<mgrwt>
<rscale>  0 0.21607423E+04</rscale>
<asrwt>0</asrwt>
<pdfrwt beam="1">  1        1 0.31954130E+00 0.21607423E+04</pdfrwt>
<pdfrwt beam="2">  1       -1 0.86455426E-01 0.21607423E+04</pdfrwt>
<totfact> 0.31883088E+00</totfact>
</mgrwt>
</event>
<event>
 6    1  0.8968082E-007  0.1067383E+04  0.7818608E-02  0.9237579E-01
          1   -1    0    0  501    0  0.00000000000E+00  0.00000000000E+00  0.16577690370E+04  0.16577690370E+04  0.00000000000E+00 0. -1.
         -1   -1    0    0    0  501 -0.00000000000E+00 -0.00000000000E+00 -0.17181308930E+03  0.17181308930E+03  0.00000000000E+00 0.  1.
         23    2    1    2    0    0  0.48128701363E+03 -0.15875774650E+03  0.48385189790E+03  0.70661563608E+03  0.91388109086E+02 0.  0.
         11    1    3    3    0    0  0.32132387683E+03 -0.73346262204E+02  0.26871313181E+03  0.42524752228E+03  0.00000000000E+00 0. -1.
        -11    1    3    3    0    0  0.15996313680E+03 -0.85411484295E+02  0.21513876609E+03  0.28136811379E+03  0.00000000000E+00 0.  1.
         22    1    1    2    0    0 -0.48128701363E+03  0.15875774650E+03  0.10021040498E+04  0.11229664903E+04  0.00000000000E+00 0.  1.
<mgrwt>
<rscale>  0 0.10673826E+04</rscale>
<asrwt>0</asrwt>
<pdfrwt beam="1">  1        1 0.25504138E+00 0.10673826E+04</pdfrwt>
<pdfrwt beam="2">  1       -1 0.26432784E-01 0.10673826E+04</pdfrwt>
<totfact> 0.64756102E+01</totfact>
</mgrwt>
</event>
<event>
 6    1  0.8968082E-007  0.2396400E+04  0.7818608E-02  0.8440852E-01
         -2   -1    0    0    0  501 -0.00000000000E+00  0.00000000000E+00  0.33273951882E+04  0.33273951882E+04  0.00000000000E+00 0.  1.
          2   -1    0    0  501    0  0.00000000000E+00 -0.00000000000E+00 -0.43147373761E+03  0.43147373761E+03  0.00000000000E+00 0. -1.
         23    2    1    2    0    0 -0.34664262351E+03 -0.41663096395E+03 -0.22302406955E+03  0.59318359303E+03  0.91567302469E+02 0.  0.
         13    1    3    3    0    0 -0.18739368540E+03 -0.16105135507E+03 -0.79250034093E+02  0.25948892116E+03  0.00000000000E+00 0.  1.
        -13    1    3    3    0    0 -0.15924893811E+03 -0.25557960888E+03 -0.14377403546E+03  0.33369467187E+03  0.00000000000E+00 0. -1.
         22    1    1    2    0    0  0.34664262351E+03  0.41663096395E+03  0.31189455202E+04  0.31656853328E+04  0.00000000000E+00 0.  1.
<mgrwt>
<rscale>  0 0.23964003E+04</rscale>
<asrwt>0</asrwt>
<pdfrwt beam="1">  1        2 0.66380577E-01 0.23964003E+04</pdfrwt>
<pdfrwt beam="2">  1       -2 0.51190693E+00 0.23964003E+04</pdfrwt>
<totfact> 0.91065420E-02</totfact>
</mgrwt>
</event>
<event>
 6    1  0.8968082E-007  0.9465229E+03  0.7818608E-02  0.9369224E-01
         -1   -1    0    0    0  501 -0.00000000000E+00  0.00000000000E+00  0.47904084740E+03  0.47904084740E+03  0.00000000000E+00 0.  1.
          1   -1    0    0  501    0  0.00000000000E+00 -0.00000000000E+00 -0.46755181942E+03  0.46755181942E+03  0.00000000000E+00 0. -1.
         23    2    1    2    0    0 -0.10374145915E+03  0.43833045572E+03  0.13559610891E+03  0.47936847406E+03  0.92260232013E+02 0.  0.
         11    1    3    3    0    0 -0.67121081887E+02  0.10612957270E+03  0.36114111767E+02  0.13066351788E+03  0.00000000000E+00 0. -1.
        -11    1    3    3    0    0 -0.36620377264E+02  0.33220088302E+03  0.99481997144E+02  0.34870495619E+03  0.00000000000E+00 0.  1.
         22    1    1    2    0    0  0.10374145915E+03 -0.43833045572E+03 -0.12410708092E+03  0.46722419276E+03  0.00000000000E+00 0. -1.
<mgrwt>
<rscale>  0 0.94652294E+03</rscale>
<asrwt>0</asrwt>
<pdfrwt beam="1">  1        1 0.71931049E-01 0.94652294E+03</pdfrwt>
<pdfrwt beam="2">  1       -1 0.73698592E-01 0.94652294E+03</pdfrwt>
<totfact> 0.90690574E+01</totfact>
</mgrwt>
</event>
<event>
 6    1  0.8968082E-007  0.5561224E+03  0.7818608E-02  0.1000087E+00
         -1   -1    0    0    0  501 -0.00000000000E+00  0.00000000000E+00  0.80892419633E+02  0.80892419633E+02  0.00000000000E+00 0.  1.
          1   -1    0    0  501    0  0.00000000000E+00 -0.00000000000E+00 -0.95581313825E+03  0.95581313825E+03  0.00000000000E+00 0. -1.
         23    2    1    2    0    0 -0.13206848473E+03 -0.17756778469E+03 -0.16189061370E+03  0.29012379188E+03  0.94820045293E+02 0.  0.
         11    1    3    3    0    0 -0.87009291521E+01 -0.44786688937E+02 -0.78091360394E+02  0.90442325502E+02  0.00000000000E+00 0.  1.
        -11    1    3    3    0    0 -0.12336755558E+03 -0.13278109575E+03 -0.83799253310E+02  0.19968146638E+03  0.00000000000E+00 0. -1.
         22    1    1    2    0    0  0.13206848473E+03  0.17756778469E+03 -0.71303010491E+03  0.74658176600E+03  0.00000000000E+00 0.  1.
<mgrwt>
<rscale>  0 0.55612242E+03</rscale>
<asrwt>0</asrwt>
<pdfrwt beam="1">  1        1 0.14704817E+00 0.55612242E+03</pdfrwt>
<pdfrwt beam="2">  1       -1 0.12444988E-01 0.55612242E+03</pdfrwt>
<totfact> 0.73990516E+02</totfact>
</mgrwt>
</event>
<event>
 6    1  0.8968082E-007  0.1235789E+04  0.7818608E-02  0.9082095E-01
         -2   -1    0    0    0  501 -0.00000000000E+00  0.00000000000E+00  0.56707060851E+03  0.56707060851E+03  0.00000000000E+00 0.  1.
          2   -1    0    0  501    0  0.00000000000E+00 -0.00000000000E+00 -0.67327324263E+03  0.67327324263E+03  0.00000000000E+00 0. -1.
         23    2    1    2    0    0 -0.23789184698E+03 -0.34448053474E+03  0.39837554050E+03  0.58470789730E+03  0.88999349581E+02 0.  0.
         13    1    3    3    0    0 -0.41353530901E+02 -0.13166929384E+03  0.13892806991E+03  0.19582626501E+03  0.00000000000E+00 0. -1.
        -13    1    3    3    0    0 -0.19653831608E+03 -0.21281124090E+03  0.25944747059E+03  0.38888163229E+03  0.00000000000E+00 0.  1.
         22    1    1    2    0    0  0.23789184698E+03  0.34448053474E+03 -0.50457817461E+03  0.65563595384E+03  0.00000000000E+00 0. -1.
<mgrwt>
<rscale>  0 0.12357888E+04</rscale>
<asrwt>0</asrwt>
<pdfrwt beam="1">  1        2 0.10358050E+00 0.12357888E+04</pdfrwt>
<pdfrwt beam="2">  1       -2 0.87241632E-01 0.12357888E+04</pdfrwt>
<totfact> 0.48117133E+01</totfact>
</mgrwt>
</event>
<event>
 6    1  0.8968082E-007  0.9171305E+03  0.7818608E-02  0.9404417E-01
          2   -1    0    0  501    0  0.00000000000E+00  0.00000000000E+00  0.10507585490E+04  0.10507585490E+04  0.00000000000E+00 0. -1.
         -2   -1    0    0    0  501 -0.00000000000E+00 -0.00000000000E+00 -0.20012406249E+03  0.20012406249E+03  0.00000000000E+00 0.  1.
         23    2    1    2    0    0 -0.36334278694E+03  0.57292841941E+02  0.79245546176E+03  0.87847792636E+03  0.91855090631E+02 0.  0.
         13    1    3    3    0    0 -0.72553820997E+02 -0.93329003004E+01  0.23628854609E+03  0.24735285926E+03  0.00000000000E+00 0.  1.
        -13    1    3    3    0    0 -0.29078896595E+03  0.66625742242E+02  0.55616691567E+03  0.63112506711E+03  0.00000000000E+00 0. -1.
         22    1    1    2    0    0  0.36334278694E+03 -0.57292841941E+02  0.58179024724E+02  0.37240468509E+03  0.00000000000E+00 0.  1.
<mgrwt>
<rscale>  0 0.91713046E+03</rscale>
<asrwt>0</asrwt>
<pdfrwt beam="1">  1        2 0.16165516E+00 0.91713046E+03</pdfrwt>
<pdfrwt beam="2">  1       -2 0.30788318E-01 0.91713046E+03</pdfrwt>
<totfact> 0.22852795E+02</totfact>
</mgrwt>
</event>
<event>
 6    1  0.8968082E-007  0.2009305E+04  0.7818608E-02  0.8602282E-01
         -2   -1    0    0    0  501 -0.00000000000E+00  0.00000000000E+00  0.98240623573E+03  0.98240623573E+03  0.00000000000E+00 0.  1.
          2   -1    0    0  501    0  0.00000000000E+00 -0.00000000000E+00 -0.10274029910E+04  0.10274029910E+04  0.00000000000E+00 0. -1.
         23    2    1    2    0    0 -0.52022258022E+03 -0.39945458862E+03 -0.78094791180E+03  0.10240001144E+04  0.92201366596E+02 0.  0.
         13    1    3    3    0    0 -0.12555074631E+03 -0.81943406473E+02 -0.12474461946E+03  0.19503571941E+03  0.00000000000E+00 0.  1.
        -13    1    3    3    0    0 -0.39467183390E+03 -0.31751118215E+03 -0.65620329234E+03  0.82896439498E+03  0.00000000000E+00 0. -1.
         22    1    1    2    0    0  0.52022258022E+03  0.39945458862E+03  0.73595115648E+03  0.98580911239E+03  0.00000000000E+00 0.  1.
<mgrwt>
<rscale>  0 0.20093055E+04</rscale>
<asrwt>0</asrwt>
<pdfrwt beam="1">  1        2 0.15806200E+00 0.20093055E+04</pdfrwt>
<pdfrwt beam="2">  1       -2 0.15113942E+00 0.20093055E+04</pdfrwt>
<totfact> 0.65946253E+00</totfact>
</mgrwt>
</event>
<event>
 6    1  0.8968082E-007  0.1614304E+04  0.7818608E-02  0.8811808E-01
          2   -1    0    0  501    0  0.00000000000E+00  0.00000000000E+00  0.28768310874E+04  0.28768310874E+04  0.00000000000E+00 0. -1.
         -2   -1    0    0    0  501 -0.00000000000E+00 -0.00000000000E+00 -0.22646246058E+03  0.22646246058E+03  0.00000000000E+00 0.  1.
         23    2    1    2    0    0 -0.65772336257E+03  0.46077994027E+03  0.12318692289E+04  0.14732448625E+04  0.89612794075E+02 0.  0.
         13    1    3    3    0    0 -0.44633938372E+03  0.35096915297E+03  0.81869874800E+03  0.99632616737E+03  0.00000000000E+00 0.  1.
        -13    1    3    3    0    0 -0.21138397885E+03  0.10981078729E+03  0.41317048085E+03  0.47691869513E+03  0.00000000000E+00 0. -1.
         22    1    1    2    0    0  0.65772336257E+03 -0.46077994027E+03  0.14184993980E+04  0.16300486855E+04  0.00000000000E+00 0. -1.
<mgrwt>
<rscale>  0 0.16143039E+04</rscale>
<asrwt>0</asrwt>
<pdfrwt beam="1">  1        2 0.44258937E+00 0.16143039E+04</pdfrwt>
<pdfrwt beam="2">  1       -2 0.34840381E-01 0.16143039E+04</pdfrwt>
<totfact> 0.15440751E+01</totfact>
</mgrwt>
</event>
<event>
 6    1  0.8968082E-007  0.2532562E+04  0.7818608E-02  0.8391476E-01
         -2   -1    0    0    0  501 -0.00000000000E+00  0.00000000000E+00  0.11312272078E+04  0.11312272078E+04  0.00000000000E+00 0.  1.
          2   -1    0    0  501    0  0.00000000000E+00 -0.00000000000E+00 -0.14174579858E+04  0.14174579858E+04  0.00000000000E+00 0. -1.
         23    2    1    2    0    0  0.10588935416E+04 -0.57232963145E+02 -0.83625915757E+03  0.13540880386E+04  0.98457570123E+02 0.  0.
         13    1    3    3    0    0  0.75361390687E+03 -0.81410512487E+02 -0.61861917440E+03  0.97839218880E+03  0.00000000000E+00 0.  1.
        -13    1    3    3    0    0  0.30527963472E+03  0.24177549342E+02 -0.21763998317E+03  0.37569584977E+03  0.00000000000E+00 0. -1.
         22    1    1    2    0    0 -0.10588935416E+04  0.57232963145E+02  0.55002837959E+03  0.11945971550E+04  0.00000000000E+00 0.  1.
<mgrwt>
<rscale>  0 0.25325616E+04</rscale>
<asrwt>0</asrwt>
<pdfrwt beam="1">  1        2 0.21807046E+00 0.25325616E+04</pdfrwt>
<pdfrwt beam="2">  1       -2 0.17403495E+00 0.25325616E+04</pdfrwt>
<totfact> 0.25107331E+00</totfact>
</mgrwt>
</event>
<event>
 6    1  0.8968082E-007  0.4597205E+04  0.7818608E-02  0.7893837E-01
          1   -1    0    0  501    0  0.00000000000E+00  0.00000000000E+00  0.28016078447E+04  0.28016078447E+04  0.00000000000E+00 0. -1.
         -1   -1    0    0    0  501 -0.00000000000E+00 -0.00000000000E+00 -0.18859078098E+04  0.18859078098E+04  0.00000000000E+00 0.  1.
         23    2    1    2    0    0  0.96337445417E+03  0.40691599413E+03  0.25441130034E+04  0.27522121225E+04  0.92139176000E+02 0.  0.
         11    1    3    3    0    0  0.70200849413E+03  0.26435468517E+03  0.17428185864E+04  0.18973971515E+04  0.00000000000E+00 0. -1.
        -11    1    3    3    0    0  0.26136596005E+03  0.14256130896E+03  0.80129441702E+03  0.85481497099E+03  0.00000000000E+00 0.  1.
         22    1    1    2    0    0 -0.96337445417E+03 -0.40691599413E+03 -0.16284129685E+04  0.19353035321E+04  0.00000000000E+00 0.  1.
<mgrwt>
<rscale>  0 0.45972053E+04</rscale>
<asrwt>0</asrwt>
<pdfrwt beam="1">  1        1 0.43101659E+00 0.45972053E+04</pdfrwt>
<pdfrwt beam="2">  1       -1 0.29013966E+00 0.45972053E+04</pdfrwt>
<totfact> 0.23709011E-02</totfact>
</mgrwt>
</event>
<event>
 6    1  0.8968082E-007  0.3995288E+04  0.7818608E-02  0.8005498E-01
         -1   -1    0    0    0  501 -0.00000000000E+00  0.00000000000E+00  0.17869953082E+04  0.17869953082E+04  0.00000000000E+00 0.  1.
          1   -1    0    0  501    0  0.00000000000E+00 -0.00000000000E+00 -0.22331240004E+04  0.22331240004E+04  0.00000000000E+00 0. -1.
         23    2    1    2    0    0 -0.46911408994E+03 -0.13707213397E+04 -0.16055835745E+04  0.21645114176E+04  0.90917774275E+02 0.  0.
         13    1    3    3    0    0 -0.22402376552E+03 -0.63457424447E+03 -0.67906525516E+03  0.95603385925E+03  0.00000000000E+00 0. -1.
        -13    1    3    3    0    0 -0.24509032442E+03 -0.73614709524E+03 -0.92651831938E+03  0.12084775584E+04  0.00000000000E+00 0.  1.
         22    1    1    2    0    0  0.46911408994E+03  0.13707213397E+04  0.11594548824E+04  0.18556078909E+04  0.00000000000E+00 0.  1.
<mgrwt>
<rscale>  0 0.39952883E+04</rscale>
<asrwt>0</asrwt>
<pdfrwt beam="1">  1        1 0.34355754E+00 0.39952883E+04</pdfrwt>
<pdfrwt beam="2">  1       -1 0.27492235E+00 0.39952883E+04</pdfrwt>
<totfact> 0.77735993E-02</totfact>
</mgrwt>
</event>
<event>
 6    1  0.8968082E-007  0.6630927E+03  0.7818608E-02  0.9782517E-01
         -1   -1    0    0    0  501 -0.00000000000E+00  0.00000000000E+00  0.10107453725E+03  0.10107453725E+03  0.00000000000E+00 0.  1.
          1   -1    0    0  501    0  0.00000000000E+00 -0.00000000000E+00 -0.10875436122E+04  0.10875436122E+04  0.00000000000E+00 0. -1.
         23    2    1    2    0    0  0.20117851011E+03 -0.77149236974E+02 -0.65845517027E+02  0.24311694211E+03  0.91353257911E+02 0.  0.
         13    1    3    3    0    0  0.11644614651E+03 -0.54070531578E+02 -0.84020830033E+02  0.15343672084E+03  0.00000000000E+00 0.  1.
        -13    1    3    3    0    0  0.84732363597E+02 -0.23078705396E+02  0.18175313006E+02  0.89680221267E+02  0.00000000000E+00 0. -1.
         22    1    1    2    0    0 -0.20117851011E+03  0.77149236974E+02 -0.92062355796E+03  0.94550120739E+03  0.00000000000E+00 0. -1.
<mgrwt>
<rscale>  0 0.66309266E+03</rscale>
<asrwt>0</asrwt>
<pdfrwt beam="1">  1        1 0.16731441E+00 0.66309266E+03</pdfrwt>
<pdfrwt beam="2">  1       -1 0.15549928E-01 0.66309266E+03</pdfrwt>
<totfact> 0.40784676E+02</totfact>
</mgrwt>
</event>
<event>
 6    1  0.8968082E-007  0.4229289E+04  0.7818608E-02  0.7959824E-01
         -1   -1    0    0    0  501 -0.00000000000E+00  0.00000000000E+00  0.22629082994E+04  0.22629082994E+04  0.00000000000E+00 0.  1.
          1   -1    0    0  501    0  0.00000000000E+00 -0.00000000000E+00 -0.19760945166E+04  0.19760945166E+04  0.00000000000E+00 0. -1.
         23    2    1    2    0    0  0.13090516283E+04  0.90721953585E+03  0.15362332931E+04  0.22147220637E+04  0.91201079354E+02 0.  0.
         11    1    3    3    0    0  0.42395039486E+03  0.24738236747E+03  0.49762679708E+03  0.69897382083E+03  0.00000000000E+00 0. -1.
        -11    1    3    3    0    0  0.88510123345E+03  0.65983716838E+03  0.10386064960E+04  0.15157482429E+04  0.00000000000E+00 0.  1.
         22    1    1    2    0    0 -0.13090516283E+04 -0.90721953585E+03 -0.12494195102E+04  0.20242807523E+04  0.00000000000E+00 0. -1.
<mgrwt>
<rscale>  0 0.42292887E+04</rscale>
<asrwt>0</asrwt>
<pdfrwt beam="1">  1        1 0.30401454E+00 0.42292887E+04</pdfrwt>
<pdfrwt beam="2">  1       -1 0.34813974E+00 0.42292887E+04</pdfrwt>
<totfact> 0.37976186E-02</totfact>
</mgrwt>
</event>
<event>
 6    1  0.8968082E-007  0.4078603E+04  0.7818608E-02  0.7988875E-01
          2   -1    0    0  501    0  0.00000000000E+00  0.00000000000E+00  0.27458401120E+04  0.27458401120E+04  0.00000000000E+00 0. -1.
         -2   -1    0    0    0  501 -0.00000000000E+00 -0.00000000000E+00 -0.15145642292E+04  0.15145642292E+04  0.00000000000E+00 0.  1.
         23    2    1    2    0    0 -0.16154374273E+04  0.98419287465E+02  0.19103073428E+04  0.25052951819E+04  0.88912132164E+02 0.  0.
         11    1    3    3    0    0 -0.74027051917E+02  0.48836981821E+00  0.11808338275E+03  0.13936975354E+03  0.00000000000E+00 0.  1.
        -11    1    3    3    0    0 -0.15414103753E+04  0.97930917647E+02  0.17922239600E+04  0.23659254284E+04  0.00000000000E+00 0. -1.
         22    1    1    2    0    0  0.16154374273E+04 -0.98419287465E+02 -0.67903145997E+03  0.17551091593E+04  0.00000000000E+00 0.  1.
<mgrwt>
<rscale>  0 0.40786033E+04</rscale>
<asrwt>0</asrwt>
<pdfrwt beam="1">  1        2 0.42243694E+00 0.40786033E+04</pdfrwt>
<pdfrwt beam="2">  1       -2 0.23300988E+00 0.40786033E+04</pdfrwt>
<totfact> 0.15996936E-01</totfact>
</mgrwt>
</event>
<event>
 6    1  0.8968082E-007  0.1744365E+04  0.7818608E-02  0.8736458E-01
         -1   -1    0    0    0  501 -0.00000000000E+00  0.00000000000E+00  0.24078248470E+04  0.24078248470E+04  0.00000000000E+00 0.  1.
          1   -1    0    0  501    0  0.00000000000E+00 -0.00000000000E+00 -0.31592912970E+03  0.31592912970E+03  0.00000000000E+00 0. -1.
         23    2    1    2    0    0  0.70436090227E+03  0.34117692774E+03  0.45629978288E+03  0.91055237805E+03  0.91488603854E+02 0.  0.
         13    1    3    3    0    0  0.21234619300E+02 -0.44951428746E+01  0.67989330868E+01  0.22745128212E+02  0.00000000000E+00 0.  1.
        -13    1    3    3    0    0  0.68312628297E+03  0.34567207062E+03  0.44950084980E+03  0.88780724984E+03  0.00000000000E+00 0. -1.
         22    1    1    2    0    0 -0.70436090227E+03 -0.34117692774E+03  0.16355959344E+04  0.18132015986E+04  0.00000000000E+00 0.  1.
<mgrwt>
<rscale>  0 0.17443647E+04</rscale>
<asrwt>0</asrwt>
<pdfrwt beam="1">  1        1 0.48604483E-01 0.17443647E+04</pdfrwt>
<pdfrwt beam="2">  1       -1 0.37043458E+00 0.17443647E+04</pdfrwt>
<totfact> 0.88458853E-01</totfact>
</mgrwt>
</event>
<event>
 6    1  0.8968082E-007  0.5023426E+04  0.7818608E-02  0.7824904E-01
         -2   -1    0    0    0  501 -0.00000000000E+00  0.00000000000E+00  0.18998669755E+04  0.18998669755E+04  0.00000000000E+00 0.  1.
          2   -1    0    0  501    0  0.00000000000E+00 -0.00000000000E+00 -0.33206023788E+04  0.33206023788E+04  0.00000000000E+00 0. -1.
         23    2    1    2    0    0 -0.94493068652E+03  0.20330950947E+04 -0.18855140529E+04  0.29308429962E+04  0.91146903754E+02 0.  0.
         13    1    3    3    0    0 -0.54569475557E+03  0.10789616624E+04 -0.98829518264E+03  0.15616236432E+04  0.00000000000E+00 0.  1.
        -13    1    3    3    0    0 -0.39923593095E+03  0.95413343235E+03 -0.89721887025E+03  0.13692193529E+04  0.00000000000E+00 0. -1.
         22    1    1    2    0    0  0.94493068652E+03 -0.20330950947E+04  0.46477864962E+03  0.22896263581E+04  0.00000000000E+00 0. -1.
<mgrwt>
<rscale>  0 0.50234262E+04</rscale>
<asrwt>0</asrwt>
<pdfrwt beam="1">  1        2 0.51086190E+00 0.50234262E+04</pdfrwt>
<pdfrwt beam="2">  1       -2 0.29228723E+00 0.50234262E+04</pdfrwt>
<totfact> 0.27744997E-02</totfact>
</mgrwt>
</event>
<event>
 6    1  0.8968082E-007  0.1501878E+04  0.7818608E-02  0.8883205E-01
          1   -1    0    0  501    0  0.00000000000E+00  0.00000000000E+00  0.10448336143E+04  0.10448336143E+04  0.00000000000E+00 0. -1.
         -1   -1    0    0    0  501 -0.00000000000E+00 -0.00000000000E+00 -0.53971192265E+03  0.53971192265E+03  0.00000000000E+00 0.  1.
         23    2    1    2    0    0  0.21399620085E+03  0.24932717179E+03  0.96284678175E+03  0.10211001796E+04  0.87253877212E+02 0.  0.
         11    1    3    3    0    0  0.41107896002E+02  0.10831950595E+03  0.36715235101E+03  0.38499847186E+03  0.00000000000E+00 0.  1.
        -11    1    3    3    0    0  0.17288830485E+03  0.14100766585E+03  0.59569443074E+03  0.63610170775E+03  0.00000000000E+00 0. -1.
         22    1    1    2    0    0 -0.21399620085E+03 -0.24932717179E+03 -0.45772509012E+03  0.56344535733E+03  0.00000000000E+00 0.  1.
<mgrwt>
<rscale>  0 0.15018777E+04</rscale>
<asrwt>0</asrwt>
<pdfrwt beam="1">  1        1 0.16074363E+00 0.15018777E+04</pdfrwt>
<pdfrwt beam="2">  1       -1 0.83032604E-01 0.15018777E+04</pdfrwt>
<totfact> 0.19459497E+01</totfact>
</mgrwt>
</event>
<event>
 6    1  0.8968082E-007  0.1161831E+04  0.7818608E-02  0.9146937E-01
          1   -1    0    0  501    0  0.00000000000E+00  0.00000000000E+00  0.87405017599E+03  0.87405017599E+03  0.00000000000E+00 0. -1.
         -1   -1    0    0    0  501 -0.00000000000E+00 -0.00000000000E+00 -0.38609115187E+03  0.38609115187E+03  0.00000000000E+00 0.  1.
         23    2    1    2    0    0  0.37644502114E+01 -0.55685559765E+03  0.79519912627E+02  0.56954387961E+03  0.89187928421E+02 0.  0.
         13    1    3    3    0    0 -0.34962732482E+02 -0.14724514046E+03  0.50623949878E+01  0.15142374944E+03  0.00000000000E+00 0. -1.
        -13    1    3    3    0    0  0.38727182693E+02 -0.40961045719E+03  0.74457517639E+02  0.41812013017E+03  0.00000000000E+00 0.  1.
         22    1    1    2    0    0 -0.37644502114E+01  0.55685559765E+03  0.40843911150E+03  0.69059744824E+03  0.00000000000E+00 0. -1.
<mgrwt>
<rscale>  0 0.11618314E+04</rscale>
<asrwt>0</asrwt>
<pdfrwt beam="1">  1        1 0.13446926E+00 0.11618314E+04</pdfrwt>
<pdfrwt beam="2">  1       -1 0.59398639E-01 0.11618314E+04</pdfrwt>
<totfact> 0.54515042E+01</totfact>
</mgrwt>
</event>
<event>
 6    1  0.8968082E-007  0.1293162E+04  0.7818608E-02  0.9035006E-01
          1   -1    0    0  501    0  0.00000000000E+00  0.00000000000E+00  0.74522600739E+03  0.74522600739E+03  0.00000000000E+00 0. -1.
         -1   -1    0    0    0  501 -0.00000000000E+00 -0.00000000000E+00 -0.56099343000E+03  0.56099343000E+03  0.00000000000E+00 0.  1.
         23    2    1    2    0    0  0.28747780637E+02 -0.10089092275E+03  0.73367682306E+03  0.74684979907E+03  0.92182039952E+02 0.  0.
         13    1    3    3    0    0  0.22092531648E+02 -0.11060467724E+03  0.48693352137E+03  0.49982569844E+03  0.00000000000E+00 0. -1.
        -13    1    3    3    0    0  0.66552489889E+01  0.97137544923E+01  0.24674330168E+03  0.24702410063E+03  0.00000000000E+00 0.  1.
         22    1    1    2    0    0 -0.28747780637E+02  0.10089092275E+03 -0.54944424567E+03  0.55936963833E+03  0.00000000000E+00 0.  1.
<mgrwt>
<rscale>  0 0.12931619E+04</rscale>
<asrwt>0</asrwt>
<pdfrwt beam="1">  1        1 0.11465015E+00 0.12931619E+04</pdfrwt>
<pdfrwt beam="2">  1       -1 0.86306682E-01 0.12931619E+04</pdfrwt>
<totfact> 0.32221455E+01</totfact>
</mgrwt>
</event>
<event>
 6    1  0.8968082E-007  0.2219354E+04  0.7818608E-02  0.8510415E-01
          1   -1    0    0  501    0  0.00000000000E+00  0.00000000000E+00  0.51991845961E+03  0.51991845961E+03  0.00000000000E+00 0. -1.
         -1   -1    0    0    0  501 -0.00000000000E+00 -0.00000000000E+00 -0.23684165929E+04  0.23684165929E+04  0.00000000000E+00 0.  1.
         23    2    1    2    0    0 -0.26944200465E+03 -0.35424215802E+03 -0.22453695184E+04  0.22920185287E+04  0.11652536727E+03 0.  0.
         11    1    3    3    0    0 -0.25162148544E+01 -0.68959177009E+02 -0.37159697724E+03  0.37794974921E+03  0.00000000000E+00 0.  1.
        -11    1    3    3    0    0 -0.26692578979E+03 -0.28528298101E+03 -0.18737725411E+04  0.19140687794E+04  0.00000000000E+00 0. -1.
         22    1    1    2    0    0  0.26944200465E+03  0.35424215802E+03  0.39687138506E+03  0.59631652389E+03  0.00000000000E+00 0. -1.
<mgrwt>
<rscale>  0 0.22193544E+04</rscale>
<asrwt>0</asrwt>
<pdfrwt beam="1">  1        1 0.79987455E-01 0.22193544E+04</pdfrwt>
<pdfrwt beam="2">  1       -1 0.36437179E+00 0.22193544E+04</pdfrwt>
<totfact> 0.47666725E-01</totfact>
</mgrwt>
</event>
<event>
 6    1  0.8968082E-007  0.1264815E+04  0.7818608E-02  0.9057942E-01
         -1   -1    0    0    0  501 -0.00000000000E+00  0.00000000000E+00  0.30970483874E+03  0.30970483874E+03  0.00000000000E+00 0.  1.
          1   -1    0    0  501    0  0.00000000000E+00 -0.00000000000E+00 -0.12913562139E+04  0.12913562139E+04  0.00000000000E+00 0. -1.
         23    2    1    2    0    0  0.36600150312E+03 -0.45411144819E+03 -0.19544908153E+03  0.62213901581E+03  0.93178880970E+02 0.  0.
         13    1    3    3    0    0  0.18581632578E+03 -0.19861677465E+03 -0.13523986482E+03  0.30375343806E+03  0.00000000000E+00 0. -1.
        -13    1    3    3    0    0  0.18018517734E+03 -0.25549467353E+03 -0.60209216705E+02  0.31838557774E+03  0.00000000000E+00 0.  1.
         22    1    1    2    0    0 -0.36600150312E+03  0.45411144819E+03 -0.78620229361E+03  0.97892203680E+03  0.00000000000E+00 0. -1.
<mgrwt>
<rscale>  0 0.12648150E+04</rscale>
<asrwt>0</asrwt>
<pdfrwt beam="1">  1        1 0.19867019E+00 0.12648150E+04</pdfrwt>
<pdfrwt beam="2">  1       -1 0.47646898E-01 0.12648150E+04</pdfrwt>
<totfact> 0.39745524E+01</totfact>
</mgrwt>
</event>
<event>
 6    1  0.8968082E-007  0.2116562E+04  0.7818608E-02  0.8553983E-01
         -1   -1    0    0    0  501 -0.00000000000E+00  0.00000000000E+00  0.16992129310E+04  0.16992129310E+04  0.00000000000E+00 0.  1.
          1   -1    0    0  501    0  0.00000000000E+00 -0.00000000000E+00 -0.65910445893E+03  0.65910445893E+03  0.00000000000E+00 0. -1.
         23    2    1    2    0    0  0.42424125392E+03  0.77537600714E+02 -0.55339897152E+03  0.70748163378E+03  0.91033616856E+02 0.  0.
         13    1    3    3    0    0  0.15288827080E+03 -0.10525224435E+02 -0.22819146656E+03  0.27487624326E+03  0.00000000000E+00 0.  1.
        -13    1    3    3    0    0  0.27135298312E+03  0.88062825149E+02 -0.32520750496E+03  0.43260539052E+03  0.00000000000E+00 0. -1.
         22    1    1    2    0    0 -0.42424125392E+03 -0.77537600714E+02  0.15935074436E+04  0.16508357562E+04  0.00000000000E+00 0.  1.
<mgrwt>
<rscale>  0 0.21165621E+04</rscale>
<asrwt>0</asrwt>
<pdfrwt beam="1">  1        1 0.10140069E+00 0.21165621E+04</pdfrwt>
<pdfrwt beam="2">  1       -1 0.26141737E+00 0.21165621E+04</pdfrwt>
<totfact> 0.16094201E+00</totfact>
</mgrwt>
</event>
<event>
 6    1  0.8968082E-007  0.1332792E+04  0.7818608E-02  0.9003957E-01
          1   -1    0    0  501    0  0.00000000000E+00  0.00000000000E+00  0.11349707254E+04  0.11349707254E+04  0.00000000000E+00 0. -1.
         -1   -1    0    0    0  501 -0.00000000000E+00 -0.00000000000E+00 -0.39127348103E+03  0.39127348103E+03  0.00000000000E+00 0.  1.
         23    2    1    2    0    0  0.47842723359E+03 -0.21243002046E+03  0.84028908673E+03  0.99393873452E+03  0.88370398178E+02 0.  0.
         11    1    3    3    0    0  0.19612080030E+03 -0.13208920985E+03  0.34623411862E+03  0.41927197923E+03  0.00000000000E+00 0.  1.
        -11    1    3    3    0    0  0.28230643329E+03 -0.80340810608E+02  0.49405496811E+03  0.57466675529E+03  0.00000000000E+00 0. -1.
         22    1    1    2    0    0 -0.47842723359E+03  0.21243002046E+03 -0.96591842340E+02  0.53230547192E+03  0.00000000000E+00 0.  1.
<mgrwt>
<rscale>  0 0.13327925E+04</rscale>
<asrwt>0</asrwt>
<pdfrwt beam="1">  1        1 0.17461088E+00 0.13327925E+04</pdfrwt>
<pdfrwt beam="2">  1       -1 0.60195921E-01 0.13327925E+04</pdfrwt>
<totfact> 0.32735533E+01</totfact>
</mgrwt>
</event>
<event>
 6    1  0.8968082E-007  0.3123390E+04  0.7818608E-02  0.8209348E-01
         -2   -1    0    0    0  501 -0.00000000000E+00  0.00000000000E+00  0.67106325132E+03  0.67106325132E+03  0.00000000000E+00 0.  1.
          2   -1    0    0  501    0  0.00000000000E+00 -0.00000000000E+00 -0.36343683759E+04  0.36343683759E+04  0.00000000000E+00 0. -1.
         23    2    1    2    0    0 -0.31202132942E+03 -0.13129701989E+04 -0.40304545010E+03  0.14112689411E+04  0.89366302716E+02 0.  0.
         13    1    3    3    0    0 -0.84319422476E+02 -0.54229283475E+03 -0.15644541502E+03  0.57067192984E+03  0.00000000000E+00 0. -1.
        -13    1    3    3    0    0 -0.22770190694E+03 -0.77067736412E+03 -0.24660003508E+03  0.84059701123E+03  0.00000000000E+00 0.  1.
         22    1    1    2    0    0  0.31202132942E+03  0.13129701989E+04 -0.25602596745E+04  0.28941626862E+04  0.00000000000E+00 0.  1.
<mgrwt>
<rscale>  0 0.31233899E+04</rscale>
<asrwt>0</asrwt>
<pdfrwt beam="1">  1        2 0.55913359E+00 0.31233899E+04</pdfrwt>
<pdfrwt beam="2">  1       -2 0.10324050E+00 0.31233899E+04</pdfrwt>
<totfact> 0.42244728E-01</totfact>
</mgrwt>
</event>
<event>
 6    1  0.8968082E-007  0.2231349E+04  0.7818608E-02  0.8505492E-01
         -2   -1    0    0    0  501 -0.00000000000E+00  0.00000000000E+00  0.50241204684E+03  0.50241204684E+03  0.00000000000E+00 0.  1.
          2   -1    0    0  501    0  0.00000000000E+00 -0.00000000000E+00 -0.24775083167E+04  0.24775083167E+04  0.00000000000E+00 0. -1.
         23    2    1    2    0    0 -0.14480357239E+03 -0.90591607435E+03 -0.18325446997E+04  0.20514953755E+04  0.93601233898E+02 0.  0.
         13    1    3    3    0    0 -0.23788456948E+01 -0.74236306358E+02 -0.20845895210E+03  0.22129578125E+03  0.00000000000E+00 0. -1.
        -13    1    3    3    0    0 -0.14242472670E+03 -0.83167976800E+03 -0.16240857476E+04  0.18301995942E+04  0.00000000000E+00 0.  1.
         22    1    1    2    0    0  0.14480357239E+03  0.90591607435E+03 -0.14255157022E+03  0.92842498810E+03  0.00000000000E+00 0.  1.
<mgrwt>
<rscale>  0 0.22313494E+04</rscale>
<asrwt>0</asrwt>
<pdfrwt beam="1">  1        2 0.38115513E+00 0.22313494E+04</pdfrwt>
<pdfrwt beam="2">  1       -2 0.77294161E-01 0.22313494E+04</pdfrwt>
<totfact> 0.48834193E+00</totfact>
</mgrwt>
</event>
<event>
 6    1  0.8968082E-007  0.1919373E+04  0.7818608E-02  0.8645273E-01
          2   -1    0    0  501    0  0.00000000000E+00  0.00000000000E+00  0.65756822332E+03  0.65756822332E+03  0.00000000000E+00 0. -1.
         -2   -1    0    0    0  501 -0.00000000000E+00 -0.00000000000E+00 -0.14006128003E+04  0.14006128003E+04  0.00000000000E+00 0.  1.
         23    2    1    2    0    0 -0.67010728970E+02 -0.83089013059E+03  0.13292565657E+03  0.84896942221E+03  0.90614583623E+02 0.  0.
         11    1    3    3    0    0 -0.41843560894E+02 -0.24706638387E+03  0.43336489959E+01  0.25062215014E+03  0.00000000000E+00 0. -1.
        -11    1    3    3    0    0 -0.25167168076E+02 -0.58382374672E+03  0.12859200757E+03  0.59834727207E+03  0.00000000000E+00 0.  1.
         22    1    1    2    0    0  0.67010728970E+02  0.83089013059E+03 -0.87597023352E+03  0.12092116014E+04  0.00000000000E+00 0.  1.
<mgrwt>
<rscale>  0 0.19193733E+04</rscale>
<asrwt>0</asrwt>
<pdfrwt beam="1">  1        2 0.10116434E+00 0.19193733E+04</pdfrwt>
<pdfrwt beam="2">  1       -2 0.21547889E+00 0.19193733E+04</pdfrwt>
<totfact> 0.43739775E+00</totfact>
</mgrwt>
</event>
<event>
 6    1  0.8968082E-007  0.2222812E+04  0.7818608E-02  0.8508993E-01
          2   -1    0    0  501    0  0.00000000000E+00  0.00000000000E+00  0.36583699850E+04  0.36583699850E+04  0.00000000000E+00 0. -1.
         -2   -1    0    0    0  501 -0.00000000000E+00 -0.00000000000E+00 -0.33764304675E+03  0.33764304675E+03  0.00000000000E+00 0.  1.
         23    2    1    2    0    0  0.25333761022E+03  0.85972614905E+03  0.48752149275E+03  0.10244205138E+04  0.91930338598E+02 0.  0.
         11    1    3    3    0    0  0.10560663162E+03  0.33595184695E+03  0.14151724179E+03  0.37953067575E+03  0.00000000000E+00 0. -1.
        -11    1    3    3    0    0  0.14773097859E+03  0.52377430210E+03  0.34600425096E+03  0.64488983808E+03  0.00000000000E+00 0.  1.
         22    1    1    2    0    0 -0.25333761022E+03 -0.85972614905E+03  0.28332054455E+04  0.29715925179E+04  0.00000000000E+00 0. -1.
<mgrwt>
<rscale>  0 0.22228119E+04</rscale>
<asrwt>0</asrwt>
<pdfrwt beam="1">  1        2 0.56282613E+00 0.22228119E+04</pdfrwt>
<pdfrwt beam="2">  1       -2 0.51945086E-01 0.22228119E+04</pdfrwt>
<totfact> 0.20080675E+00</totfact>
</mgrwt>
</event>
<event>
 6    1  0.8968082E-007  0.2816267E+04  0.7818608E-02  0.8298236E-01
         -2   -1    0    0    0  501 -0.00000000000E+00  0.00000000000E+00  0.94510058757E+03  0.94510058757E+03  0.00000000000E+00 0.  1.
          2   -1    0    0  501    0  0.00000000000E+00 -0.00000000000E+00 -0.20980206175E+04  0.20980206175E+04  0.00000000000E+00 0. -1.
         23    2    1    2    0    0  0.31464911114E+03 -0.22664471813E+03  0.88398043308E+03  0.96963732821E+03  0.91669246773E+02 0.  0.
         13    1    3    3    0    0  0.28984860325E+03 -0.17301527374E+03  0.78257676866E+03  0.85227512963E+03  0.00000000000E+00 0.  1.
        -13    1    3    3    0    0  0.24800507887E+02 -0.53629444389E+02  0.10140366442E+03  0.11736219858E+03  0.00000000000E+00 0. -1.
         22    1    1    2    0    0 -0.31464911114E+03  0.22664471813E+03 -0.20369004630E+04  0.20734838768E+04  0.00000000000E+00 0. -1.
<mgrwt>
<rscale>  0 0.28162674E+04</rscale>
<asrwt>0</asrwt>
<pdfrwt beam="1">  1        2 0.32277240E+00 0.28162674E+04</pdfrwt>
<pdfrwt beam="2">  1       -2 0.14540009E+00 0.28162674E+04</pdfrwt>
<totfact> 0.16653534E+00</totfact>
</mgrwt>
</event>
<event>
 6    1  0.8968082E-007  0.3634772E+04  0.7818608E-02  0.8082573E-01
         -2   -1    0    0    0  501 -0.00000000000E+00  0.00000000000E+00  0.22577411012E+04  0.22577411012E+04  0.00000000000E+00 0.  1.
          2   -1    0    0  501    0  0.00000000000E+00 -0.00000000000E+00 -0.14629186379E+04  0.14629186379E+04  0.00000000000E+00 0. -1.
         23    2    1    2    0    0 -0.63777166574E+03  0.15400100551E+04  0.11360827145E+04  0.20192361509E+04  0.90813167442E+02 0.  0.
         13    1    3    3    0    0 -0.13831292924E+03  0.24632723306E+03  0.18543826910E+03  0.33792739426E+03  0.00000000000E+00 0. -1.
        -13    1    3    3    0    0 -0.49945873650E+03  0.12936828221E+04  0.95064444540E+03  0.16813087566E+04  0.00000000000E+00 0.  1.
         22    1    1    2    0    0  0.63777166574E+03 -0.15400100551E+04 -0.34126025124E+03  0.17014235882E+04  0.00000000000E+00 0. -1.
<mgrwt>
<rscale>  0 0.36347718E+04</rscale>
<asrwt>0</asrwt>
<pdfrwt beam="1">  1        2 0.22506441E+00 0.36347718E+04</pdfrwt>
<pdfrwt beam="2">  1       -2 0.34734479E+00 0.36347718E+04</pdfrwt>
<totfact> 0.17501128E-01</totfact>
</mgrwt>
</event>
<event>
 6    1  0.8968082E-007  0.4229769E+04  0.7818608E-02  0.7959734E-01
         -1   -1    0    0    0  501 -0.00000000000E+00  0.00000000000E+00  0.14619387629E+04  0.14619387629E+04  0.00000000000E+00 0.  1.
          1   -1    0    0  501    0  0.00000000000E+00 -0.00000000000E+00 -0.30594554577E+04  0.30594554577E+04  0.00000000000E+00 0. -1.
         23    2    1    2    0    0 -0.17853674664E+04  0.32343056648E+03 -0.19583194142E+04  0.26714420796E+04  0.97177853635E+02 0.  0.
         11    1    3    3    0    0 -0.29116138610E+03  0.48659539328E+02 -0.26800820300E+03  0.39871180117E+03  0.00000000000E+00 0.  1.
        -11    1    3    3    0    0 -0.14942060803E+04  0.27477102716E+03 -0.16903112112E+04  0.22727302785E+04  0.00000000000E+00 0. -1.
         22    1    1    2    0    0  0.17853674664E+04 -0.32343056648E+03  0.36080271938E+03  0.18499521409E+04  0.00000000000E+00 0.  1.
<mgrwt>
<rscale>  0 0.42297690E+04</rscale>
<asrwt>0</asrwt>
<pdfrwt beam="1">  1        1 0.47068545E+00 0.42297690E+04</pdfrwt>
<pdfrwt beam="2">  1       -1 0.22491366E+00 0.42297690E+04</pdfrwt>
<totfact> 0.42353729E-02</totfact>
</mgrwt>
</event>
<event>
 6    1  0.8968082E-007  0.5226126E+04  0.7818608E-02  0.7794541E-01
          2   -1    0    0  501    0  0.00000000000E+00  0.00000000000E+00  0.36308448302E+04  0.36308448302E+04  0.00000000000E+00 0. -1.
         -2   -1    0    0    0  501 -0.00000000000E+00 -0.00000000000E+00 -0.18805810386E+04  0.18805810386E+04  0.00000000000E+00 0.  1.
         23    2    1    2    0    0  0.80423153806E+03 -0.48167567344E+03 -0.16960220973E+04  0.19399155091E+04  0.89338719264E+02 0.  0.
         13    1    3    3    0    0  0.50425321781E+02 -0.55706538902E+02 -0.15702741169E+03  0.17407911872E+03  0.00000000000E+00 0. -1.
        -13    1    3    3    0    0  0.75380621628E+03 -0.42596913453E+03 -0.15389946856E+04  0.17658363904E+04  0.00000000000E+00 0.  1.
         22    1    1    2    0    0 -0.80423153806E+03  0.48167567344E+03  0.34462858889E+04  0.35715103597E+04  0.00000000000E+00 0. -1.
<mgrwt>
<rscale>  0 0.52261259E+04</rscale>
<asrwt>0</asrwt>
<pdfrwt beam="1">  1        2 0.55859151E+00 0.52261259E+04</pdfrwt>
<pdfrwt beam="2">  1       -2 0.28932016E+00 0.52261259E+04</pdfrwt>
<totfact> 0.17280934E-02</totfact>
</mgrwt>
</event>
<event>
 6    1  0.8968082E-007  0.1832028E+04  0.7818608E-02  0.8689450E-01
         -1   -1    0    0    0  501 -0.00000000000E+00  0.00000000000E+00  0.45181516905E+03  0.45181516905E+03  0.00000000000E+00 0.  1.
          1   -1    0    0  501    0  0.00000000000E+00 -0.00000000000E+00 -0.18571355801E+04  0.18571355801E+04  0.00000000000E+00 0. -1.
         23    2    1    2    0    0 -0.19270392943E+03 -0.84930642072E+03 -0.10530980696E+04  0.13695271075E+04  0.90181779598E+02 0.  0.
         11    1    3    3    0    0 -0.14915737614E+02 -0.24918082449E+03 -0.29641200028E+03  0.38752243346E+03  0.00000000000E+00 0. -1.
        -11    1    3    3    0    0 -0.17778819182E+03 -0.60012559622E+03 -0.75668606928E+03  0.98200467404E+03  0.00000000000E+00 0.  1.
         22    1    1    2    0    0  0.19270392943E+03  0.84930642072E+03 -0.35222234153E+03  0.93942364169E+03  0.00000000000E+00 0.  1.
<mgrwt>
<rscale>  0 0.18320284E+04</rscale>
<asrwt>0</asrwt>
<pdfrwt beam="1">  1        1 0.28571317E+00 0.18320284E+04</pdfrwt>
<pdfrwt beam="2">  1       -1 0.69510024E-01 0.18320284E+04</pdfrwt>
<totfact> 0.73384250E+00</totfact>
</mgrwt>
</event>
<event>
 6    1  0.8968082E-007  0.4359366E+04  0.7818608E-02  0.7935731E-01
         -2   -1    0    0    0  501 -0.00000000000E+00  0.00000000000E+00  0.95960919913E+03  0.95960919913E+03  0.00000000000E+00 0.  1.
          2   -1    0    0  501    0  0.00000000000E+00 -0.00000000000E+00 -0.49509929213E+04  0.49509929213E+04  0.00000000000E+00 0. -1.
         23    2    1    2    0    0 -0.12750513762E+04 -0.11231687910E+03 -0.43870482685E+04  0.45708553060E+04  0.90302960378E+02 0.  0.
         11    1    3    3    0    0 -0.37733708874E+03 -0.15744768711E+02 -0.11645410586E+04  0.12242495879E+04  0.00000000000E+00 0.  1.
        -11    1    3    3    0    0 -0.89771428750E+03 -0.96572110388E+02 -0.32225072099E+04  0.33466057181E+04  0.00000000000E+00 0. -1.
         22    1    1    2    0    0  0.12750513762E+04  0.11231687910E+03  0.39566454641E+03  0.13397468144E+04  0.00000000000E+00 0.  1.
<mgrwt>
<rscale>  0 0.43593662E+04</rscale>
<asrwt>0</asrwt>
<pdfrwt beam="1">  1        2 0.76169122E+00 0.43593662E+04</pdfrwt>
<pdfrwt beam="2">  1       -2 0.14763218E+00 0.43593662E+04</pdfrwt>
<totfact> 0.93376535E-03</totfact>
</mgrwt>
</event>
<event>
 6    1  0.8968082E-007  0.2816532E+04  0.7818608E-02  0.8298154E-01
         -2   -1    0    0    0  501 -0.00000000000E+00  0.00000000000E+00  0.15624267836E+04  0.15624267836E+04  0.00000000000E+00 0.  1.
          2   -1    0    0  501    0  0.00000000000E+00 -0.00000000000E+00 -0.12693162924E+04  0.12693162924E+04  0.00000000000E+00 0. -1.
         23    2    1    2    0    0  0.89736821219E+03  0.56334037815E+03 -0.78377804011E+03  0.13210111345E+04  0.90223674786E+02 0.  0.
         11    1    3    3    0    0  0.60026387161E+03  0.35516482677E+03 -0.46681095225E+03  0.83926827349E+03  0.00000000000E+00 0. -1.
        -11    1    3    3    0    0  0.29710434058E+03  0.20817555138E+03 -0.31696708786E+03  0.48174286105E+03  0.00000000000E+00 0.  1.
         22    1    1    2    0    0 -0.89736821219E+03 -0.56334037815E+03  0.10768885314E+04  0.15107319415E+04  0.00000000000E+00 0.  1.
<mgrwt>
<rscale>  0 0.28165325E+04</rscale>
<asrwt>0</asrwt>
<pdfrwt beam="1">  1        2 0.19527943E+00 0.28165325E+04</pdfrwt>
<pdfrwt beam="2">  1       -2 0.24037335E+00 0.28165325E+04</pdfrwt>
<totfact> 0.11032146E+00</totfact>
</mgrwt>
</event>
<event>
 6    1  0.8968082E-007  0.3133880E+04  0.7818608E-02  0.8206501E-01
          1   -1    0    0  501    0  0.00000000000E+00  0.00000000000E+00  0.22027719515E+04  0.22027719515E+04  0.00000000000E+00 0. -1.
         -1   -1    0    0    0  501 -0.00000000000E+00 -0.00000000000E+00 -0.11146415988E+04  0.11146415988E+04  0.00000000000E+00 0.  1.
         23    2    1    2    0    0  0.11145191635E+04  0.61524642152E+03  0.15091557992E+04  0.19765393759E+04  0.92062767391E+02 0.  0.
         11    1    3    3    0    0  0.43948675507E+03  0.23610577691E+03  0.66126916795E+03  0.82835466936E+03  0.00000000000E+00 0. -1.
        -11    1    3    3    0    0  0.67503240845E+03  0.37914064461E+03  0.84788663123E+03  0.11481847065E+04  0.00000000000E+00 0.  1.
         22    1    1    2    0    0 -0.11145191635E+04 -0.61524642152E+03 -0.42102544651E+03  0.13408741744E+04  0.00000000000E+00 0. -1.
<mgrwt>
<rscale>  0 0.31338802E+04</rscale>
<asrwt>0</asrwt>
<pdfrwt beam="1">  1        1 0.33888799E+00 0.31338802E+04</pdfrwt>
<pdfrwt beam="2">  1       -1 0.17148332E+00 0.31338802E+04</pdfrwt>
<totfact> 0.43790562E-01</totfact>
</mgrwt>
</event>
<event>
 6    1  0.8968082E-007  0.1997364E+04  0.7818608E-02  0.8607854E-01
         -2   -1    0    0    0  501 -0.00000000000E+00  0.00000000000E+00  0.72879772179E+03  0.72879772179E+03  0.00000000000E+00 0.  1.
          2   -1    0    0  501    0  0.00000000000E+00 -0.00000000000E+00 -0.13685087585E+04  0.13685087585E+04  0.00000000000E+00 0. -1.
         23    2    1    2    0    0 -0.97171549433E+03  0.17158389057E+02 -0.86477483280E+02  0.97900742507E+03  0.80322916962E+02 0.  0.
         13    1    3    3    0    0 -0.67032806576E+03  0.45717306418E+01 -0.96139173716E+02  0.67720259686E+03  0.00000000000E+00 0.  1.
        -13    1    3    3    0    0 -0.30138742856E+03  0.12586658416E+02  0.96616904360E+01  0.30180482820E+03  0.00000000000E+00 0. -1.
         22    1    1    2    0    0  0.97171549433E+03 -0.17158389057E+02 -0.55323355340E+03  0.11182990552E+04  0.00000000000E+00 0. -1.
<mgrwt>
<rscale>  0 0.19973643E+04</rscale>
<asrwt>0</asrwt>
<pdfrwt beam="1">  1        2 0.21053981E+00 0.19973643E+04</pdfrwt>
<pdfrwt beam="2">  1       -2 0.11212273E+00 0.19973643E+04</pdfrwt>
<totfact> 0.87945831E+00</totfact>
</mgrwt>
</event>
<event>
 6    1  0.8968082E-007  0.1115823E+04  0.7818608E-02  0.9189905E-01
         -2   -1    0    0    0  501 -0.00000000000E+00  0.00000000000E+00  0.62051714574E+03  0.62051714574E+03  0.00000000000E+00 0.  1.
          2   -1    0    0  501    0  0.00000000000E+00 -0.00000000000E+00 -0.50162236339E+03  0.50162236339E+03  0.00000000000E+00 0. -1.
         23    2    1    2    0    0  0.83933801187E+02 -0.42333154303E+03  0.40951063522E+03  0.60183954541E+03  0.90870235768E+02 0.  0.
         11    1    3    3    0    0  0.59127572884E+02 -0.97007380241E+02  0.98451384612E+02  0.15033022593E+03  0.00000000000E+00 0.  1.
        -11    1    3    3    0    0  0.24806228302E+02 -0.32632416279E+03  0.31105925061E+03  0.45150931948E+03  0.00000000000E+00 0. -1.
         22    1    1    2    0    0 -0.83933801187E+02  0.42333154303E+03 -0.29061585288E+03  0.52029996372E+03  0.00000000000E+00 0. -1.
<mgrwt>
<rscale>  0 0.11158231E+04</rscale>
<asrwt>0</asrwt>
<pdfrwt beam="1">  1        2 0.77172671E-01 0.11158231E+04</pdfrwt>
<pdfrwt beam="2">  1       -2 0.95464176E-01 0.11158231E+04</pdfrwt>
<totfact> 0.56092162E+01</totfact>
</mgrwt>
</event>
<event>
 6    1  0.8968082E-007  0.2358845E+04  0.7818608E-02  0.8455074E-01
          1   -1    0    0  501    0  0.00000000000E+00  0.00000000000E+00  0.24804482014E+04  0.24804482014E+04  0.00000000000E+00 0. -1.
         -1   -1    0    0    0  501 -0.00000000000E+00 -0.00000000000E+00 -0.56080064619E+03  0.56080064619E+03  0.00000000000E+00 0.  1.
         23    2    1    2    0    0 -0.11652702266E+04 -0.76074587315E+02  0.76569222685E+03  0.13995256846E+04  0.93517441371E+02 0.  0.
         11    1    3    3    0    0 -0.99007990591E+02  0.39386328720E+01  0.37929784513E+02  0.10609789622E+03  0.00000000000E+00 0. -1.
        -11    1    3    3    0    0 -0.10662622360E+04 -0.80013220187E+02  0.72776244233E+03  0.12934277884E+04  0.00000000000E+00 0.  1.
         22    1    1    2    0    0  0.11652702266E+04  0.76074587315E+02  0.11539553284E+04  0.16417231630E+04  0.00000000000E+00 0. -1.
<mgrwt>
<rscale>  0 0.23588446E+04</rscale>
<asrwt>0</asrwt>
<pdfrwt beam="1">  1        1 0.38160741E+00 0.23588446E+04</pdfrwt>
<pdfrwt beam="2">  1       -1 0.86277024E-01 0.23588446E+04</pdfrwt>
<totfact> 0.16656527E+00</totfact>
</mgrwt>
</event>
<event>
 6    1  0.8968082E-007  0.1541937E+04  0.7818608E-02  0.8857035E-01
          2   -1    0    0  501    0  0.00000000000E+00  0.00000000000E+00  0.30882489772E+04  0.30882489772E+04  0.00000000000E+00 0. -1.
         -2   -1    0    0    0  501 -0.00000000000E+00 -0.00000000000E+00 -0.19246903219E+03  0.19246903219E+03  0.00000000000E+00 0.  1.
         23    2    1    2    0    0 -0.40049142558E+03 -0.57483167256E+03  0.78125284158E+03  0.10531521395E+04  0.89154880054E+02 0.  0.
         13    1    3    3    0    0 -0.23533927173E+03 -0.29809067209E+03  0.36529300862E+03  0.52695503010E+03  0.00000000000E+00 0. -1.
        -13    1    3    3    0    0 -0.16515215385E+03 -0.27674100048E+03  0.41595983296E+03  0.52619710936E+03  0.00000000000E+00 0.  1.
         22    1    1    2    0    0  0.40049142558E+03  0.57483167256E+03  0.21145271034E+04  0.22275658699E+04  0.00000000000E+00 0. -1.
<mgrwt>
<rscale>  0 0.15419368E+04</rscale>
<asrwt>0</asrwt>
<pdfrwt beam="1">  1        2 0.47511519E+00 0.15419368E+04</pdfrwt>
<pdfrwt beam="2">  1       -2 0.29610623E-01 0.15419368E+04</pdfrwt>
<totfact> 0.15614800E+01</totfact>
</mgrwt>
</event>
<event>
 6    1  0.8968082E-007  0.1169073E+04  0.7818608E-02  0.9140366E-01
          2   -1    0    0  501    0  0.00000000000E+00  0.00000000000E+00  0.16796850796E+04  0.16796850796E+04  0.00000000000E+00 0. -1.
         -2   -1    0    0    0  501 -0.00000000000E+00 -0.00000000000E+00 -0.20342078057E+03  0.20342078057E+03  0.00000000000E+00 0.  1.
         23    2    1    2    0    0  0.20173952395E+03  0.32221618856E+03  0.35057664993E+02  0.39260303573E+03  0.91575084473E+02 0.  0.
         11    1    3    3    0    0  0.15414544484E+03  0.17765105414E+03 -0.48727144633E+01  0.23525402982E+03  0.00000000000E+00 0.  1.
        -11    1    3    3    0    0  0.47594079108E+02  0.14456513442E+03  0.39930379456E+02  0.15734900591E+03  0.00000000000E+00 0. -1.
         22    1    1    2    0    0 -0.20173952395E+03 -0.32221618856E+03  0.14412066340E+04  0.14905028244E+04  0.00000000000E+00 0. -1.
<mgrwt>
<rscale>  0 0.11690729E+04</rscale>
<asrwt>0</asrwt>
<pdfrwt beam="1">  1        2 0.25841308E+00 0.11690729E+04</pdfrwt>
<pdfrwt beam="2">  1       -2 0.31295506E-01 0.11690729E+04</pdfrwt>
<totfact> 0.94257407E+01</totfact>
</mgrwt>
</event>
<event>
 6    1  0.8968082E-007  0.1537429E+04  0.7818608E-02  0.8859937E-01
         -2   -1    0    0    0  501 -0.00000000000E+00  0.00000000000E+00  0.12680472342E+04  0.12680472342E+04  0.00000000000E+00 0.  1.
          2   -1    0    0  501    0  0.00000000000E+00 -0.00000000000E+00 -0.46600955666E+03  0.46600955666E+03  0.00000000000E+00 0. -1.
         23    2    1    2    0    0  0.13088893939E+02 -0.40435187646E+03  0.11360514342E+04  0.12094264937E+04  0.91803177106E+02 0.  0.
         11    1    3    3    0    0  0.52264415258E+02 -0.26402546888E+03  0.74063974208E+03  0.78802807365E+03  0.00000000000E+00 0. -1.
        -11    1    3    3    0    0 -0.39175521319E+02 -0.14032640758E+03  0.39541169213E+03  0.42139842003E+03  0.00000000000E+00 0.  1.
         22    1    1    2    0    0 -0.13088893939E+02  0.40435187646E+03 -0.33401375663E+03  0.52463029722E+03  0.00000000000E+00 0. -1.
<mgrwt>
<rscale>  0 0.15374292E+04</rscale>
<asrwt>0</asrwt>
<pdfrwt beam="1">  1        2 0.71693778E-01 0.15374292E+04</pdfrwt>
<pdfrwt beam="2">  1       -2 0.19508419E+00 0.15374292E+04</pdfrwt>
<totfact> 0.92168034E+00</totfact>
</mgrwt>
</event>
<event>
 6    1  0.8968082E-007  0.2374320E+04  0.7818608E-02  0.8449181E-01
         -2   -1    0    0    0  501 -0.00000000000E+00  0.00000000000E+00  0.11945979573E+04  0.11945979573E+04  0.00000000000E+00 0.  1.
          2   -1    0    0  501    0  0.00000000000E+00 -0.00000000000E+00 -0.11797685621E+04  0.11797685621E+04  0.00000000000E+00 0. -1.
         23    2    1    2    0    0 -0.24648886372E+03  0.78240765718E+03  0.86321082363E+03  0.11942523088E+04  0.90482865927E+02 0.  0.
         13    1    3    3    0    0 -0.13008729609E+03  0.32903786482E+03  0.31849832107E+03  0.47605651094E+03  0.00000000000E+00 0.  1.
        -13    1    3    3    0    0 -0.11640156763E+03  0.45336979236E+03  0.54471250256E+03  0.71819579783E+03  0.00000000000E+00 0. -1.
         22    1    1    2    0    0  0.24648886372E+03 -0.78240765718E+03 -0.84838142839E+03  0.11801142106E+04  0.00000000000E+00 0. -1.
<mgrwt>
<rscale>  0 0.23743202E+04</rscale>
<asrwt>0</asrwt>
<pdfrwt beam="1">  1        2 0.18150286E+00 0.23743202E+04</pdfrwt>
<pdfrwt beam="2">  1       -2 0.18378430E+00 0.23743202E+04</pdfrwt>
<totfact> 0.29975322E+00</totfact>
</mgrwt>
</event>
<event>
 6    1  0.8968082E-007  0.1591569E+04  0.7818608E-02  0.8825744E-01
          2   -1    0    0  501    0  0.00000000000E+00  0.00000000000E+00  0.24497076204E+04  0.24497076204E+04  0.00000000000E+00 0. -1.
         -2   -1    0    0    0  501 -0.00000000000E+00 -0.00000000000E+00 -0.25850974211E+03  0.25850974211E+03  0.00000000000E+00 0.  1.
         23    2    1    2    0    0 -0.51120006831E+03  0.13278644254E+03  0.93591351266E+02  0.54513833220E+03  0.97255904945E+02 0.  0.
         13    1    3    3    0    0 -0.24805343750E+03  0.14939855760E+02  0.50957097759E+02  0.25367367416E+03  0.00000000000E+00 0. -1.
        -13    1    3    3    0    0 -0.26314663080E+03  0.11784658678E+03  0.42634253507E+02  0.29146465805E+03  0.00000000000E+00 0.  1.
         22    1    1    2    0    0  0.51120006831E+03 -0.13278644254E+03  0.20976065270E+04  0.21630790303E+04  0.00000000000E+00 0. -1.
<mgrwt>
<rscale>  0 0.15915694E+04</rscale>
<asrwt>0</asrwt>
<pdfrwt beam="1">  1        2 0.37687808E+00 0.15915694E+04</pdfrwt>
<pdfrwt beam="2">  1       -2 0.39770731E-01 0.15915694E+04</pdfrwt>
<totfact> 0.21404168E+01</totfact>
</mgrwt>
</event>
<event>
 6    1  0.8968082E-007  0.2150301E+04  0.7818608E-02  0.8539403E-01
          2   -1    0    0  501    0  0.00000000000E+00  0.00000000000E+00  0.11087019355E+04  0.11087019355E+04  0.00000000000E+00 0. -1.
         -2   -1    0    0    0  501 -0.00000000000E+00 -0.00000000000E+00 -0.10426148510E+04  0.10426148510E+04  0.00000000000E+00 0.  1.
         23    2    1    2    0    0  0.93540482109E+03  0.51743288388E+03 -0.67610210115E+02  0.10740081329E+04  0.78761413716E+02 0.  0.
         13    1    3    3    0    0  0.18549225186E+03  0.99831827227E+02 -0.44778489627E+02  0.21535756861E+03  0.00000000000E+00 0.  1.
        -13    1    3    3    0    0  0.74991256924E+03  0.41760105665E+03 -0.22831720489E+02  0.85865056425E+03  0.00000000000E+00 0. -1.
         22    1    1    2    0    0 -0.93540482109E+03 -0.51743288388E+03  0.13369729460E+03  0.10773086537E+04  0.00000000000E+00 0. -1.
<mgrwt>
<rscale>  0 0.21503015E+04</rscale>
<asrwt>0</asrwt>
<pdfrwt beam="1">  1        2 0.17056953E+00 0.21503015E+04</pdfrwt>
<pdfrwt beam="2">  1       -2 0.16040229E+00 0.21503015E+04</pdfrwt>
<totfact> 0.49405415E+00</totfact>
</mgrwt>
</event>
<event>
 6    1  0.8968082E-007  0.2521402E+04  0.7818608E-02  0.8395400E-01
         -1   -1    0    0    0  501 -0.00000000000E+00  0.00000000000E+00  0.58377903824E+03  0.58377903824E+03  0.00000000000E+00 0.  1.
          1   -1    0    0  501    0  0.00000000000E+00 -0.00000000000E+00 -0.27225497044E+04  0.27225497044E+04  0.00000000000E+00 0. -1.
         23    2    1    2    0    0 -0.66522580125E+03 -0.10632512143E+04 -0.92631454763E+03  0.15618866110E+04  0.91665876862E+02 0.  0.
         13    1    3    3    0    0 -0.37759527290E+03 -0.55063795763E+03 -0.53739935097E+03  0.85707550013E+03  0.00000000000E+00 0. -1.
        -13    1    3    3    0    0 -0.28763052835E+03 -0.51261325669E+03 -0.38891519666E+03  0.70481111085E+03  0.00000000000E+00 0.  1.
         22    1    1    2    0    0  0.66522580125E+03  0.10632512143E+04 -0.12124561186E+04  0.17444421317E+04  0.00000000000E+00 0. -1.
<mgrwt>
<rscale>  0 0.25214023E+04</rscale>
<asrwt>0</asrwt>
<pdfrwt beam="1">  1        1 0.41885380E+00 0.25214023E+04</pdfrwt>
<pdfrwt beam="2">  1       -1 0.89812159E-01 0.25214023E+04</pdfrwt>
<totfact> 0.10177157E+00</totfact>
</mgrwt>
</event>
<event>
 6    1  0.8968082E-007  0.1972487E+04  0.7818608E-02  0.8619593E-01
          2   -1    0    0  501    0  0.00000000000E+00  0.00000000000E+00  0.14778612984E+04  0.14778612984E+04  0.00000000000E+00 0. -1.
         -2   -1    0    0    0  501 -0.00000000000E+00 -0.00000000000E+00 -0.65816509371E+03  0.65816509371E+03  0.00000000000E+00 0.  1.
         23    2    1    2    0    0  0.75521691900E+03 -0.58971445065E+03  0.16767676433E+03  0.97704188890E+03  0.91540304408E+02 0.  0.
         13    1    3    3    0    0  0.26419993333E+03 -0.25962205910E+03  0.79535493925E+02  0.37885500279E+03  0.00000000000E+00 0. -1.
        -13    1    3    3    0    0  0.49101698567E+03 -0.33009239155E+03  0.88141270402E+02  0.59818688611E+03  0.00000000000E+00 0.  1.
         22    1    1    2    0    0 -0.75521691900E+03  0.58971445065E+03  0.65201944036E+03  0.11589845032E+04  0.00000000000E+00 0.  1.
<mgrwt>
<rscale>  0 0.19724875E+04</rscale>
<asrwt>0</asrwt>
<pdfrwt beam="1">  1        2 0.22736328E+00 0.19724875E+04</pdfrwt>
<pdfrwt beam="2">  1       -2 0.10125617E+00 0.19724875E+04</pdfrwt>
<totfact> 0.97558274E+00</totfact>
</mgrwt>
</event>
<event>
 6    1  0.8968082E-007  0.3495847E+04  0.7818608E-02  0.8114775E-01
         -1   -1    0    0    0  501 -0.00000000000E+00  0.00000000000E+00  0.15956807249E+04  0.15956807249E+04  0.00000000000E+00 0.  1.
          1   -1    0    0  501    0  0.00000000000E+00 -0.00000000000E+00 -0.19146914268E+04  0.19146914268E+04  0.00000000000E+00 0. -1.
         23    2    1    2    0    0 -0.13317368332E+03  0.82264706647E+03  0.13822047687E+04  0.16160074816E+04  0.80664317457E+02 0.  0.
         11    1    3    3    0    0 -0.82838931254E+02  0.27843721406E+03  0.46218011775E+03  0.54589379182E+03  0.00000000000E+00 0.  1.
        -11    1    3    3    0    0 -0.50334752066E+02  0.54420985241E+03  0.92002465090E+03  0.10701136898E+04  0.00000000000E+00 0. -1.
         22    1    1    2    0    0  0.13317368332E+03 -0.82264706647E+03 -0.17012154706E+04  0.18943646701E+04  0.00000000000E+00 0. -1.
<mgrwt>
<rscale>  0 0.34958468E+04</rscale>
<asrwt>0</asrwt>
<pdfrwt beam="1">  1        1 0.29456791E+00 0.34958468E+04</pdfrwt>
<pdfrwt beam="2">  1       -1 0.24548934E+00 0.34958468E+04</pdfrwt>
<totfact> 0.20738231E-01</totfact>
</mgrwt>
</event>
<event>
 6    1  0.8968082E-007  0.1251463E+04  0.7818608E-02  0.9068967E-01
          2   -1    0    0  501    0  0.00000000000E+00  0.00000000000E+00  0.26126934242E+04  0.26126934242E+04  0.00000000000E+00 0. -1.
         -2   -1    0    0    0  501 -0.00000000000E+00 -0.00000000000E+00 -0.14986055635E+03  0.14986055635E+03  0.00000000000E+00 0.  1.
         23    2    1    2    0    0 -0.35201991371E+02  0.62073152420E+03  0.12975986600E+04  0.14418278301E+04  0.92511641887E+02 0.  0.
         11    1    3    3    0    0 -0.89979757601E+01  0.21750684483E+03  0.55954393121E+03  0.60039953537E+03  0.00000000000E+00 0.  1.
        -11    1    3    3    0    0 -0.26204015611E+02  0.40322467937E+03  0.73805472881E+03  0.84142829475E+03  0.00000000000E+00 0. -1.
         22    1    1    2    0    0  0.35201991371E+02 -0.62073152420E+03  0.11652342078E+04  0.13207261504E+04  0.00000000000E+00 0. -1.
<mgrwt>
<rscale>  0 0.12514626E+04</rscale>
<asrwt>0</asrwt>
<pdfrwt beam="1">  1        2 0.40195280E+00 0.12514626E+04</pdfrwt>
<pdfrwt beam="2">  1       -2 0.23055472E-01 0.12514626E+04</pdfrwt>
<totfact> 0.49180830E+01</totfact>
</mgrwt>
</event>
<event>
 6    1  0.8968082E-007  0.1837357E+04  0.7818608E-02  0.8686682E-01
          1   -1    0    0  501    0  0.00000000000E+00  0.00000000000E+00  0.84263059971E+03  0.84263059971E+03  0.00000000000E+00 0. -1.
         -1   -1    0    0    0  501 -0.00000000000E+00 -0.00000000000E+00 -0.10015895590E+04  0.10015895590E+04  0.00000000000E+00 0.  1.
         23    2    1    2    0    0 -0.13060821559E+03 -0.24875600688E+03 -0.95510698620E+03  0.99995139946E+03  0.93463304319E+02 0.  0.
         11    1    3    3    0    0 -0.58492564141E+02 -0.19212558420E+03 -0.57948445012E+03  0.61329915058E+03  0.00000000000E+00 0. -1.
        -11    1    3    3    0    0 -0.72115651447E+02 -0.56630422677E+02 -0.37562253608E+03  0.38665224888E+03  0.00000000000E+00 0.  1.
         22    1    1    2    0    0  0.13060821559E+03  0.24875600688E+03  0.79614802696E+03  0.84426875921E+03  0.00000000000E+00 0. -1.
<mgrwt>
<rscale>  0 0.18373568E+04</rscale>
<asrwt>0</asrwt>
<pdfrwt beam="1">  1        1 0.12963548E+00 0.18373568E+04</pdfrwt>
<pdfrwt beam="2">  1       -1 0.15409070E+00 0.18373568E+04</pdfrwt>
<totfact> 0.61982167E+00</totfact>
</mgrwt>
</event>
<event>
 6    1  0.8968082E-007  0.3130811E+04  0.7818608E-02  0.8207333E-01
         -2   -1    0    0    0  501 -0.00000000000E+00  0.00000000000E+00  0.14181417467E+04  0.14181417467E+04  0.00000000000E+00 0.  1.
          2   -1    0    0  501    0  0.00000000000E+00 -0.00000000000E+00 -0.17279612075E+04  0.17279612075E+04  0.00000000000E+00 0. -1.
         23    2    1    2    0    0  0.39809660079E+02 -0.53440223698E+03 -0.16316492734E+04  0.17197773906E+04  0.90467463335E+02 0.  0.
         13    1    3    3    0    0  0.38693473956E+01 -0.20680543507E+03 -0.76859540629E+03  0.79594117772E+03  0.00000000000E+00 0.  1.
        -13    1    3    3    0    0  0.35940312683E+02 -0.32759680191E+03 -0.86305386708E+03  0.92383621285E+03  0.00000000000E+00 0. -1.
         22    1    1    2    0    0 -0.39809660079E+02  0.53440223698E+03  0.13218298126E+04  0.14263255636E+04  0.00000000000E+00 0.  1.
<mgrwt>
<rscale>  0 0.31308107E+04</rscale>
<asrwt>0</asrwt>
<pdfrwt beam="1">  1        2 0.26584018E+00 0.31308107E+04</pdfrwt>
<pdfrwt beam="2">  1       -2 0.21817565E+00 0.31308107E+04</pdfrwt>
<totfact> 0.81343578E-01</totfact>
</mgrwt>
</event>
<event>
 6    1  0.8968082E-007  0.1953866E+04  0.7818608E-02  0.8628499E-01
          2   -1    0    0  501    0  0.00000000000E+00  0.00000000000E+00  0.12007314361E+04  0.12007314361E+04  0.00000000000E+00 0. -1.
         -2   -1    0    0    0  501 -0.00000000000E+00 -0.00000000000E+00 -0.79484757686E+03  0.79484757686E+03  0.00000000000E+00 0.  1.
         23    2    1    2    0    0 -0.74082020389E+03  0.49543120467E+03  0.60643546324E+03  0.10820760852E+04  0.94117108494E+02 0.  0.
         11    1    3    3    0    0 -0.55764900743E+03  0.32467778825E+03  0.42094807293E+03  0.77044491158E+03  0.00000000000E+00 0.  1.
        -11    1    3    3    0    0 -0.18317119646E+03  0.17075341642E+03  0.18548739031E+03  0.31163117366E+03  0.00000000000E+00 0. -1.
         22    1    1    2    0    0  0.74082020389E+03 -0.49543120467E+03 -0.20055160403E+03  0.91350292771E+03  0.00000000000E+00 0.  1.
<mgrwt>
<rscale>  0 0.19538664E+04</rscale>
<asrwt>0</asrwt>
<pdfrwt beam="1">  1        2 0.18472791E+00 0.19538664E+04</pdfrwt>
<pdfrwt beam="2">  1       -2 0.12228424E+00 0.19538664E+04</pdfrwt>
<totfact> 0.89405472E+00</totfact>
</mgrwt>
</event>
<event>
 6    1  0.8968082E-007  0.2269206E+04  0.7818608E-02  0.8490163E-01
         -1   -1    0    0    0  501 -0.00000000000E+00  0.00000000000E+00  0.78297388074E+03  0.78297388074E+03  0.00000000000E+00 0.  1.
          1   -1    0    0  501    0  0.00000000000E+00 -0.00000000000E+00 -0.16441466302E+04  0.16441466302E+04  0.00000000000E+00 0. -1.
         23    2    1    2    0    0 -0.56197652100E+03  0.47806643329E+03  0.48812056346E+03  0.88927865656E+03  0.90497070403E+02 0.  0.
         11    1    3    3    0    0 -0.15579339759E+03  0.13096000901E+03  0.87810413484E+02  0.22165914240E+03  0.00000000000E+00 0.  1.
        -11    1    3    3    0    0 -0.40618312341E+03  0.34710642428E+03  0.40031014997E+03  0.66761951416E+03  0.00000000000E+00 0. -1.
         22    1    1    2    0    0  0.56197652100E+03 -0.47806643329E+03 -0.13492933129E+04  0.15378418544E+04  0.00000000000E+00 0. -1.
<mgrwt>
<rscale>  0 0.22692059E+04</rscale>
<asrwt>0</asrwt>
<pdfrwt beam="1">  1        1 0.25294563E+00 0.22692059E+04</pdfrwt>
<pdfrwt beam="2">  1       -1 0.12045752E+00 0.22692059E+04</pdfrwt>
<totfact> 0.28925768E+00</totfact>
</mgrwt>
</event>
<event>
 6    1  0.8968082E-007  0.2185036E+04  0.7818608E-02  0.8524682E-01
          2   -1    0    0  501    0  0.00000000000E+00  0.00000000000E+00  0.26001329010E+04  0.26001329010E+04  0.00000000000E+00 0. -1.
         -2   -1    0    0    0  501 -0.00000000000E+00 -0.00000000000E+00 -0.45905182587E+03  0.45905182587E+03  0.00000000000E+00 0.  1.
         23    2    1    2    0    0 -0.81792492543E+03 -0.70845148185E+03  0.88237206732E+03  0.13992892326E+04  0.92332038756E+02 0.  0.
         13    1    3    3    0    0 -0.66775413371E+03 -0.54699727235E+03  0.66482261353E+03  0.10895369230E+04  0.00000000000E+00 0. -1.
        -13    1    3    3    0    0 -0.15017079172E+03 -0.16145420950E+03  0.21754945379E+03  0.30975230958E+03  0.00000000000E+00 0.  1.
         22    1    1    2    0    0  0.81792492543E+03  0.70845148185E+03  0.12587090079E+04  0.16598954944E+04  0.00000000000E+00 0.  1.
<mgrwt>
<rscale>  0 0.21850362E+04</rscale>
<asrwt>0</asrwt>
<pdfrwt beam="1">  1        2 0.40002044E+00 0.21850362E+04</pdfrwt>
<pdfrwt beam="2">  1       -2 0.70623359E-01 0.21850362E+04</pdfrwt>
<totfact> 0.50782289E+00</totfact>
</mgrwt>
</event>
<event>
 6    1  0.8968082E-007  0.3480305E+04  0.7818608E-02  0.8118473E-01
         -2   -1    0    0    0  501 -0.00000000000E+00  0.00000000000E+00  0.10834651507E+04  0.10834651507E+04  0.00000000000E+00 0.  1.
          2   -1    0    0  501    0  0.00000000000E+00 -0.00000000000E+00 -0.27948567662E+04  0.27948567662E+04  0.00000000000E+00 0. -1.
         23    2    1    2    0    0 -0.73318462601E+03  0.43456656055E+02 -0.26128524876E+04  0.27155322192E+04  0.87572454511E+02 0.  0.
         13    1    3    3    0    0 -0.55347663751E+03  0.54190041629E+01 -0.20536373707E+04  0.21269208270E+04  0.00000000000E+00 0. -1.
        -13    1    3    3    0    0 -0.17970798850E+03  0.38037651892E+02 -0.55921511695E+03  0.58861139228E+03  0.00000000000E+00 0.  1.
         22    1    1    2    0    0  0.73318462601E+03 -0.43456656055E+02  0.90146087215E+03  0.11627896976E+04  0.00000000000E+00 0.  1.
<mgrwt>
<rscale>  0 0.34803045E+04</rscale>
<asrwt>0</asrwt>
<pdfrwt beam="1">  1        2 0.42997796E+00 0.34803045E+04</pdfrwt>
<pdfrwt beam="2">  1       -2 0.16668695E+00 0.34803045E+04</pdfrwt>
<totfact> 0.43131736E-01</totfact>
</mgrwt>
</event>
<event>
 6    1  0.8968082E-007  0.3088429E+04  0.7818608E-02  0.8218921E-01
         -2   -1    0    0    0  501 -0.00000000000E+00  0.00000000000E+00  0.72802853934E+03  0.72802853934E+03  0.00000000000E+00 0.  1.
          2   -1    0    0  501    0  0.00000000000E+00 -0.00000000000E+00 -0.32754192744E+04  0.32754192744E+04  0.00000000000E+00 0. -1.
         23    2    1    2    0    0  0.63477141730E+03  0.80053276736E+03  0.22392964614E+03  0.10498052966E+04  0.90328348083E+02 0.  0.
         13    1    3    3    0    0  0.60931146423E+02  0.12462513120E+03  0.22034818095E+02  0.14046195620E+03  0.00000000000E+00 0. -1.
        -13    1    3    3    0    0  0.57384027088E+03  0.67590763616E+03  0.20189482804E+03  0.90934334038E+03  0.00000000000E+00 0.  1.
         22    1    1    2    0    0 -0.63477141730E+03 -0.80053276736E+03 -0.27713203812E+04  0.29536425171E+04  0.00000000000E+00 0. -1.
<mgrwt>
<rscale>  0 0.30884292E+04</rscale>
<asrwt>0</asrwt>
<pdfrwt beam="1">  1        2 0.50391065E+00 0.30884292E+04</pdfrwt>
<pdfrwt beam="2">  1       -2 0.11200439E+00 0.30884292E+04</pdfrwt>
<totfact> 0.61755313E-01</totfact>
</mgrwt>
</event>
<event>
 6    1  0.8968082E-007  0.1416810E+04  0.7818608E-02  0.8941740E-01
          2   -1    0    0  501    0  0.00000000000E+00  0.00000000000E+00  0.98616501733E+03  0.98616501733E+03  0.00000000000E+00 0. -1.
         -2   -1    0    0    0  501 -0.00000000000E+00 -0.00000000000E+00 -0.50887798924E+03  0.50887798924E+03  0.00000000000E+00 0.  1.
         23    2    1    2    0    0 -0.31988019160E+03  0.38585618796E+03  0.76478856593E+03  0.91723207813E+03  0.72144298475E+02 0.  0.
         11    1    3    3    0    0 -0.19025828981E+03  0.24295094972E+03  0.40720919645E+03  0.51092339004E+03  0.00000000000E+00 0. -1.
        -11    1    3    3    0    0 -0.12962190179E+03  0.14290523823E+03  0.35757936949E+03  0.40630868809E+03  0.00000000000E+00 0.  1.
         22    1    1    2    0    0  0.31988019160E+03 -0.38585618796E+03 -0.28750153785E+03  0.57781092844E+03  0.00000000000E+00 0.  1.
<mgrwt>
<rscale>  0 0.14168100E+04</rscale>
<asrwt>0</asrwt>
<pdfrwt beam="1">  1        2 0.15171770E+00 0.14168100E+04</pdfrwt>
<pdfrwt beam="2">  1       -2 0.78288921E-01 0.14168100E+04</pdfrwt>
<totfact> 0.36279589E+01</totfact>
</mgrwt>
</event>
<event>
 6    1  0.8968082E-007  0.2508031E+04  0.7818608E-02  0.8400130E-01
          1   -1    0    0  501    0  0.00000000000E+00  0.00000000000E+00  0.15563548449E+04  0.15563548449E+04  0.00000000000E+00 0. -1.
         -1   -1    0    0    0  501 -0.00000000000E+00 -0.00000000000E+00 -0.10104091265E+04  0.10104091265E+04  0.00000000000E+00 0.  1.
         23    2    1    2    0    0 -0.17038372430E+03 -0.27092627896E+03  0.15124880857E+04  0.15486108346E+04  0.90242147907E+02 0.  0.
         13    1    3    3    0    0 -0.14168299935E+03 -0.16943206476E+03  0.87432287840E+03  0.90178810846E+03  0.00000000000E+00 0. -1.
        -13    1    3    3    0    0 -0.28700724953E+02 -0.10149421420E+03  0.63816520734E+03  0.64682272609E+03  0.00000000000E+00 0.  1.
         22    1    1    2    0    0  0.17038372430E+03  0.27092627896E+03 -0.96654236739E+03  0.10181531369E+04  0.00000000000E+00 0.  1.
<mgrwt>
<rscale>  0 0.25080312E+04</rscale>
<asrwt>0</asrwt>
<pdfrwt beam="1">  1        1 0.23943921E+00 0.25080312E+04</pdfrwt>
<pdfrwt beam="2">  1       -1 0.15544756E+00 0.25080312E+04</pdfrwt>
<totfact> 0.16808921E+00</totfact>
</mgrwt>
</event>
<event>
 6    1  0.8968082E-007  0.1712857E+04  0.7818608E-02  0.8754066E-01
         -2   -1    0    0    0  501 -0.00000000000E+00  0.00000000000E+00  0.18642775993E+03  0.18642775993E+03  0.00000000000E+00 0.  1.
          2   -1    0    0  501    0  0.00000000000E+00 -0.00000000000E+00 -0.39343355021E+04  0.39343355021E+04  0.00000000000E+00 0. -1.
         23    2    1    2    0    0  0.53695854644E+03  0.57139761311E+03 -0.10649369069E+04  0.13255616207E+04  0.90571969833E+02 0.  0.
         11    1    3    3    0    0  0.23516579683E+03  0.18767726070E+03 -0.38954607082E+03  0.49221118178E+03  0.00000000000E+00 0. -1.
        -11    1    3    3    0    0  0.30179274961E+03  0.38372035241E+03 -0.67539083612E+03  0.83335043894E+03  0.00000000000E+00 0.  1.
         22    1    1    2    0    0 -0.53695854644E+03 -0.57139761311E+03 -0.26829708352E+04  0.27952016413E+04  0.00000000000E+00 0. -1.
<mgrwt>
<rscale>  0 0.17128565E+04</rscale>
<asrwt>0</asrwt>
<pdfrwt beam="1">  1        2 0.60528241E+00 0.17128565E+04</pdfrwt>
<pdfrwt beam="2">  1       -2 0.28681193E-01 0.17128565E+04</pdfrwt>
<totfact> 0.41587387E+00</totfact>
</mgrwt>
</event>
<event>
 6    1  0.8968082E-007  0.7093607E+03  0.7818608E-02  0.9701357E-01
         -1   -1    0    0    0  501 -0.00000000000E+00  0.00000000000E+00  0.19570905046E+03  0.19570905046E+03  0.00000000000E+00 0.  1.
          1   -1    0    0  501    0  0.00000000000E+00 -0.00000000000E+00 -0.64278143146E+03  0.64278143146E+03  0.00000000000E+00 0. -1.
         23    2    1    2    0    0  0.14258596451E+03  0.13090631317E+03  0.11582352595E+03  0.24324345575E+03  0.91022357139E+02 0.  0.
         11    1    3    3    0    0  0.41762522367E+02 -0.23332856465E+01  0.45944007829E+02  0.62132152318E+02  0.00000000000E+00 0. -1.
        -11    1    3    3    0    0  0.10082344214E+03  0.13323959881E+03  0.69879518122E+02  0.18111130343E+03  0.00000000000E+00 0.  1.
         22    1    1    2    0    0 -0.14258596451E+03 -0.13090631317E+03 -0.56289590695E+03  0.59524702617E+03  0.00000000000E+00 0. -1.
<mgrwt>
<rscale>  0 0.70936068E+03</rscale>
<asrwt>0</asrwt>
<pdfrwt beam="1">  1        1 0.98889450E-01 0.70936068E+03</pdfrwt>
<pdfrwt beam="2">  1       -1 0.30109085E-01 0.70936068E+03</pdfrwt>
<totfact> 0.31750891E+02</totfact>
</mgrwt>
</event>
<event>
 6    1  0.8968082E-007  0.3197885E+04  0.7818608E-02  0.8189376E-01
          2   -1    0    0  501    0  0.00000000000E+00  0.00000000000E+00  0.23452857814E+04  0.23452857814E+04  0.00000000000E+00 0. -1.
         -2   -1    0    0    0  501 -0.00000000000E+00 -0.00000000000E+00 -0.10901093315E+04  0.10901093315E+04  0.00000000000E+00 0.  1.
         23    2    1    2    0    0  0.10057201412E+04 -0.44493570413E+03  0.18730463096E+04  0.21739657861E+04  0.91564065632E+02 0.  0.
         11    1    3    3    0    0  0.22661108767E+03 -0.87924504222E+02  0.48870935441E+03  0.54582060843E+03  0.00000000000E+00 0.  1.
        -11    1    3    3    0    0  0.77910905355E+03 -0.35701119991E+03  0.13843369551E+04  0.16281451777E+04  0.00000000000E+00 0. -1.
         22    1    1    2    0    0 -0.10057201412E+04  0.44493570413E+03 -0.61786985964E+03  0.12614293269E+04  0.00000000000E+00 0.  1.
<mgrwt>
<rscale>  0 0.31978855E+04</rscale>
<asrwt>0</asrwt>
<pdfrwt beam="1">  1        2 0.36081320E+00 0.31978855E+04</pdfrwt>
<pdfrwt beam="2">  1       -2 0.16770913E+00 0.31978855E+04</pdfrwt>
<totfact> 0.79633221E-01</totfact>
</mgrwt>
</event>
<event>
 6    1  0.8968082E-007  0.2278245E+04  0.7818608E-02  0.8486549E-01
          2   -1    0    0  501    0  0.00000000000E+00  0.00000000000E+00  0.78561070071E+03  0.78561070071E+03  0.00000000000E+00 0. -1.
         -2   -1    0    0    0  501 -0.00000000000E+00 -0.00000000000E+00 -0.16517084100E+04  0.16517084100E+04  0.00000000000E+00 0.  1.
         23    2    1    2    0    0 -0.20316177350E+03 -0.10272078213E+04 -0.90882230476E+03  0.13893420092E+04  0.88784134430E+02 0.  0.
         13    1    3    3    0    0 -0.48221143496E+02 -0.12425509652E+03 -0.14051005176E+03  0.19366900201E+03  0.00000000000E+00 0. -1.
        -13    1    3    3    0    0 -0.15494063001E+03 -0.90295272473E+03 -0.76831225299E+03  0.11956730072E+04  0.00000000000E+00 0.  1.
         22    1    1    2    0    0  0.20316177350E+03  0.10272078213E+04  0.42724595501E+02  0.10479771015E+04  0.00000000000E+00 0.  1.
<mgrwt>
<rscale>  0 0.22782448E+04</rscale>
<asrwt>0</asrwt>
<pdfrwt beam="1">  1        2 0.12086318E+00 0.22782448E+04</pdfrwt>
<pdfrwt beam="2">  1       -2 0.25410899E+00 0.22782448E+04</pdfrwt>
<totfact> 0.19428050E+00</totfact>
</mgrwt>
</event>
<event>
 6    1  0.8968082E-007  0.1830266E+04  0.7818608E-02  0.8690368E-01
         -3   -1    0    0    0  501 -0.00000000000E+00  0.00000000000E+00  0.10600552525E+04  0.10600552525E+04  0.00000000000E+00 0.  1.
          3   -1    0    0  501    0  0.00000000000E+00 -0.00000000000E+00 -0.79002362559E+03  0.79002362559E+03  0.00000000000E+00 0. -1.
         23    2    1    2    0    0 -0.81385053752E+03  0.40646254759E+03  0.21132230814E+03  0.93848067484E+03  0.92327455910E+02 0.  0.
         13    1    3    3    0    0 -0.52251541241E+03  0.30836199451E+03  0.12986351592E+03  0.62046273750E+03  0.00000000000E+00 0.  1.
        -13    1    3    3    0    0 -0.29133512511E+03  0.98100553086E+02  0.81458792222E+02  0.31801793734E+03  0.00000000000E+00 0. -1.
         22    1    1    2    0    0  0.81385053752E+03 -0.40646254759E+03  0.58709318755E+02  0.91159820323E+03  0.00000000000E+00 0.  1.
<mgrwt>
<rscale>  0 0.18302663E+04</rscale>
<asrwt>0</asrwt>
<pdfrwt beam="1">  1        3 0.12154210E+00 0.18302663E+04</pdfrwt>
<pdfrwt beam="2">  1       -3 0.16308542E+00 0.18302663E+04</pdfrwt>
<totfact> 0.34986670E-01</totfact>
</mgrwt>
</event>
<event>
 6    1  0.8968082E-007  0.3323569E+04  0.7818608E-02  0.8156924E-01
         -1   -1    0    0    0  501 -0.00000000000E+00  0.00000000000E+00  0.27922613725E+04  0.27922613725E+04  0.00000000000E+00 0.  1.
          1   -1    0    0  501    0  0.00000000000E+00 -0.00000000000E+00 -0.98899312639E+03  0.98899312639E+03  0.00000000000E+00 0. -1.
         23    2    1    2    0    0 -0.16033225768E+04 -0.39726799306E+03  0.10963183871E+04  0.19845232317E+04  0.89181318453E+02 0.  0.
         11    1    3    3    0    0 -0.21112050883E+03 -0.82776259172E+02  0.15996567482E+03  0.27751179335E+03  0.00000000000E+00 0.  1.
        -11    1    3    3    0    0 -0.13922020679E+04 -0.31449173389E+03  0.93635271232E+03  0.17070114383E+04  0.00000000000E+00 0. -1.
         22    1    1    2    0    0  0.16033225768E+04  0.39726799306E+03  0.70694985898E+03  0.17967312672E+04  0.00000000000E+00 0. -1.
<mgrwt>
<rscale>  0 0.33235687E+04</rscale>
<asrwt>0</asrwt>
<pdfrwt beam="1">  1        1 0.15215279E+00 0.33235687E+04</pdfrwt>
<pdfrwt beam="2">  1       -1 0.42957867E+00 0.33235687E+04</pdfrwt>
<totfact> 0.57166728E-02</totfact>
</mgrwt>
</event>
<event>
 6    1  0.1443750E-006  0.3495363E+04  0.7818608E-02  0.8114890E-01
          2   -1    0    0  501    0  0.00000000000E+00  0.00000000000E+00  0.15304838481E+04  0.15304838481E+04  0.00000000000E+00 0. -1.
         -2   -1    0    0    0  501 -0.00000000000E+00 -0.00000000000E+00 -0.19957027604E+04  0.19957027604E+04  0.00000000000E+00 0.  1.
         23    2    1    2    0    0 -0.63558886794E+03 -0.52841116333E+03 -0.17848814615E+04  0.19690415253E+04  0.90172778039E+02 0.  0.
         11    1    3    3    0    0 -0.46635662560E+03 -0.34443195951E+03 -0.11875407945E+04  0.13215048299E+04  0.00000000000E+00 0. -1.
        -11    1    3    3    0    0 -0.16923224234E+03 -0.18397920382E+03 -0.59734066708E+03  0.64753669535E+03  0.00000000000E+00 0.  1.
         22    1    1    2    0    0  0.63558886794E+03  0.52841116333E+03  0.13196625492E+04  0.15571450832E+04  0.00000000000E+00 0. -1.
<mgrwt>
<rscale>  0 0.34953631E+04</rscale>
<asrwt>0</asrwt>
<pdfrwt beam="1">  1        2 0.23545906E+00 0.34953631E+04</pdfrwt>
<pdfrwt beam="2">  1       -2 0.30703119E+00 0.34953631E+04</pdfrwt>
<totfact> 0.28859975E-01</totfact>
</mgrwt>
</event>
<event>
 6    1  0.8968082E-007  0.1697723E+04  0.7818608E-02  0.8762664E-01
         -1   -1    0    0    0  501 -0.00000000000E+00  0.00000000000E+00  0.48497389997E+03  0.48497389997E+03  0.00000000000E+00 0.  1.
          1   -1    0    0  501    0  0.00000000000E+00 -0.00000000000E+00 -0.14857822408E+04  0.14857822408E+04  0.00000000000E+00 0. -1.
         23    2    1    2    0    0 -0.82335295695E+03  0.16946233062E+03 -0.61634697673E+03  0.10463979236E+04  0.91855568956E+02 0.  0.
         11    1    3    3    0    0 -0.29987802714E+03  0.16920006526E+02 -0.22163722254E+03  0.37327761277E+03  0.00000000000E+00 0.  1.
        -11    1    3    3    0    0 -0.52347492981E+03  0.15254232409E+03 -0.39470975419E+03  0.67312031082E+03  0.00000000000E+00 0. -1.
         22    1    1    2    0    0  0.82335295695E+03 -0.16946233062E+03 -0.38446136415E+03  0.92435821722E+03  0.00000000000E+00 0. -1.
<mgrwt>
<rscale>  0 0.16977227E+04</rscale>
<asrwt>0</asrwt>
<pdfrwt beam="1">  1        1 0.22858188E+00 0.16977227E+04</pdfrwt>
<pdfrwt beam="2">  1       -1 0.74611369E-01 0.16977227E+04</pdfrwt>
<totfact> 0.11512168E+01</totfact>
</mgrwt>
</event>
<event>
 6    1  0.8968082E-007  0.3457759E+03  0.7818608E-02  0.1064362E+00
          1   -1    0    0  501    0  0.00000000000E+00  0.00000000000E+00  0.11236976711E+04  0.11236976711E+04  0.00000000000E+00 0. -1.
         -1   -1    0    0    0  501 -0.00000000000E+00 -0.00000000000E+00 -0.26599893270E+02  0.26599893270E+02  0.00000000000E+00 0.  1.
         23    2    1    2    0    0  0.12067098690E+02 -0.15606190003E+03  0.48082894589E+03  0.51446094641E+03  0.94724118726E+02 0.  0.
         11    1    3    3    0    0  0.80431141419E+01 -0.16813853974E+03  0.46219810358E+03  0.49189668345E+03  0.00000000000E+00 0. -1.
        -11    1    3    3    0    0  0.40239845479E+01  0.12076639706E+02  0.18630842303E+02  0.22564262965E+02  0.00000000000E+00 0.  1.
         22    1    1    2    0    0 -0.12067098690E+02  0.15606190003E+03  0.61626883190E+03  0.63583661792E+03  0.00000000000E+00 0. -1.
<mgrwt>
<rscale>  0 0.34577587E+03</rscale>
<asrwt>0</asrwt>
<pdfrwt beam="1">  1        1 0.17287653E+00 0.34577587E+03</pdfrwt>
<pdfrwt beam="2">  1       -1 0.40922921E-02 0.34577587E+03</pdfrwt>
<totfact> 0.30903233E+03</totfact>
</mgrwt>
</event>
<event>
 6    1  0.2191649E-006  0.4714294E+04  0.7818608E-02  0.7874158E-01
         -2   -1    0    0    0  501 -0.00000000000E+00  0.00000000000E+00  0.17595073700E+04  0.17595073700E+04  0.00000000000E+00 0.  1.
          2   -1    0    0  501    0  0.00000000000E+00 -0.00000000000E+00 -0.31577824421E+04  0.31577824421E+04  0.00000000000E+00 0. -1.
         23    2    1    2    0    0 -0.76545743657E+03  0.60400758064E+03  0.15380250479E+04  0.18233265545E+04  0.90820877610E+02 0.  0.
         11    1    3    3    0    0 -0.50074049019E+03  0.38128582213E+03  0.10690473841E+04  0.12405572240E+04  0.00000000000E+00 0. -1.
        -11    1    3    3    0    0 -0.26471694637E+03  0.22272175850E+03  0.46897766384E+03  0.58276933052E+03  0.00000000000E+00 0.  1.
         22    1    1    2    0    0  0.76545743657E+03 -0.60400758064E+03 -0.29363001199E+04  0.30939632575E+04  0.00000000000E+00 0. -1.
<mgrwt>
<rscale>  0 0.47142938E+04</rscale>
<asrwt>0</asrwt>
<pdfrwt beam="1">  1        2 0.48581268E+00 0.47142938E+04</pdfrwt>
<pdfrwt beam="2">  1       -2 0.27069344E+00 0.47142938E+04</pdfrwt>
<totfact> 0.49332776E-02</totfact>
</mgrwt>
</event>
<event>
 6    1  0.8968082E-007  0.1865956E+04  0.7818608E-02  0.8671990E-01
          2   -1    0    0  501    0  0.00000000000E+00  0.00000000000E+00  0.87073583436E+03  0.87073583436E+03  0.00000000000E+00 0. -1.
         -2   -1    0    0    0  501 -0.00000000000E+00 -0.00000000000E+00 -0.99966943485E+03  0.99966943485E+03  0.00000000000E+00 0.  1.
         23    2    1    2    0    0  0.69517378446E+03 -0.61200070541E+03  0.30465024545E+02  0.93060775076E+03  0.85388606048E+02 0.  0.
         13    1    3    3    0    0  0.36134060697E+03 -0.34519696014E+03  0.53828574181E+02  0.50261863369E+03  0.00000000000E+00 0. -1.
        -13    1    3    3    0    0  0.33383317748E+03 -0.26680374527E+03 -0.23363549636E+02  0.42798911707E+03  0.00000000000E+00 0.  1.
         22    1    1    2    0    0 -0.69517378446E+03  0.61200070541E+03 -0.15939862504E+03  0.93979751844E+03  0.00000000000E+00 0.  1.
<mgrwt>
<rscale>  0 0.18659561E+04</rscale>
<asrwt>0</asrwt>
<pdfrwt beam="1">  1        2 0.13395936E+00 0.18659561E+04</pdfrwt>
<pdfrwt beam="2">  1       -2 0.15379530E+00 0.18659561E+04</pdfrwt>
<totfact> 0.80804687E+00</totfact>
</mgrwt>
</event>
<event>
 6    1  0.8968082E-007  0.6523643E+04  0.7818608E-02  0.7628663E-01
         -2   -1    0    0    0  501 -0.00000000000E+00  0.00000000000E+00  0.37785952577E+04  0.37785952577E+04  0.00000000000E+00 0.  1.
          2   -1    0    0  501    0  0.00000000000E+00 -0.00000000000E+00 -0.28157234557E+04  0.28157234557E+04  0.00000000000E+00 0. -1.
         23    2    1    2    0    0 -0.75139224891E+03  0.31676912707E+04  0.28849428420E+03  0.32696167215E+04  0.91138661046E+02 0.  0.
         11    1    3    3    0    0 -0.67499589022E+02  0.37611621757E+03  0.13474576769E+02  0.38236261305E+03  0.00000000000E+00 0. -1.
        -11    1    3    3    0    0 -0.68389265989E+03  0.27915750531E+04  0.27501970743E+03  0.28872541085E+04  0.00000000000E+00 0.  1.
         22    1    1    2    0    0  0.75139224891E+03 -0.31676912707E+04  0.67437751782E+03  0.33247019919E+04  0.00000000000E+00 0. -1.
<mgrwt>
<rscale>  0 0.65236429E+04</rscale>
<asrwt>0</asrwt>
<pdfrwt beam="1">  1        2 0.43318822E+00 0.65236429E+04</pdfrwt>
<pdfrwt beam="2">  1       -2 0.58132235E+00 0.65236429E+04</pdfrwt>
<totfact> 0.90908913E-04</totfact>
</mgrwt>
</event>
<event>
 6    1  0.8968082E-007  0.1825968E+04  0.7818608E-02  0.8692611E-01
         -2   -1    0    0    0  501 -0.00000000000E+00  0.00000000000E+00  0.39404517187E+03  0.39404517187E+03  0.00000000000E+00 0.  1.
          2   -1    0    0  501    0  0.00000000000E+00 -0.00000000000E+00 -0.21153406837E+04  0.21153406837E+04  0.00000000000E+00 0. -1.
         23    2    1    2    0    0  0.56731380734E+03 -0.59008856758E+03 -0.31434973959E+03  0.88164328391E+03  0.91813112889E+02 0.  0.
         13    1    3    3    0    0  0.34482363970E+03 -0.40636954077E+03 -0.23447821372E+03  0.58225387836E+03  0.00000000000E+00 0. -1.
        -13    1    3    3    0    0  0.22249016764E+03 -0.18371902681E+03 -0.79871525867E+02  0.29938940555E+03  0.00000000000E+00 0.  1.
         22    1    1    2    0    0 -0.56731380734E+03  0.59008856758E+03 -0.14069457723E+04  0.16277425717E+04  0.00000000000E+00 0. -1.
<mgrwt>
<rscale>  0 0.18259680E+04</rscale>
<asrwt>0</asrwt>
<pdfrwt beam="1">  1        2 0.32543703E+00 0.18259680E+04</pdfrwt>
<pdfrwt beam="2">  1       -2 0.60622334E-01 0.18259680E+04</pdfrwt>
<totfact> 0.13753997E+01</totfact>
</mgrwt>
</event>
<event>
 6    1  0.8968082E-007  0.2071688E+04  0.7818608E-02  0.8573819E-01
          2   -1    0    0  501    0  0.00000000000E+00  0.00000000000E+00  0.23757175883E+04  0.23757175883E+04  0.00000000000E+00 0. -1.
         -2   -1    0    0    0  501 -0.00000000000E+00 -0.00000000000E+00 -0.45164158111E+03  0.45164158111E+03  0.00000000000E+00 0.  1.
         23    2    1    2    0    0  0.46716064867E+03  0.10658728089E+03  0.22141535888E+04  0.22672297883E+04  0.90856359406E+02 0.  0.
         11    1    3    3    0    0  0.38477983057E+03  0.95921117001E+02  0.16494824959E+04  0.16964813241E+04  0.00000000000E+00 0.  1.
        -11    1    3    3    0    0  0.82380818107E+02  0.10666163889E+02  0.56467109293E+03  0.57074846424E+03  0.00000000000E+00 0. -1.
         22    1    1    2    0    0 -0.46716064867E+03 -0.10658728089E+03 -0.29007758168E+03  0.56012938105E+03  0.00000000000E+00 0.  1.
<mgrwt>
<rscale>  0 0.20716881E+04</rscale>
<asrwt>0</asrwt>
<pdfrwt beam="1">  1        2 0.36549501E+00 0.20716881E+04</pdfrwt>
<pdfrwt beam="2">  1       -2 0.69483321E-01 0.20716881E+04</pdfrwt>
<totfact> 0.71643281E+00</totfact>
</mgrwt>
</event>
<event>
 6    1  0.8968082E-007  0.3129054E+04  0.7818608E-02  0.8207809E-01
          1   -1    0    0  501    0  0.00000000000E+00  0.00000000000E+00  0.68915607793E+03  0.68915607793E+03  0.00000000000E+00 0. -1.
         -1   -1    0    0    0  501 -0.00000000000E+00 -0.00000000000E+00 -0.35518003252E+04  0.35518003252E+04  0.00000000000E+00 0.  1.
         23    2    1    2    0    0  0.19849472703E+03  0.97720679550E+03  0.19907502007E+03  0.10209473737E+04  0.91484415844E+02 0.  0.
         11    1    3    3    0    0  0.10452147992E+03  0.30085466519E+03  0.65143778794E+02  0.32508765163E+03  0.00000000000E+00 0.  1.
        -11    1    3    3    0    0  0.93973247108E+02  0.67635213032E+03  0.13393124128E+03  0.69585972203E+03  0.00000000000E+00 0. -1.
         22    1    1    2    0    0 -0.19849472703E+03 -0.97720679550E+03 -0.30617192673E+04  0.32200090295E+04  0.00000000000E+00 0.  1.
<mgrwt>
<rscale>  0 0.31290540E+04</rscale>
<asrwt>0</asrwt>
<pdfrwt beam="1">  1        1 0.10602401E+00 0.31290540E+04</pdfrwt>
<pdfrwt beam="2">  1       -1 0.54643083E+00 0.31290540E+04</pdfrwt>
<totfact> 0.18331356E-02</totfact>
</mgrwt>
</event>
<event>
 6    1  0.1209562E-006  0.2867272E+04  0.7818608E-02  0.8282682E-01
         -1   -1    0    0    0  501 -0.00000000000E+00  0.00000000000E+00  0.86129317997E+03  0.86129317997E+03  0.00000000000E+00 0.  1.
          1   -1    0    0  501    0  0.00000000000E+00 -0.00000000000E+00 -0.23863095639E+04  0.23863095639E+04  0.00000000000E+00 0. -1.
         23    2    1    2    0    0 -0.62823724362E+03  0.18874090841E+02  0.69431644575E+03  0.94098693831E+03  0.91339069628E+02 0.  0.
         11    1    3    3    0    0 -0.20841774578E+03 -0.20506685046E+02  0.28180022623E+03  0.35109806093E+03  0.00000000000E+00 0.  1.
        -11    1    3    3    0    0 -0.41981949785E+03  0.39380775887E+02  0.41251621952E+03  0.58988887737E+03  0.00000000000E+00 0. -1.
         22    1    1    2    0    0  0.62823724362E+03 -0.18874090841E+02 -0.22193328297E+04  0.23066158056E+04  0.00000000000E+00 0. -1.
<mgrwt>
<rscale>  0 0.28672720E+04</rscale>
<asrwt>0</asrwt>
<pdfrwt beam="1">  1        1 0.36712455E+00 0.28672720E+04</pdfrwt>
<pdfrwt beam="2">  1       -1 0.13250664E+00 0.28672720E+04</pdfrwt>
<totfact> 0.67496709E-01</totfact>
</mgrwt>
</event>
<event>
 6    1  0.8968082E-007  0.2643810E+04  0.7818608E-02  0.8353470E-01
         -1   -1    0    0    0  501 -0.00000000000E+00  0.00000000000E+00  0.27610812596E+04  0.27610812596E+04  0.00000000000E+00 0.  1.
          1   -1    0    0  501    0  0.00000000000E+00 -0.00000000000E+00 -0.63288002881E+03  0.63288002881E+03  0.00000000000E+00 0. -1.
         23    2    1    2    0    0  0.32595089523E+03  0.12432096054E+04  0.68108535239E+03  0.14585134140E+04  0.10756399172E+03 0.  0.
         13    1    3    3    0    0  0.17184523653E+03  0.70984235030E+03  0.44484437818E+03  0.85515698466E+03  0.00000000000E+00 0. -1.
        -13    1    3    3    0    0  0.15410565870E+03  0.53336725514E+03  0.23624097420E+03  0.60335642931E+03  0.00000000000E+00 0.  1.
         22    1    1    2    0    0 -0.32595089523E+03 -0.12432096054E+04  0.14471158784E+04  0.19354478745E+04  0.00000000000E+00 0.  1.
<mgrwt>
<rscale>  0 0.26438103E+04</rscale>
<asrwt>0</asrwt>
<pdfrwt beam="1">  1        1 0.97366160E-01 0.26438103E+04</pdfrwt>
<pdfrwt beam="2">  1       -1 0.42478173E+00 0.26438103E+04</pdfrwt>
<totfact> 0.13425635E-01</totfact>
</mgrwt>
</event>
<event>
 6    1  0.8968082E-007  0.2850531E+04  0.7818608E-02  0.8287750E-01
         -2   -1    0    0    0  501 -0.00000000000E+00  0.00000000000E+00  0.97685554842E+03  0.97685554842E+03  0.00000000000E+00 0.  1.
          2   -1    0    0  501    0  0.00000000000E+00 -0.00000000000E+00 -0.20795115205E+04  0.20795115205E+04  0.00000000000E+00 0. -1.
         23    2    1    2    0    0  0.11865861302E+04  0.69202668359E+03 -0.14959675449E+03  0.13844790801E+04  0.86692324052E+02 0.  0.
         11    1    3    3    0    0  0.26882998287E+03  0.19758313056E+03 -0.48042835551E+02  0.33707086379E+03  0.00000000000E+00 0.  1.
        -11    1    3    3    0    0  0.91775614730E+03  0.49444355303E+03 -0.10155391893E+03  0.10474082163E+04  0.00000000000E+00 0. -1.
         22    1    1    2    0    0 -0.11865861302E+04 -0.69202668359E+03 -0.95305921764E+03  0.16718879889E+04  0.00000000000E+00 0.  1.
<mgrwt>
<rscale>  0 0.28505314E+04</rscale>
<asrwt>0</asrwt>
<pdfrwt beam="1">  1        2 0.31992484E+00 0.28505314E+04</pdfrwt>
<pdfrwt beam="2">  1       -2 0.15028547E+00 0.28505314E+04</pdfrwt>
<totfact> 0.15585309E+00</totfact>
</mgrwt>
</event>
<event>
 6    1  0.8968082E-007  0.1754403E+04  0.7818608E-02  0.8730931E-01
          2   -1    0    0  501    0  0.00000000000E+00  0.00000000000E+00  0.13353645977E+04  0.13353645977E+04  0.00000000000E+00 0. -1.
         -2   -1    0    0    0  501 -0.00000000000E+00 -0.00000000000E+00 -0.57623373324E+03  0.57623373324E+03  0.00000000000E+00 0.  1.
         23    2    1    2    0    0 -0.66005370099E+03  0.22203014007E+03  0.95749537517E+03  0.11875011342E+04  0.91614839768E+02 0.  0.
         11    1    3    3    0    0 -0.45146555380E+03  0.11878525619E+03  0.58750406627E+03  0.75039463700E+03  0.00000000000E+00 0. -1.
        -11    1    3    3    0    0 -0.20858814719E+03  0.10324488388E+03  0.36999130890E+03  0.43710649716E+03  0.00000000000E+00 0.  1.
         22    1    1    2    0    0  0.66005370099E+03 -0.22203014007E+03 -0.19836451069E+03  0.72409719679E+03  0.00000000000E+00 0.  1.
<mgrwt>
<rscale>  0 0.17544026E+04</rscale>
<asrwt>0</asrwt>
<pdfrwt beam="1">  1        2 0.20544071E+00 0.17544026E+04</pdfrwt>
<pdfrwt beam="2">  1       -2 0.88651343E-01 0.17544026E+04</pdfrwt>
<totfact> 0.16348215E+01</totfact>
</mgrwt>
</event>
<event>
 6    1  0.8968082E-007  0.1444183E+04  0.7818608E-02  0.8922443E-01
         -2   -1    0    0    0  501 -0.00000000000E+00  0.00000000000E+00  0.66857583512E+03  0.66857583512E+03  0.00000000000E+00 0.  1.
          2   -1    0    0  501    0  0.00000000000E+00 -0.00000000000E+00 -0.77989052768E+03  0.77989052768E+03  0.00000000000E+00 0. -1.
         23    2    1    2    0    0 -0.31996923212E+03  0.11634242889E+03  0.57809764842E+03  0.67956763985E+03  0.10816383755E+03 0.  0.
         11    1    3    3    0    0 -0.12742446759E+03  0.90760872429E+01  0.28948700030E+03  0.31642075412E+03  0.00000000000E+00 0.  1.
        -11    1    3    3    0    0 -0.19254476453E+03  0.10726634165E+03  0.28861064813E+03  0.36314688573E+03  0.00000000000E+00 0. -1.
         22    1    1    2    0    0  0.31996923212E+03 -0.11634242889E+03 -0.68941234098E+03  0.76889872295E+03  0.00000000000E+00 0. -1.
<mgrwt>
<rscale>  0 0.14441828E+04</rscale>
<asrwt>0</asrwt>
<pdfrwt beam="1">  1        2 0.11998316E+00 0.14441828E+04</pdfrwt>
<pdfrwt beam="2">  1       -2 0.10285782E+00 0.14441828E+04</pdfrwt>
<totfact> 0.26702077E+01</totfact>
</mgrwt>
</event>
<event>
 6    1  0.8968082E-007  0.1000459E+04  0.7818608E-02  0.9308042E-01
          4   -1    0    0  501    0  0.00000000000E+00  0.00000000000E+00  0.39143024662E+03  0.39143024662E+03  0.00000000000E+00 0. -1.
         -4   -1    0    0    0  501 -0.00000000000E+00 -0.00000000000E+00 -0.63926952271E+03  0.63926952271E+03  0.00000000000E+00 0.  1.
         23    2    1    2    0    0  0.32825886122E+03  0.28830134993E+03  0.12122718601E+03  0.45878928526E+03  0.70142920544E+02 0.  0.
         13    1    3    3    0    0  0.13017149286E+03  0.71174488662E+02  0.33932716568E+02  0.15219019234E+03  0.00000000000E+00 0.  1.
        -13    1    3    3    0    0  0.19808736836E+03  0.21712686127E+03  0.87294469444E+02  0.30659909293E+03  0.00000000000E+00 0. -1.
         22    1    1    2    0    0 -0.32825886122E+03 -0.28830134993E+03 -0.36906646209E+03  0.57191048407E+03  0.00000000000E+00 0.  1.
<mgrwt>
<rscale>  0 0.10004587E+04</rscale>
<asrwt>0</asrwt>
<pdfrwt beam="1">  1        4 0.60220038E-01 0.10004587E+04</pdfrwt>
<pdfrwt beam="2">  1       -4 0.98349157E-01 0.10004587E+04</pdfrwt>
<totfact> 0.44332310E+00</totfact>
</mgrwt>
</event>
<event>
 6    1  0.8968082E-007  0.5123837E+04  0.7818608E-02  0.7809683E-01
          2   -1    0    0  501    0  0.00000000000E+00  0.00000000000E+00  0.38316665274E+04  0.38316665274E+04  0.00000000000E+00 0. -1.
         -2   -1    0    0    0  501 -0.00000000000E+00 -0.00000000000E+00 -0.17129428237E+04  0.17129428237E+04  0.00000000000E+00 0.  1.
         23    2    1    2    0    0 -0.18083857799E+03  0.16239987024E+04 -0.10749175284E+04  0.19572121475E+04  0.71814487802E+02 0.  0.
         11    1    3    3    0    0 -0.83277224198E+02  0.58169810461E+03 -0.42153811938E+03  0.72318888755E+03  0.00000000000E+00 0.  1.
        -11    1    3    3    0    0 -0.97561353790E+02  0.10423005978E+04 -0.65337940904E+03  0.12340232600E+04  0.00000000000E+00 0. -1.
         22    1    1    2    0    0  0.18083857799E+03 -0.16239987024E+04  0.31936412322E+04  0.35873972036E+04  0.00000000000E+00 0. -1.
<mgrwt>
<rscale>  0 0.51238367E+04</rscale>
<asrwt>0</asrwt>
<pdfrwt beam="1">  1        2 0.58948716E+00 0.51238367E+04</pdfrwt>
<pdfrwt beam="2">  1       -2 0.26352967E+00 0.51238367E+04</pdfrwt>
<totfact> 0.17711718E-02</totfact>
</mgrwt>
</event>
<event>
 6    1  0.8968082E-007  0.1973711E+04  0.7818608E-02  0.8619011E-01
         -2   -1    0    0    0  501 -0.00000000000E+00  0.00000000000E+00  0.40141507743E+03  0.40141507743E+03  0.00000000000E+00 0.  1.
          2   -1    0    0  501    0  0.00000000000E+00 -0.00000000000E+00 -0.24261262722E+04  0.24261262722E+04  0.00000000000E+00 0. -1.
         23    2    1    2    0    0 -0.59290641518E+02  0.97320371531E+03 -0.12121364536E+04  0.15583216832E+04  0.91928420755E+02 0.  0.
         11    1    3    3    0    0 -0.10256075834E+02  0.46517409162E+03 -0.51108124507E+03  0.69115567108E+03  0.00000000000E+00 0.  1.
        -11    1    3    3    0    0 -0.49034565684E+02  0.50802962369E+03 -0.70105520853E+03  0.86716601213E+03  0.00000000000E+00 0. -1.
         22    1    1    2    0    0  0.59290641518E+02 -0.97320371531E+03 -0.81257474120E+03  0.12692196664E+04  0.00000000000E+00 0.  1.
<mgrwt>
<rscale>  0 0.19737109E+04</rscale>
<asrwt>0</asrwt>
<pdfrwt beam="1">  1        2 0.37325019E+00 0.19737109E+04</pdfrwt>
<pdfrwt beam="2">  1       -2 0.61756167E-01 0.19737109E+04</pdfrwt>
<totfact> 0.87142376E+00</totfact>
</mgrwt>
</event>
<event>
 6    1  0.8968082E-007  0.4506650E+04  0.7818608E-02  0.7909474E-01
          2   -1    0    0  501    0  0.00000000000E+00  0.00000000000E+00  0.26141710741E+04  0.26141710741E+04  0.00000000000E+00 0. -1.
         -2   -1    0    0    0  501 -0.00000000000E+00 -0.00000000000E+00 -0.19422884615E+04  0.19422884615E+04  0.00000000000E+00 0.  1.
         23    2    1    2    0    0  0.82503799695E+03 -0.17866939429E+04  0.14438292003E+04  0.24424906436E+04  0.90304168826E+02 0.  0.
         13    1    3    3    0    0  0.61675553624E+03 -0.13886644932E+04  0.10757637247E+04  0.18617314676E+04  0.00000000000E+00 0. -1.
        -13    1    3    3    0    0  0.20828246070E+03 -0.39802944970E+03  0.36806547559E+03  0.58075917607E+03  0.00000000000E+00 0.  1.
         22    1    1    2    0    0 -0.82503799695E+03  0.17866939429E+04 -0.77194658770E+03  0.21139688920E+04  0.00000000000E+00 0.  1.
<mgrwt>
<rscale>  0 0.45066503E+04</rscale>
<asrwt>0</asrwt>
<pdfrwt beam="1">  1        2 0.40218017E+00 0.45066503E+04</pdfrwt>
<pdfrwt beam="2">  1       -2 0.29881361E+00 0.45066503E+04</pdfrwt>
<totfact> 0.73065825E-02</totfact>
</mgrwt>
</event>
<event>
 6    1  0.8968082E-007  0.1853467E+04  0.7818608E-02  0.8678372E-01
         -2   -1    0    0    0  501 -0.00000000000E+00  0.00000000000E+00  0.41381166456E+03  0.41381166456E+03  0.00000000000E+00 0.  1.
          2   -1    0    0  501    0  0.00000000000E+00 -0.00000000000E+00 -0.20754243939E+04  0.20754243939E+04  0.00000000000E+00 0. -1.
         23    2    1    2    0    0  0.23520823398E+03 -0.89316278022E+03 -0.78285131214E+03  0.12143696758E+04  0.93674261163E+02 0.  0.
         11    1    3    3    0    0  0.14222984267E+02 -0.20530873806E+03 -0.17983238837E+03  0.27330140708E+03  0.00000000000E+00 0.  1.
        -11    1    3    3    0    0  0.22098524972E+03 -0.68785404216E+03 -0.60301892376E+03  0.94106826869E+03  0.00000000000E+00 0. -1.
         22    1    1    2    0    0 -0.23520823398E+03  0.89316278022E+03 -0.87876141716E+03  0.12748663826E+04  0.00000000000E+00 0.  1.
<mgrwt>
<rscale>  0 0.18534668E+04</rscale>
<asrwt>0</asrwt>
<pdfrwt beam="1">  1        2 0.31929606E+00 0.18534668E+04</pdfrwt>
<pdfrwt beam="2">  1       -2 0.63663333E-01 0.18534668E+04</pdfrwt>
<totfact> 0.13014582E+01</totfact>
</mgrwt>
</event>
<event>
 6    1  0.8968082E-007  0.3721567E+04  0.7818608E-02  0.8063199E-01
          1   -1    0    0  501    0  0.00000000000E+00  0.00000000000E+00  0.41777838118E+04  0.41777838118E+04  0.00000000000E+00 0. -1.
         -1   -1    0    0    0  501 -0.00000000000E+00 -0.00000000000E+00 -0.82879255754E+03  0.82879255754E+03  0.00000000000E+00 0.  1.
         23    2    1    2    0    0  0.28235795358E+03 -0.14890211135E+04  0.31252739628E+04  0.34745974802E+04  0.92630535828E+02 0.  0.
         13    1    3    3    0    0  0.55489485096E+02 -0.35509162297E+03  0.82998672506E+03  0.90445956650E+03  0.00000000000E+00 0. -1.
        -13    1    3    3    0    0  0.22686846848E+03 -0.11339294905E+04  0.22952872378E+04  0.25701379137E+04  0.00000000000E+00 0.  1.
         22    1    1    2    0    0 -0.28235795358E+03  0.14890211135E+04  0.22371729148E+03  0.15319788892E+04  0.00000000000E+00 0.  1.
<mgrwt>
<rscale>  0 0.37215675E+04</rscale>
<asrwt>0</asrwt>
<pdfrwt beam="1">  1        1 0.64273596E+00 0.37215675E+04</pdfrwt>
<pdfrwt beam="2">  1       -1 0.12750655E+00 0.37215675E+04</pdfrwt>
<totfact> 0.28184430E-02</totfact>
</mgrwt>
</event>
<event>
 6    1  0.8968082E-007  0.2664370E+04  0.7818608E-02  0.8346659E-01
         -2   -1    0    0    0  501 -0.00000000000E+00  0.00000000000E+00  0.10320547118E+04  0.10320547118E+04  0.00000000000E+00 0.  1.
          2   -1    0    0  501    0  0.00000000000E+00 -0.00000000000E+00 -0.17195953774E+04  0.17195953774E+04  0.00000000000E+00 0. -1.
         23    2    1    2    0    0 -0.47917208020E+03 -0.15957968872E+03 -0.16155708786E+04  0.16950935901E+04  0.90561891074E+02 0.  0.
         13    1    3    3    0    0 -0.30172305303E+03 -0.67967497965E+02 -0.87425780044E+03  0.92735272855E+03  0.00000000000E+00 0.  1.
        -13    1    3    3    0    0 -0.17744902717E+03 -0.91612190753E+02 -0.74131307813E+03  0.76774086159E+03  0.00000000000E+00 0. -1.
         22    1    1    2    0    0  0.47917208020E+03  0.15957968872E+03  0.92803021302E+03  0.10565564991E+04  0.00000000000E+00 0.  1.
<mgrwt>
<rscale>  0 0.26643697E+04</rscale>
<asrwt>0</asrwt>
<pdfrwt beam="1">  1        2 0.26455313E+00 0.26643697E+04</pdfrwt>
<pdfrwt beam="2">  1       -2 0.15877765E+00 0.26643697E+04</pdfrwt>
<totfact> 0.21646918E+00</totfact>
</mgrwt>
</event>
<event>
 6    1  0.8968082E-007  0.3712997E+04  0.7818608E-02  0.8065088E-01
          2   -1    0    0  501    0  0.00000000000E+00  0.00000000000E+00  0.10486043063E+04  0.10486043063E+04  0.00000000000E+00 0. -1.
         -2   -1    0    0    0  501 -0.00000000000E+00 -0.00000000000E+00 -0.32868326324E+04  0.32868326324E+04  0.00000000000E+00 0.  1.
         23    2    1    2    0    0  0.17940941730E+04 -0.32083995938E+03 -0.71398851719E+03  0.19595120290E+04  0.90529597577E+02 0.  0.
         13    1    3    3    0    0  0.15182535895E+04 -0.30294761425E+03 -0.61617056037E+03  0.16662945053E+04  0.00000000000E+00 0. -1.
        -13    1    3    3    0    0  0.27584058356E+03 -0.17892345126E+02 -0.97817956826E+02  0.29321752374E+03  0.00000000000E+00 0.  1.
         22    1    1    2    0    0 -0.17940941730E+04  0.32083995938E+03 -0.15242398089E+04  0.23759249097E+04  0.00000000000E+00 0. -1.
<mgrwt>
<rscale>  0 0.37129971E+04</rscale>
<asrwt>0</asrwt>
<pdfrwt beam="1">  1        2 0.16132374E+00 0.37129971E+04</pdfrwt>
<pdfrwt beam="2">  1       -2 0.50566655E+00 0.37129971E+04</pdfrwt>
<totfact> 0.28823431E-02</totfact>
</mgrwt>
</event>
<event>
 6    1  0.8968082E-007  0.9874458E+03  0.7818608E-02  0.9322422E-01
         -1   -1    0    0    0  501 -0.00000000000E+00  0.00000000000E+00  0.62097235460E+03  0.62097235460E+03  0.00000000000E+00 0.  1.
          1   -1    0    0  501    0  0.00000000000E+00 -0.00000000000E+00 -0.39254934899E+03  0.39254934899E+03  0.00000000000E+00 0. -1.
         23    2    1    2    0    0  0.40115246888E+03  0.27628085605E+03  0.63934905006E+02  0.49941009125E+03  0.89824008245E+02 0.  0.
         11    1    3    3    0    0  0.11593314379E+03  0.11724980702E+03  0.50999387799E+02  0.17259475261E+03  0.00000000000E+00 0.  1.
        -11    1    3    3    0    0  0.28521932509E+03  0.15903104903E+03  0.12935517207E+02  0.32681533864E+03  0.00000000000E+00 0. -1.
         22    1    1    2    0    0 -0.40115246888E+03 -0.27628085605E+03  0.16448810060E+03  0.51411161234E+03  0.00000000000E+00 0.  1.
<mgrwt>
<rscale>  0 0.98744578E+03</rscale>
<asrwt>0</asrwt>
<pdfrwt beam="1">  1        1 0.60392207E-01 0.98744578E+03</pdfrwt>
<pdfrwt beam="2">  1       -1 0.95534209E-01 0.98744578E+03</pdfrwt>
<totfact> 0.65303479E+01</totfact>
</mgrwt>
</event>
<event>
 6    1  0.8968082E-007  0.2382080E+04  0.7818608E-02  0.8446243E-01
         -1   -1    0    0    0  501 -0.00000000000E+00  0.00000000000E+00  0.61441835827E+03  0.61441835827E+03  0.00000000000E+00 0.  1.
          1   -1    0    0  501    0  0.00000000000E+00 -0.00000000000E+00 -0.23088122612E+04  0.23088122612E+04  0.00000000000E+00 0. -1.
         23    2    1    2    0    0 -0.71909994307E+03  0.53821821524E+03 -0.18051187806E+04  0.20182203577E+04  0.89308592934E+02 0.  0.
         13    1    3    3    0    0 -0.70654657027E+02  0.26042187360E+02 -0.17904171496E+03  0.19423236542E+03  0.00000000000E+00 0. -1.
        -13    1    3    3    0    0 -0.64844528604E+03  0.51217602787E+03 -0.16260770657E+04  0.18239879923E+04  0.00000000000E+00 0.  1.
         22    1    1    2    0    0  0.71909994307E+03 -0.53821821524E+03  0.11072487771E+03  0.90501026175E+03  0.00000000000E+00 0.  1.
<mgrwt>
<rscale>  0 0.23820803E+04</rscale>
<asrwt>0</asrwt>
<pdfrwt beam="1">  1        1 0.35520188E+00 0.23820803E+04</pdfrwt>
<pdfrwt beam="2">  1       -1 0.94525903E-01 0.23820803E+04</pdfrwt>
<totfact> 0.17833977E+00</totfact>
</mgrwt>
</event>
<event>
 6    1  0.8968082E-007  0.2091719E+04  0.7818608E-02  0.8564900E-01
         -2   -1    0    0    0  501 -0.00000000000E+00  0.00000000000E+00  0.82494219876E+03  0.82494219876E+03  0.00000000000E+00 0.  1.
          2   -1    0    0  501    0  0.00000000000E+00 -0.00000000000E+00 -0.13259379569E+04  0.13259379569E+04  0.00000000000E+00 0. -1.
         23    2    1    2    0    0  0.10897064379E+03  0.90912931099E+03 -0.76631080518E+03  0.11975791646E+04  0.92589956815E+02 0.  0.
         11    1    3    3    0    0  0.10173618431E+03  0.49762086275E+03 -0.39809621880E+03  0.64533508634E+03  0.00000000000E+00 0.  1.
        -11    1    3    3    0    0  0.72344594780E+01  0.41150844824E+03 -0.36821458638E+03  0.55224407828E+03  0.00000000000E+00 0. -1.
         22    1    1    2    0    0 -0.10897064379E+03 -0.90912931099E+03  0.26531504704E+03  0.95330099103E+03  0.00000000000E+00 0.  1.
<mgrwt>
<rscale>  0 0.20917191E+04</rscale>
<asrwt>0</asrwt>
<pdfrwt beam="1">  1        2 0.20399045E+00 0.20917191E+04</pdfrwt>
<pdfrwt beam="2">  1       -2 0.12691419E+00 0.20917191E+04</pdfrwt>
<totfact> 0.67960529E+00</totfact>
</mgrwt>
</event>
<event>
 6    1  0.8968082E-007  0.1393379E+04  0.7818608E-02  0.8958625E-01
          1   -1    0    0  501    0  0.00000000000E+00  0.00000000000E+00  0.14068928326E+04  0.14068928326E+04  0.00000000000E+00 0. -1.
         -1   -1    0    0    0  501 -0.00000000000E+00 -0.00000000000E+00 -0.34499871026E+03  0.34499871026E+03  0.00000000000E+00 0.  1.
         23    2    1    2    0    0  0.44533592234E+02  0.67213863896E+03  0.32398031605E+03  0.75275672897E+03  0.89027282313E+02 0.  0.
         13    1    3    3    0    0  0.66949669427E+02  0.49823946689E+03  0.21860652050E+03  0.54819123981E+03  0.00000000000E+00 0. -1.
        -13    1    3    3    0    0 -0.22416077193E+02  0.17389917207E+03  0.10537379556E+03  0.20456548915E+03  0.00000000000E+00 0.  1.
         22    1    1    2    0    0 -0.44533592234E+02 -0.67213863896E+03  0.73791380626E+03  0.99913481387E+03  0.00000000000E+00 0.  1.
<mgrwt>
<rscale>  0 0.13933789E+04</rscale>
<asrwt>0</asrwt>
<pdfrwt beam="1">  1        1 0.21644505E+00 0.13933789E+04</pdfrwt>
<pdfrwt beam="2">  1       -1 0.53076725E-01 0.13933789E+04</pdfrwt>
<totfact> 0.26528240E+01</totfact>
</mgrwt>
</event>
<event>
 6    1  0.8968082E-007  0.3462847E+04  0.7818608E-02  0.8122652E-01
         -1   -1    0    0    0  501 -0.00000000000E+00  0.00000000000E+00  0.13507107437E+04  0.13507107437E+04  0.00000000000E+00 0.  1.
          1   -1    0    0  501    0  0.00000000000E+00 -0.00000000000E+00 -0.22194444102E+04  0.22194444102E+04  0.00000000000E+00 0. -1.
         23    2    1    2    0    0 -0.75915426517E+03 -0.81530535205E+03 -0.17995641543E+04  0.21184377529E+04  0.91155648396E+02 0.  0.
         13    1    3    3    0    0 -0.69792818660E+03 -0.77505838649E+03 -0.17065245615E+04  0.20000113338E+04  0.00000000000E+00 0.  1.
        -13    1    3    3    0    0 -0.61226078565E+02 -0.40246965553E+02 -0.93039592767E+02  0.11842641916E+03  0.00000000000E+00 0. -1.
         22    1    1    2    0    0  0.75915426517E+03  0.81530535205E+03  0.93083048779E+03  0.14517174010E+04  0.00000000000E+00 0.  1.
<mgrwt>
<rscale>  0 0.34628470E+04</rscale>
<asrwt>0</asrwt>
<pdfrwt beam="1">  1        1 0.34145298E+00 0.34628470E+04</pdfrwt>
<pdfrwt beam="2">  1       -1 0.20780166E+00 0.34628470E+04</pdfrwt>
<totfact> 0.23009654E-01</totfact>
</mgrwt>
</event>
<event>
 6    1  0.8968082E-007  0.1909032E+04  0.7818608E-02  0.8650373E-01
          1   -1    0    0  501    0  0.00000000000E+00  0.00000000000E+00  0.67774904158E+03  0.67774904158E+03  0.00000000000E+00 0. -1.
         -1   -1    0    0    0  501 -0.00000000000E+00 -0.00000000000E+00 -0.13443043773E+04  0.13443043773E+04  0.00000000000E+00 0.  1.
         23    2    1    2    0    0 -0.80386529577E+03 -0.50598458962E+03 -0.40701850888E+03  0.10373812993E+04  0.90972934631E+02 0.  0.
         13    1    3    3    0    0 -0.24298506152E+03 -0.18554639001E+03 -0.96013464970E+02  0.32044935392E+03  0.00000000000E+00 0. -1.
        -13    1    3    3    0    0 -0.56088023425E+03 -0.32043819961E+03 -0.31100504391E+03  0.71693194536E+03  0.00000000000E+00 0.  1.
         22    1    1    2    0    0  0.80386529577E+03  0.50598458962E+03 -0.25953682687E+03  0.98467211963E+03  0.00000000000E+00 0.  1.
<mgrwt>
<rscale>  0 0.19090322E+04</rscale>
<asrwt>0</asrwt>
<pdfrwt beam="1">  1        1 0.10426908E+00 0.19090322E+04</pdfrwt>
<pdfrwt beam="2">  1       -1 0.20681606E+00 0.19090322E+04</pdfrwt>
<totfact> 0.36140162E+00</totfact>
</mgrwt>
</event>
<event>
 6    1  0.8968082E-007  0.1643841E+04  0.7818608E-02  0.8794059E-01
         -1   -1    0    0    0  501 -0.00000000000E+00  0.00000000000E+00  0.41250391240E+03  0.41250391240E+03  0.00000000000E+00 0.  1.
          1   -1    0    0  501    0  0.00000000000E+00 -0.00000000000E+00 -0.16376885434E+04  0.16376885434E+04  0.00000000000E+00 0. -1.
         23    2    1    2    0    0 -0.65686301673E+03  0.70198050282E+02 -0.94320052097E+01  0.66655549615E+03  0.88376907124E+02 0.  0.
         13    1    3    3    0    0 -0.33328386603E+03  0.31447977665E+02  0.39215755382E+02  0.33705338765E+03  0.00000000000E+00 0.  1.
        -13    1    3    3    0    0 -0.32357915070E+03  0.38750072616E+02 -0.48647760591E+02  0.32950210850E+03  0.00000000000E+00 0. -1.
         22    1    1    2    0    0  0.65686301673E+03 -0.70198050282E+02 -0.12157526258E+04  0.13836369597E+04  0.00000000000E+00 0. -1.
<mgrwt>
<rscale>  0 0.16438405E+04</rscale>
<asrwt>0</asrwt>
<pdfrwt beam="1">  1        1 0.25195208E+00 0.16438405E+04</pdfrwt>
<pdfrwt beam="2">  1       -1 0.63462140E-01 0.16438405E+04</pdfrwt>
<totfact> 0.12657695E+01</totfact>
</mgrwt>
</event>
<event>
 6    1  0.8968082E-007  0.8910911E+03  0.7818608E-02  0.9436787E-01
          2   -1    0    0  501    0  0.00000000000E+00  0.00000000000E+00  0.19392680748E+04  0.19392680748E+04  0.00000000000E+00 0. -1.
         -2   -1    0    0    0  501 -0.00000000000E+00 -0.00000000000E+00 -0.10236380182E+03  0.10236380182E+03  0.00000000000E+00 0.  1.
         23    2    1    2    0    0  0.32555442906E+03 -0.29300464148E+03  0.80464505181E+03  0.92029494871E+03  0.87474150558E+02 0.  0.
         11    1    3    3    0    0  0.15676603069E+03 -0.93577242655E+02  0.28121398553E+03  0.33528136599E+03  0.00000000000E+00 0. -1.
        -11    1    3    3    0    0  0.16878839837E+03 -0.19942739882E+03  0.52343106628E+03  0.58501358272E+03  0.00000000000E+00 0.  1.
         22    1    1    2    0    0 -0.32555442906E+03  0.29300464148E+03  0.10322592211E+04  0.11213369279E+04  0.00000000000E+00 0.  1.
<mgrwt>
<rscale>  0 0.89109114E+03</rscale>
<asrwt>0</asrwt>
<pdfrwt beam="1">  1        2 0.29834891E+00 0.89109114E+03</pdfrwt>
<pdfrwt beam="2">  1       -2 0.15748279E-01 0.89109114E+03</pdfrwt>
<totfact> 0.23556323E+02</totfact>
</mgrwt>
</event>
<event>
 6    1  0.8968082E-007  0.1775607E+04  0.7818608E-02  0.8719380E-01
          2   -1    0    0  501    0  0.00000000000E+00  0.00000000000E+00  0.16534041305E+04  0.16534041305E+04  0.00000000000E+00 0. -1.
         -2   -1    0    0    0  501 -0.00000000000E+00 -0.00000000000E+00 -0.47671056799E+03  0.47671056799E+03  0.00000000000E+00 0.  1.
         23    2    1    2    0    0 -0.54272481400E+03  0.63215070348E+03  0.94848897317E+03  0.12662616611E+04  0.98094476935E+02 0.  0.
         11    1    3    3    0    0 -0.21719158498E+03  0.29548057313E+03  0.47752225039E+03  0.60208674898E+03  0.00000000000E+00 0.  1.
        -11    1    3    3    0    0 -0.32553322903E+03  0.33667013035E+03  0.47096672278E+03  0.66417491208E+03  0.00000000000E+00 0. -1.
         22    1    1    2    0    0  0.54272481400E+03 -0.63215070348E+03  0.22820458931E+03  0.86385303740E+03  0.00000000000E+00 0. -1.
<mgrwt>
<rscale>  0 0.17756072E+04</rscale>
<asrwt>0</asrwt>
<pdfrwt beam="1">  1        2 0.25436986E+00 0.17756072E+04</pdfrwt>
<pdfrwt beam="2">  1       -2 0.73340088E-01 0.17756072E+04</pdfrwt>
<totfact> 0.16522724E+01</totfact>
</mgrwt>
</event>
<event>
 6    1  0.8968082E-007  0.1937142E+04  0.7818608E-02  0.8636586E-01
          1   -1    0    0  501    0  0.00000000000E+00  0.00000000000E+00  0.59681796240E+03  0.59681796240E+03  0.00000000000E+00 0. -1.
         -1   -1    0    0    0  501 -0.00000000000E+00 -0.00000000000E+00 -0.15718867158E+04  0.15718867158E+04  0.00000000000E+00 0.  1.
         23    2    1    2    0    0  0.66447144214E+03 -0.53217334037E+03 -0.10005775506E+04  0.13170113882E+04  0.92912863030E+02 0.  0.
         13    1    3    3    0    0  0.13555280689E+03 -0.97155239784E+02 -0.14411663620E+03  0.22041621742E+03  0.00000000000E+00 0. -1.
        -13    1    3    3    0    0  0.52891863525E+03 -0.43501810059E+03 -0.85646091444E+03  0.10965951708E+04  0.00000000000E+00 0.  1.
         22    1    1    2    0    0 -0.66447144214E+03  0.53217334037E+03  0.25508797198E+02  0.85169329007E+03  0.00000000000E+00 0. -1.
<mgrwt>
<rscale>  0 0.19371425E+04</rscale>
<asrwt>0</asrwt>
<pdfrwt beam="1">  1        1 0.91818149E-01 0.19371425E+04</pdfrwt>
<pdfrwt beam="2">  1       -1 0.24182872E+00 0.19371425E+04</pdfrwt>
<totfact> 0.25383478E+00</totfact>
</mgrwt>
</event>
<event>
 6    1  0.8968082E-007  0.5644490E+03  0.7818608E-02  0.9982038E-01
          2   -1    0    0  501    0  0.00000000000E+00  0.00000000000E+00  0.11941626719E+04  0.11941626719E+04  0.00000000000E+00 0. -1.
         -2   -1    0    0    0  501 -0.00000000000E+00 -0.00000000000E+00 -0.66700013572E+02  0.66700013572E+02  0.00000000000E+00 0.  1.
         23    2    1    2    0    0  0.10464286003E+03  0.73018582720E+02  0.11221625941E+04  0.11331523404E+04  0.92214409091E+02 0.  0.
         11    1    3    3    0    0  0.91057922207E+02  0.93196062559E+02  0.85315282325E+03  0.86304506898E+03  0.00000000000E+00 0.  1.
        -11    1    3    3    0    0  0.13584937821E+02 -0.20177479839E+02  0.26900977087E+03  0.27010727138E+03  0.00000000000E+00 0. -1.
         22    1    1    2    0    0 -0.10464286003E+03 -0.73018582720E+02  0.53000642461E+01  0.12771034515E+03  0.00000000000E+00 0.  1.
<mgrwt>
<rscale>  0 0.56444899E+03</rscale>
<asrwt>0</asrwt>
<pdfrwt beam="1">  1        2 0.18371732E+00 0.56444899E+03</pdfrwt>
<pdfrwt beam="2">  1       -2 0.10261541E-01 0.56444899E+03</pdfrwt>
<totfact> 0.12714534E+03</totfact>
</mgrwt>
</event>
<event>
 6    1  0.8968082E-007  0.4609113E+04  0.7818608E-02  0.7891808E-01
          1   -1    0    0  501    0  0.00000000000E+00  0.00000000000E+00  0.11747730321E+04  0.11747730321E+04  0.00000000000E+00 0. -1.
         -1   -1    0    0    0  501 -0.00000000000E+00 -0.00000000000E+00 -0.45208560245E+04  0.45208560245E+04  0.00000000000E+00 0.  1.
         23    2    1    2    0    0  0.18958100749E+04  0.11787098448E+04 -0.23764740773E+04  0.32617855558E+04  0.90350615845E+02 0.  0.
         11    1    3    3    0    0  0.10889351906E+04  0.63330830993E+03 -0.13767833882E+04  0.18661167602E+04  0.00000000000E+00 0. -1.
        -11    1    3    3    0    0  0.80687488434E+03  0.54540153483E+03 -0.99969068912E+03  0.13956687956E+04  0.00000000000E+00 0.  1.
         22    1    1    2    0    0 -0.18958100749E+04 -0.11787098448E+04 -0.96960891506E+03  0.24338435008E+04  0.00000000000E+00 0. -1.
<mgrwt>
<rscale>  0 0.46091126E+04</rscale>
<asrwt>0</asrwt>
<pdfrwt beam="1">  1        1 0.18073431E+00 0.46091126E+04</pdfrwt>
<pdfrwt beam="2">  1       -1 0.69551631E+00 0.46091126E+04</pdfrwt>
<totfact> 0.17331039E-03</totfact>
</mgrwt>
</event>
<event>
 6    1  0.8968082E-007  0.1579746E+04  0.7818608E-02  0.8833088E-01
         -2   -1    0    0    0  501 -0.00000000000E+00  0.00000000000E+00  0.31794592617E+03  0.31794592617E+03  0.00000000000E+00 0.  1.
          2   -1    0    0  501    0  0.00000000000E+00 -0.00000000000E+00 -0.19622814756E+04  0.19622814756E+04  0.00000000000E+00 0. -1.
         23    2    1    2    0    0  0.59182384775E+03  0.49051806666E+03 -0.57960047925E+03  0.96701599072E+03  0.91212774741E+02 0.  0.
         11    1    3    3    0    0  0.32182812289E+03  0.32101533344E+03 -0.36106693566E+03  0.58051142712E+03  0.00000000000E+00 0.  1.
        -11    1    3    3    0    0  0.26999572486E+03  0.16950273321E+03 -0.21853354360E+03  0.38650456360E+03  0.00000000000E+00 0. -1.
         22    1    1    2    0    0 -0.59182384775E+03 -0.49051806666E+03 -0.10647350702E+04  0.13132114111E+04  0.00000000000E+00 0. -1.
<mgrwt>
<rscale>  0 0.15797461E+04</rscale>
<asrwt>0</asrwt>
<pdfrwt beam="1">  1        2 0.30188946E+00 0.15797461E+04</pdfrwt>
<pdfrwt beam="2">  1       -2 0.48914758E-01 0.15797461E+04</pdfrwt>
<totfact> 0.26655167E+01</totfact>
</mgrwt>
</event>
<event>
 6    1  0.8968082E-007  0.1480263E+04  0.7818608E-02  0.8897685E-01
         -2   -1    0    0    0  501 -0.00000000000E+00  0.00000000000E+00  0.46175820379E+03  0.46175820379E+03  0.00000000000E+00 0.  1.
          2   -1    0    0  501    0  0.00000000000E+00 -0.00000000000E+00 -0.11863234063E+04  0.11863234063E+04  0.00000000000E+00 0. -1.
         23    2    1    2    0    0 -0.10844635091E+03 -0.37321097795E+03 -0.10612222860E+04  0.11338977548E+04  0.92110439131E+02 0.  0.
         13    1    3    3    0    0 -0.10413229997E+03 -0.25754392415E+03 -0.65423883639E+03  0.71077483341E+03  0.00000000000E+00 0. -1.
        -13    1    3    3    0    0 -0.43140509488E+01 -0.11566705380E+03 -0.40698344963E+03  0.42312292143E+03  0.00000000000E+00 0.  1.
         22    1    1    2    0    0  0.10844635091E+03  0.37321097795E+03  0.33665708353E+03  0.51418385523E+03  0.00000000000E+00 0.  1.
<mgrwt>
<rscale>  0 0.14802629E+04</rscale>
<asrwt>0</asrwt>
<pdfrwt beam="1">  1        2 0.18251129E+00 0.14802629E+04</pdfrwt>
<pdfrwt beam="2">  1       -2 0.71039724E-01 0.14802629E+04</pdfrwt>
<totfact> 0.33619030E+01</totfact>
</mgrwt>
</event>
<event>
 6    1  0.8968082E-007  0.6478744E+03  0.7818608E-02  0.9810776E-01
          2   -1    0    0  501    0  0.00000000000E+00  0.00000000000E+00  0.58729837673E+03  0.58729837673E+03  0.00000000000E+00 0. -1.
         -2   -1    0    0    0  501 -0.00000000000E+00 -0.00000000000E+00 -0.17867462774E+03  0.17867462774E+03  0.00000000000E+00 0.  1.
         23    2    1    2    0    0  0.30065065817E+03  0.79018634541E+02  0.28382042961E+03  0.43099445085E+03  0.92560345357E+02 0.  0.
         11    1    3    3    0    0  0.22681090603E+03  0.94199659882E+02  0.24198211119E+03  0.34477834205E+03  0.00000000000E+00 0. -1.
        -11    1    3    3    0    0  0.73839752141E+02 -0.15181025341E+02  0.41838318428E+02  0.86216108793E+02  0.00000000000E+00 0.  1.
         22    1    1    2    0    0 -0.30065065817E+03 -0.79018634541E+02  0.12480331937E+03  0.33497855363E+03  0.00000000000E+00 0. -1.
<mgrwt>
<rscale>  0 0.64787443E+03</rscale>
<asrwt>0</asrwt>
<pdfrwt beam="1">  1        2 0.90353596E-01 0.64787443E+03</pdfrwt>
<pdfrwt beam="2">  1       -2 0.27488405E-01 0.64787443E+03</pdfrwt>
<totfact> 0.61712704E+02</totfact>
</mgrwt>
</event>
<event>
 6    1  0.8968082E-007  0.3593801E+04  0.7818608E-02  0.8091913E-01
         -2   -1    0    0    0  501 -0.00000000000E+00  0.00000000000E+00  0.21432870764E+04  0.21432870764E+04  0.00000000000E+00 0.  1.
          2   -1    0    0  501    0  0.00000000000E+00 -0.00000000000E+00 -0.15064953233E+04  0.15064953233E+04  0.00000000000E+00 0. -1.
         23    2    1    2    0    0 -0.29282957030E+02 -0.11337717224E+04  0.17326283888E+04  0.20727111451E+04  0.88512976834E+02 0.  0.
         11    1    3    3    0    0  0.40408298463E+01 -0.76492014684E+03  0.11042204191E+04  0.13432877180E+04  0.00000000000E+00 0.  1.
        -11    1    3    3    0    0 -0.33323786876E+02 -0.36885157553E+03  0.62840796970E+03  0.72942342704E+03  0.00000000000E+00 0. -1.
         22    1    1    2    0    0  0.29282957030E+02  0.11337717224E+04 -0.10958366357E+04  0.15770712546E+04  0.00000000000E+00 0. -1.
<mgrwt>
<rscale>  0 0.35938013E+04</rscale>
<asrwt>0</asrwt>
<pdfrwt beam="1">  1        2 0.23176851E+00 0.35938013E+04</pdfrwt>
<pdfrwt beam="2">  1       -2 0.32973648E+00 0.35938013E+04</pdfrwt>
<totfact> 0.21381674E-01</totfact>
</mgrwt>
</event>
<event>
 6    1  0.8968082E-007  0.4510048E+04  0.7818608E-02  0.7908880E-01
          2   -1    0    0  501    0  0.00000000000E+00  0.00000000000E+00  0.23855137652E+04  0.23855137652E+04  0.00000000000E+00 0. -1.
         -2   -1    0    0    0  501 -0.00000000000E+00 -0.00000000000E+00 -0.21316724540E+04  0.21316724540E+04  0.00000000000E+00 0.  1.
         23    2    1    2    0    0  0.21810709492E+04 -0.62062935282E+02  0.69351511061E+03  0.22913750539E+04  0.92272072957E+02 0.  0.
         11    1    3    3    0    0  0.70911007381E+03 -0.49962913844E+02  0.25886235424E+03  0.75653361326E+03  0.00000000000E+00 0. -1.
        -11    1    3    3    0    0  0.14719608754E+04 -0.12100021438E+02  0.43465275636E+03  0.15348414406E+04  0.00000000000E+00 0.  1.
         22    1    1    2    0    0 -0.21810709492E+04  0.62062935282E+02 -0.43967379942E+03  0.22258111653E+04  0.00000000000E+00 0.  1.
<mgrwt>
<rscale>  0 0.45100483E+04</rscale>
<asrwt>0</asrwt>
<pdfrwt beam="1">  1        2 0.36700212E+00 0.45100483E+04</pdfrwt>
<pdfrwt beam="2">  1       -2 0.32794961E+00 0.45100483E+04</pdfrwt>
<totfact> 0.65582346E-02</totfact>
</mgrwt>
</event>
<event>
 6    1  0.8968082E-007  0.2504119E+04  0.7818608E-02  0.8401520E-01
          2   -1    0    0  501    0  0.00000000000E+00  0.00000000000E+00  0.13141712066E+04  0.13141712066E+04  0.00000000000E+00 0. -1.
         -2   -1    0    0    0  501 -0.00000000000E+00 -0.00000000000E+00 -0.11928834622E+04  0.11928834622E+04  0.00000000000E+00 0.  1.
         23    2    1    2    0    0  0.33522549878E+03 -0.11378691580E+04 -0.33516404381E+03  0.12360430280E+04  0.91351381558E+02 0.  0.
         11    1    3    3    0    0  0.10873481268E+03 -0.23682735702E+03 -0.68040397687E+02  0.26933241959E+03  0.00000000000E+00 0.  1.
        -11    1    3    3    0    0  0.22649068611E+03 -0.90104180103E+03 -0.26712364612E+03  0.96671060841E+03  0.00000000000E+00 0. -1.
         22    1    1    2    0    0 -0.33522549878E+03  0.11378691580E+04  0.45645178821E+03  0.12710116407E+04  0.00000000000E+00 0. -1.
<mgrwt>
<rscale>  0 0.25041191E+04</rscale>
<asrwt>0</asrwt>
<pdfrwt beam="1">  1        2 0.20218018E+00 0.25041191E+04</pdfrwt>
<pdfrwt beam="2">  1       -2 0.18352053E+00 0.25041191E+04</pdfrwt>
<totfact> 0.24801909E+00</totfact>
</mgrwt>
</event>
<event>
 6    1  0.8968082E-007  0.1480066E+04  0.7818608E-02  0.8897818E-01
          2   -1    0    0  501    0  0.00000000000E+00  0.00000000000E+00  0.24149586492E+03  0.24149586492E+03  0.00000000000E+00 0. -1.
         -2   -1    0    0    0  501 -0.00000000000E+00 -0.00000000000E+00 -0.22677356965E+04  0.22677356965E+04  0.00000000000E+00 0.  1.
         23    2    1    2    0    0 -0.64726363354E+03  0.24902590956E+03 -0.59315023644E+03  0.91715433256E+03  0.91546446194E+02 0.  0.
         13    1    3    3    0    0 -0.37724415499E+03  0.11334619080E+03 -0.38027442889E+03  0.54751178317E+03  0.00000000000E+00 0. -1.
        -13    1    3    3    0    0 -0.27001947855E+03  0.13567971876E+03 -0.21287580755E+03  0.36964254939E+03  0.00000000000E+00 0.  1.
         22    1    1    2    0    0  0.64726363354E+03 -0.24902590956E+03 -0.14330895951E+04  0.15920772288E+04  0.00000000000E+00 0.  1.
<mgrwt>
<rscale>  0 0.14800659E+04</rscale>
<asrwt>0</asrwt>
<pdfrwt beam="1">  1        2 0.37153209E-01 0.14800659E+04</pdfrwt>
<pdfrwt beam="2">  1       -2 0.34888242E+00 0.14800659E+04</pdfrwt>
<totfact> 0.21568047E+00</totfact>
</mgrwt>
</event>
<event>
 6    1  0.8968082E-007  0.1650823E+04  0.7818608E-02  0.8789920E-01
         -2   -1    0    0    0  501 -0.00000000000E+00  0.00000000000E+00  0.30310067103E+03  0.30310067103E+03  0.00000000000E+00 0.  1.
          2   -1    0    0  501    0  0.00000000000E+00 -0.00000000000E+00 -0.22477822571E+04  0.22477822571E+04  0.00000000000E+00 0. -1.
         23    2    1    2    0    0 -0.69587327979E+03  0.26341213696E+03 -0.15174451336E+04  0.16928872628E+04  0.97989670977E+02 0.  0.
         11    1    3    3    0    0 -0.57585493300E+03  0.25467026601E+03 -0.12507581954E+04  0.14003077917E+04  0.00000000000E+00 0.  1.
        -11    1    3    3    0    0 -0.12001834680E+03  0.87418709482E+01 -0.26668693828E+03  0.29257947113E+03  0.00000000000E+00 0. -1.
         22    1    1    2    0    0  0.69587327979E+03 -0.26341213696E+03 -0.42723645248E+03  0.85799566535E+03  0.00000000000E+00 0.  1.
<mgrwt>
<rscale>  0 0.16508232E+04</rscale>
<asrwt>0</asrwt>
<pdfrwt beam="1">  1        2 0.34581266E+00 0.16508232E+04</pdfrwt>
<pdfrwt beam="2">  1       -2 0.46630872E-01 0.16508232E+04</pdfrwt>
<totfact> 0.20226817E+01</totfact>
</mgrwt>
</event>
<event>
 6    1  0.8968082E-007  0.1180550E+04  0.7818608E-02  0.9130053E-01
         -2   -1    0    0    0  501 -0.00000000000E+00  0.00000000000E+00  0.50097226714E+03  0.50097226714E+03  0.00000000000E+00 0.  1.
          2   -1    0    0  501    0  0.00000000000E+00 -0.00000000000E+00 -0.69549714975E+03  0.69549714975E+03  0.00000000000E+00 0. -1.
         23    2    1    2    0    0  0.52385601589E+01 -0.44532032204E+03  0.28935988876E+03  0.53883570144E+03  0.90978767763E+02 0.  0.
         11    1    3    3    0    0 -0.13409224952E+02 -0.27089819278E+03  0.22354349038E+03  0.35147877639E+03  0.00000000000E+00 0.  1.
        -11    1    3    3    0    0  0.18647785111E+02 -0.17442212926E+03  0.65816398388E+02  0.18735692505E+03  0.00000000000E+00 0. -1.
         22    1    1    2    0    0 -0.52385601589E+01  0.44532032204E+03 -0.48388477138E+03  0.65763371546E+03  0.00000000000E+00 0. -1.
<mgrwt>
<rscale>  0 0.11805504E+04</rscale>
<asrwt>0</asrwt>
<pdfrwt beam="1">  1        2 0.10699956E+00 0.11805504E+04</pdfrwt>
<pdfrwt beam="2">  1       -2 0.77072656E-01 0.11805504E+04</pdfrwt>
<totfact> 0.61365878E+01</totfact>
</mgrwt>
</event>
<event>
 6    1  0.8968082E-007  0.1957610E+04  0.7818608E-02  0.8626700E-01
         -2   -1    0    0    0  501 -0.00000000000E+00  0.00000000000E+00  0.25314427756E+04  0.25314427756E+04  0.00000000000E+00 0.  1.
          2   -1    0    0  501    0  0.00000000000E+00 -0.00000000000E+00 -0.37846386271E+03  0.37846386271E+03  0.00000000000E+00 0. -1.
         23    2    1    2    0    0  0.42045412861E+03 -0.45255557765E+03  0.22033515337E+04  0.22901279471E+04  0.91322548824E+02 0.  0.
         13    1    3    3    0    0  0.88461215140E+02 -0.97450059106E+02  0.62067878198E+03  0.63447935427E+03  0.00000000000E+00 0. -1.
        -13    1    3    3    0    0  0.33199291347E+03 -0.35510551854E+03  0.15826727517E+04  0.16556485928E+04  0.00000000000E+00 0.  1.
         22    1    1    2    0    0 -0.42045412861E+03  0.45255557765E+03 -0.50372620828E+02  0.61977869119E+03  0.00000000000E+00 0. -1.
<mgrwt>
<rscale>  0 0.19576104E+04</rscale>
<asrwt>0</asrwt>
<pdfrwt beam="1">  1        2 0.58225211E-01 0.19576104E+04</pdfrwt>
<pdfrwt beam="2">  1       -2 0.38945272E+00 0.19576104E+04</pdfrwt>
<totfact> 0.68838564E-01</totfact>
</mgrwt>
</event>
<event>
 6    1  0.8968082E-007  0.2268221E+04  0.7818608E-02  0.8490558E-01
         -4   -1    0    0    0  501 -0.00000000000E+00  0.00000000000E+00  0.95931011142E+03  0.95931011142E+03  0.00000000000E+00 0.  1.
          4   -1    0    0  501    0  0.00000000000E+00 -0.00000000000E+00 -0.13407616610E+04  0.13407616610E+04  0.00000000000E+00 0. -1.
         23    2    1    2    0    0  0.37826713643E+03  0.78086946592E+03  0.54673823761E+03  0.10294894530E+04  0.89903749129E+02 0.  0.
         11    1    3    3    0    0  0.30128563720E+03  0.54315476613E+03  0.36390517401E+03  0.71987298243E+03  0.00000000000E+00 0.  1.
        -11    1    3    3    0    0  0.76981499233E+02  0.23771469979E+03  0.18283306360E+03  0.30961647060E+03  0.00000000000E+00 0. -1.
         22    1    1    2    0    0 -0.37826713643E+03 -0.78086946592E+03 -0.92818978716E+03  0.12705823194E+04  0.00000000000E+00 0. -1.
<mgrwt>
<rscale>  0 0.22682206E+04</rscale>
<asrwt>0</asrwt>
<pdfrwt beam="1">  1        4 0.20627102E+00 0.22682206E+04</pdfrwt>
<pdfrwt beam="2">  1       -4 0.14758617E+00 0.22682206E+04</pdfrwt>
<totfact> 0.67584976E-02</totfact>
</mgrwt>
</event>
<event>
 6    1  0.8968082E-007  0.7919260E+04  0.7818608E-02  0.7489411E-01
         -2   -1    0    0    0  501 -0.00000000000E+00  0.00000000000E+00  0.31672284916E+04  0.31672284916E+04  0.00000000000E+00 0.  1.
          2   -1    0    0  501    0  0.00000000000E+00 -0.00000000000E+00 -0.49502803706E+04  0.49502803706E+04  0.00000000000E+00 0. -1.
         23    2    1    2    0    0  0.27738595814E+04  0.33661387573E+03 -0.37666775463E+04  0.46907937198E+04  0.89889402707E+02 0.  0.
         13    1    3    3    0    0  0.22129641512E+04  0.23276725299E+03 -0.29862057308E+04  0.37240858738E+04  0.00000000000E+00 0.  1.
        -13    1    3    3    0    0  0.56089543025E+03  0.10384662274E+03 -0.78047181550E+03  0.96670784601E+03  0.00000000000E+00 0. -1.
         22    1    1    2    0    0 -0.27738595814E+04 -0.33661387573E+03  0.19836256673E+04  0.34267151424E+04  0.00000000000E+00 0.  1.
<mgrwt>
<rscale>  0 0.79192598E+04</rscale>
<asrwt>0</asrwt>
<pdfrwt beam="1">  1        2 0.76158159E+00 0.79192598E+04</pdfrwt>
<pdfrwt beam="2">  1       -2 0.48726593E+00 0.79192598E+04</pdfrwt>
<totfact> 0.45268780E-05</totfact>
</mgrwt>
</event>
<event>
 6    1  0.8968082E-007  0.3294872E+04  0.7818608E-02  0.8164201E-01
         -2   -1    0    0    0  501 -0.00000000000E+00  0.00000000000E+00  0.10402380398E+04  0.10402380398E+04  0.00000000000E+00 0.  1.
          2   -1    0    0  501    0  0.00000000000E+00 -0.00000000000E+00 -0.26090622447E+04  0.26090622447E+04  0.00000000000E+00 0. -1.
         23    2    1    2    0    0  0.13534992517E+04 -0.64791044220E+03 -0.35346280870E+02  0.15037694157E+04  0.91241058829E+02 0.  0.
         13    1    3    3    0    0  0.79724533176E+03 -0.35733422147E+03 -0.59878785676E+02  0.87571304308E+03  0.00000000000E+00 0. -1.
        -13    1    3    3    0    0  0.55625391989E+03 -0.29057622074E+03  0.24532504806E+02  0.62805637266E+03  0.00000000000E+00 0.  1.
         22    1    1    2    0    0 -0.13534992517E+04  0.64791044220E+03 -0.15334779240E+04  0.21455308687E+04  0.00000000000E+00 0. -1.
<mgrwt>
<rscale>  0 0.32948723E+04</rscale>
<asrwt>0</asrwt>
<pdfrwt beam="1">  1        2 0.40139418E+00 0.32948723E+04</pdfrwt>
<pdfrwt beam="2">  1       -2 0.16003662E+00 0.32948723E+04</pdfrwt>
<totfact> 0.63213273E-01</totfact>
</mgrwt>
</event>
<event>
 6    1  0.8968082E-007  0.8898618E+03  0.7818608E-02  0.9438344E-01
         -2   -1    0    0    0  501 -0.00000000000E+00  0.00000000000E+00  0.19746240578E+04  0.19746240578E+04  0.00000000000E+00 0.  1.
          2   -1    0    0  501    0  0.00000000000E+00 -0.00000000000E+00 -0.10025378030E+03  0.10025378030E+03  0.00000000000E+00 0. -1.
         23    2    1    2    0    0 -0.51618340757E+02 -0.12187136077E+03  0.19260811541E+04  0.19327824602E+04  0.91336436787E+02 0.  0.
         11    1    3    3    0    0 -0.32046480834E+02 -0.37682193062E+01  0.73310572131E+03  0.73381549113E+03  0.00000000000E+00 0.  1.
        -11    1    3    3    0    0 -0.19571859923E+02 -0.11810314146E+03  0.11929754328E+04  0.11989669691E+04  0.00000000000E+00 0. -1.
         22    1    1    2    0    0  0.51618340757E+02  0.12187136077E+03 -0.51710876548E+02  0.14209537794E+03  0.00000000000E+00 0. -1.
<mgrwt>
<rscale>  0 0.88986185E+03</rscale>
<asrwt>0</asrwt>
<pdfrwt beam="1">  1        2 0.15423660E-01 0.88986185E+03</pdfrwt>
<pdfrwt beam="2">  1       -2 0.30378829E+00 0.88986185E+03</pdfrwt>
<totfact> 0.11995714E+01</totfact>
</mgrwt>
</event>
<event>
 6    1  0.8968082E-007  0.1486319E+04  0.7818608E-02  0.8893602E-01
          1   -1    0    0  501    0  0.00000000000E+00  0.00000000000E+00  0.72633506352E+03  0.72633506352E+03  0.00000000000E+00 0. -1.
         -1   -1    0    0    0  501 -0.00000000000E+00 -0.00000000000E+00 -0.76037406639E+03  0.76037406639E+03  0.00000000000E+00 0.  1.
         23    2    1    2    0    0 -0.90596729352E+02  0.73174559786E+03  0.49633312405E+02  0.74464414374E+03  0.91498894852E+02 0.  0.
         11    1    3    3    0    0 -0.59622724750E+01  0.40784945135E+03  0.16316559839E+02  0.40821924720E+03  0.00000000000E+00 0.  1.
        -11    1    3    3    0    0 -0.84634456877E+02  0.32389614651E+03  0.33316752565E+02  0.33642489654E+03  0.00000000000E+00 0. -1.
         22    1    1    2    0    0  0.90596729352E+02 -0.73174559786E+03 -0.83672315271E+02  0.74206498617E+03  0.00000000000E+00 0. -1.
<mgrwt>
<rscale>  0 0.14863194E+04</rscale>
<asrwt>0</asrwt>
<pdfrwt beam="1">  1        1 0.11174386E+00 0.14863194E+04</pdfrwt>
<pdfrwt beam="2">  1       -1 0.11698062E+00 0.14863194E+04</pdfrwt>
<totfact> 0.16428114E+01</totfact>
</mgrwt>
</event>
<event>
 6    1  0.8968082E-007  0.1235348E+04  0.7818608E-02  0.9082467E-01
          1   -1    0    0  501    0  0.00000000000E+00  0.00000000000E+00  0.17600470146E+04  0.17600470146E+04  0.00000000000E+00 0. -1.
         -1   -1    0    0    0  501 -0.00000000000E+00 -0.00000000000E+00 -0.21676743731E+03  0.21676743731E+03  0.00000000000E+00 0.  1.
         23    2    1    2    0    0  0.45926354513E+03 -0.12500249055E+03  0.13974836986E+04  0.14790142262E+04  0.89295950867E+02 0.  0.
         13    1    3    3    0    0  0.61186041986E+02  0.90135870563E+01  0.13502479602E+03  0.14851488823E+03  0.00000000000E+00 0.  1.
        -13    1    3    3    0    0  0.39807750315E+03 -0.13401607761E+03  0.12624589026E+04  0.13304993379E+04  0.00000000000E+00 0. -1.
         22    1    1    2    0    0 -0.45926354513E+03  0.12500249055E+03  0.14579587875E+03  0.49780022579E+03  0.00000000000E+00 0.  1.
<mgrwt>
<rscale>  0 0.12353475E+04</rscale>
<asrwt>0</asrwt>
<pdfrwt beam="1">  1        1 0.27077645E+00 0.12353475E+04</pdfrwt>
<pdfrwt beam="2">  1       -1 0.33348838E-01 0.12353475E+04</pdfrwt>
<totfact> 0.36243620E+01</totfact>
</mgrwt>
</event>
<event>
 6    1  0.8968082E-007  0.2020552E+04  0.7818608E-02  0.8597072E-01
         -2   -1    0    0    0  501 -0.00000000000E+00  0.00000000000E+00  0.25442301051E+04  0.25442301051E+04  0.00000000000E+00 0.  1.
          2   -1    0    0  501    0  0.00000000000E+00 -0.00000000000E+00 -0.40116579531E+03  0.40116579531E+03  0.00000000000E+00 0. -1.
         23    2    1    2    0    0  0.33757656524E+03  0.13110745683E+03  0.24453255554E+04  0.24736873429E+04  0.91459806058E+02 0.  0.
         11    1    3    3    0    0  0.18794684098E+03  0.95933520393E+02  0.16694237929E+04  0.16827070618E+04  0.00000000000E+00 0.  1.
        -11    1    3    3    0    0  0.14962972426E+03  0.35173936437E+02  0.77590176246E+03  0.79098028115E+03  0.00000000000E+00 0. -1.
         22    1    1    2    0    0 -0.33757656524E+03 -0.13110745683E+03 -0.30226124557E+03  0.47170855749E+03  0.00000000000E+00 0. -1.
<mgrwt>
<rscale>  0 0.20205525E+04</rscale>
<asrwt>0</asrwt>
<pdfrwt beam="1">  1        2 0.61717816E-01 0.20205525E+04</pdfrwt>
<pdfrwt beam="2">  1       -2 0.39142001E+00 0.20205525E+04</pdfrwt>
<totfact> 0.62244906E-01</totfact>
</mgrwt>
</event>
<event>
 6    1  0.8968082E-007  0.1772738E+04  0.7818608E-02  0.8720933E-01
          1   -1    0    0  501    0  0.00000000000E+00  0.00000000000E+00  0.33704171131E+04  0.33704171131E+04  0.00000000000E+00 0. -1.
         -1   -1    0    0    0  501 -0.00000000000E+00 -0.00000000000E+00 -0.23310164438E+03  0.23310164438E+03  0.00000000000E+00 0.  1.
         23    2    1    2    0    0 -0.18707308294E+03  0.25515555090E+03  0.32507917671E+04  0.32673974047E+04  0.90210829847E+02 0.  0.
         13    1    3    3    0    0 -0.14162160056E+03  0.22498590871E+03  0.23576579054E+04  0.23725990255E+04  0.00000000000E+00 0.  1.
        -13    1    3    3    0    0 -0.45451482386E+02  0.30169642192E+02  0.89313386163E+03  0.89479837916E+03  0.00000000000E+00 0. -1.
         22    1    1    2    0    0  0.18707308294E+03 -0.25515555090E+03 -0.11347629834E+03  0.33612135280E+03  0.00000000000E+00 0.  1.
<mgrwt>
<rscale>  0 0.17727377E+04</rscale>
<asrwt>0</asrwt>
<pdfrwt beam="1">  1        1 0.51852567E+00 0.17727377E+04</pdfrwt>
<pdfrwt beam="2">  1       -1 0.35861794E-01 0.17727377E+04</pdfrwt>
<totfact> 0.22285724E+00</totfact>
</mgrwt>
</event>
<event>
 6    1  0.8968082E-007  0.9805135E+03  0.7818608E-02  0.9330179E-01
          1   -1    0    0  501    0  0.00000000000E+00  0.00000000000E+00  0.59017109434E+03  0.59017109434E+03  0.00000000000E+00 0. -1.
         -1   -1    0    0    0  501 -0.00000000000E+00 -0.00000000000E+00 -0.40725764416E+03  0.40725764416E+03  0.00000000000E+00 0.  1.
         23    2    1    2    0    0  0.14624769959E+03 -0.82971528735E+02  0.55694274677E+03  0.58734267568E+03  0.80706451257E+02 0.  0.
         13    1    3    3    0    0  0.10757504605E+03 -0.62242910556E+02  0.27210198101E+03  0.29914220450E+03  0.00000000000E+00 0.  1.
        -13    1    3    3    0    0  0.38672653537E+02 -0.20728618179E+02  0.28484076576E+03  0.28820047117E+03  0.00000000000E+00 0. -1.
         22    1    1    2    0    0 -0.14624769959E+03  0.82971528735E+02 -0.37402929659E+03  0.41008606282E+03  0.00000000000E+00 0.  1.
<mgrwt>
<rscale>  0 0.98051352E+03</rscale>
<asrwt>0</asrwt>
<pdfrwt beam="1">  1        1 0.90795553E-01 0.98051352E+03</pdfrwt>
<pdfrwt beam="2">  1       -1 0.62655022E-01 0.98051352E+03</pdfrwt>
<totfact> 0.90987223E+01</totfact>
</mgrwt>
</event>
<event>
 6    1  0.8968082E-007  0.2832405E+04  0.7818608E-02  0.8293278E-01
         -2   -1    0    0    0  501 -0.00000000000E+00  0.00000000000E+00  0.14524139823E+04  0.14524139823E+04  0.00000000000E+00 0.  1.
          2   -1    0    0  501    0  0.00000000000E+00 -0.00000000000E+00 -0.13808942640E+04  0.13808942640E+04  0.00000000000E+00 0. -1.
         23    2    1    2    0    0 -0.59943836599E+03  0.11293599899E+04 -0.57010471042E+03  0.14027621097E+04  0.89116856473E+02 0.  0.
         13    1    3    3    0    0 -0.19395181981E+03  0.38744236400E+03 -0.23835266978E+03  0.49451075723E+03  0.00000000000E+00 0. -1.
        -13    1    3    3    0    0 -0.40548654618E+03  0.74191762589E+03 -0.33175204065E+03  0.90825135244E+03  0.00000000000E+00 0.  1.
         22    1    1    2    0    0  0.59943836599E+03 -0.11293599899E+04  0.64162442874E+03  0.14305461366E+04  0.00000000000E+00 0. -1.
<mgrwt>
<rscale>  0 0.28324054E+04</rscale>
<asrwt>0</asrwt>
<pdfrwt beam="1">  1        2 0.21244527E+00 0.28324054E+04</pdfrwt>
<pdfrwt beam="2">  1       -2 0.22344831E+00 0.28324054E+04</pdfrwt>
<totfact> 0.12106746E+00</totfact>
</mgrwt>
</event>
<event>
 6    1  0.8968082E-007  0.2700553E+04  0.7818608E-02  0.8334826E-01
         -1   -1    0    0    0  501 -0.00000000000E+00  0.00000000000E+00  0.20557781238E+04  0.20557781238E+04  0.00000000000E+00 0.  1.
          1   -1    0    0  501    0  0.00000000000E+00 -0.00000000000E+00 -0.88688884234E+03  0.88688884234E+03  0.00000000000E+00 0. -1.
         23    2    1    2    0    0 -0.54034658213E+03  0.12354075683E+04  0.54973098854E+03  0.14589003807E+04  0.89330131491E+02 0.  0.
         11    1    3    3    0    0 -0.14769739906E+03  0.28142875322E+03  0.96975558275E+02  0.33229643954E+03  0.00000000000E+00 0.  1.
        -11    1    3    3    0    0 -0.39264918307E+03  0.95397881503E+03  0.45275543026E+03  0.11266039411E+04  0.00000000000E+00 0. -1.
         22    1    1    2    0    0  0.54034658213E+03 -0.12354075683E+04  0.61915829294E+03  0.14837665855E+04  0.00000000000E+00 0.  1.
<mgrwt>
<rscale>  0 0.27005530E+04</rscale>
<asrwt>0</asrwt>
<pdfrwt beam="1">  1        1 0.13644444E+00 0.27005530E+04</pdfrwt>
<pdfrwt beam="2">  1       -1 0.31627356E+00 0.27005530E+04</pdfrwt>
<totfact> 0.42159362E-01</totfact>
</mgrwt>
</event>
<event>
 6    1  0.8968082E-007  0.1366732E+04  0.7818608E-02  0.8978258E-01
         -1   -1    0    0    0  501 -0.00000000000E+00  0.00000000000E+00  0.12188947200E+04  0.12188947200E+04  0.00000000000E+00 0.  1.
          1   -1    0    0  501    0  0.00000000000E+00 -0.00000000000E+00 -0.38312488913E+03  0.38312488913E+03  0.00000000000E+00 0. -1.
         23    2    1    2    0    0 -0.43080030210E+03 -0.50698009623E+03  0.25270938612E+03  0.71738567325E+03  0.90346289839E+02 0.  0.
         13    1    3    3    0    0 -0.39833937030E+03 -0.49305889783E+03  0.22542301996E+03  0.67275320035E+03  0.00000000000E+00 0. -1.
        -13    1    3    3    0    0 -0.32460931805E+02 -0.13921198395E+02  0.27286366160E+02  0.44632472894E+02  0.00000000000E+00 0.  1.
         22    1    1    2    0    0  0.43080030210E+03  0.50698009623E+03  0.58306044473E+03  0.88463393586E+03  0.00000000000E+00 0.  1.
<mgrwt>
<rscale>  0 0.13667317E+04</rscale>
<asrwt>0</asrwt>
<pdfrwt beam="1">  1        1 0.58942291E-01 0.13667317E+04</pdfrwt>
<pdfrwt beam="2">  1       -1 0.18752226E+00 0.13667317E+04</pdfrwt>
<totfact> 0.11424826E+01</totfact>
</mgrwt>
</event>
<event>
 6    1  0.8968082E-007  0.3472521E+04  0.7818608E-02  0.8120333E-01
          2   -1    0    0  501    0  0.00000000000E+00  0.00000000000E+00  0.30096581547E+04  0.30096581547E+04  0.00000000000E+00 0. -1.
         -2   -1    0    0    0  501 -0.00000000000E+00 -0.00000000000E+00 -0.10016420957E+04  0.10016420957E+04  0.00000000000E+00 0.  1.
         23    2    1    2    0    0  0.13575375884E+04 -0.55448086902E+03  0.20757214444E+04  0.25433283987E+04  0.97685675299E+02 0.  0.
         11    1    3    3    0    0  0.12725218692E+04 -0.49290141113E+03  0.19320666956E+04  0.23654059747E+04  0.00000000000E+00 0. -1.
        -11    1    3    3    0    0  0.85015719158E+02 -0.61579457888E+02  0.14365474878E+03  0.17792242406E+03  0.00000000000E+00 0.  1.
         22    1    1    2    0    0 -0.13575375884E+04  0.55448086902E+03 -0.67705385445E+02  0.14679718516E+04  0.00000000000E+00 0.  1.
<mgrwt>
<rscale>  0 0.34725209E+04</rscale>
<asrwt>0</asrwt>
<pdfrwt beam="1">  1        2 0.46302433E+00 0.34725209E+04</pdfrwt>
<pdfrwt beam="2">  1       -2 0.15409879E+00 0.34725209E+04</pdfrwt>
<totfact> 0.39401638E-01</totfact>
</mgrwt>
</event>
<event>
 6    1  0.8968082E-007  0.2024555E+04  0.7818608E-02  0.8595226E-01
          1   -1    0    0  501    0  0.00000000000E+00  0.00000000000E+00  0.31295279485E+04  0.31295279485E+04  0.00000000000E+00 0. -1.
         -1   -1    0    0    0  501 -0.00000000000E+00 -0.00000000000E+00 -0.32743154445E+03  0.32743154445E+03  0.00000000000E+00 0.  1.
         23    2    1    2    0    0  0.78337221821E+03 -0.16793758265E+03  0.35302909846E+03  0.88017744332E+03  0.90596486932E+02 0.  0.
         11    1    3    3    0    0  0.28684763978E+03 -0.99277049121E+02  0.15920387858E+03  0.34275848039E+03  0.00000000000E+00 0.  1.
        -11    1    3    3    0    0  0.49652457843E+03 -0.68660533528E+02  0.19382521988E+03  0.53741896293E+03  0.00000000000E+00 0. -1.
         22    1    1    2    0    0 -0.78337221821E+03  0.16793758265E+03  0.24490673056E+04  0.25767820496E+04  0.00000000000E+00 0. -1.
<mgrwt>
<rscale>  0 0.20245554E+04</rscale>
<asrwt>0</asrwt>
<pdfrwt beam="1">  1        1 0.48146582E+00 0.20245554E+04</pdfrwt>
<pdfrwt beam="2">  1       -1 0.50374086E-01 0.20245554E+04</pdfrwt>
<totfact> 0.17617632E+00</totfact>
</mgrwt>
</event>
<event>
 6    1  0.8968082E-007  0.2294454E+04  0.7818608E-02  0.8480111E-01
         -1   -1    0    0    0  501 -0.00000000000E+00  0.00000000000E+00  0.89191504893E+03  0.89191504893E+03  0.00000000000E+00 0.  1.
          1   -1    0    0  501    0  0.00000000000E+00 -0.00000000000E+00 -0.14756225575E+04  0.14756225575E+04  0.00000000000E+00 0. -1.
         23    2    1    2    0    0 -0.10123010724E+04  0.53406013641E+03 -0.24643754731E+03  0.11743382446E+04  0.91461234902E+02 0.  0.
         11    1    3    3    0    0 -0.55858541068E+03  0.24387849468E+03 -0.13896938092E+03  0.62514547909E+03  0.00000000000E+00 0. -1.
        -11    1    3    3    0    0 -0.45371566170E+03  0.29018164173E+03 -0.10746816639E+03  0.54919276548E+03  0.00000000000E+00 0.  1.
         22    1    1    2    0    0  0.10123010724E+04 -0.53406013641E+03 -0.33726996130E+03  0.11931993619E+04  0.00000000000E+00 0.  1.
<mgrwt>
<rscale>  0 0.22944542E+04</rscale>
<asrwt>0</asrwt>
<pdfrwt beam="1">  1        1 0.22701885E+00 0.22944542E+04</pdfrwt>
<pdfrwt beam="2">  1       -1 0.13721770E+00 0.22944542E+04</pdfrwt>
<totfact> 0.27169380E+00</totfact>
</mgrwt>
</event>
<event>
 6    1  0.8968082E-007  0.1683618E+04  0.7818608E-02  0.8770763E-01
          2   -1    0    0  501    0  0.00000000000E+00  0.00000000000E+00  0.22238983425E+04  0.22238983425E+04  0.00000000000E+00 0. -1.
         -2   -1    0    0    0  501 -0.00000000000E+00 -0.00000000000E+00 -0.31864857772E+03  0.31864857772E+03  0.00000000000E+00 0.  1.
         23    2    1    2    0    0  0.50214367514E+01  0.81816477772E+03  0.67245666307E+03  0.10629531753E+04  0.90844212311E+02 0.  0.
         13    1    3    3    0    0  0.19528165231E+02  0.23890456104E+03  0.24620006541E+03  0.34361491634E+03  0.00000000000E+00 0.  1.
        -13    1    3    3    0    0 -0.14506728480E+02  0.57926021668E+03  0.42625659766E+03  0.71933825899E+03  0.00000000000E+00 0. -1.
         22    1    1    2    0    0 -0.50214367514E+01 -0.81816477772E+03  0.12327931017E+04  0.14795937449E+04  0.00000000000E+00 0. -1.
<mgrwt>
<rscale>  0 0.16836176E+04</rscale>
<asrwt>0</asrwt>
<pdfrwt beam="1">  1        2 0.34213820E+00 0.16836176E+04</pdfrwt>
<pdfrwt beam="2">  1       -2 0.49022860E-01 0.16836176E+04</pdfrwt>
<totfact> 0.18802807E+01</totfact>
</mgrwt>
</event>
<event>
 6    1  0.8968082E-007  0.1782233E+04  0.7818608E-02  0.8715805E-01
         -2   -1    0    0    0  501 -0.00000000000E+00  0.00000000000E+00  0.64830467523E+03  0.64830467523E+03  0.00000000000E+00 0.  1.
          2   -1    0    0  501    0  0.00000000000E+00 -0.00000000000E+00 -0.12248690535E+04  0.12248690535E+04  0.00000000000E+00 0. -1.
         23    2    1    2    0    0  0.65768340515E+03 -0.46455427792E+02 -0.91539308041E+03  0.11318840030E+04  0.92256904017E+02 0.  0.
         11    1    3    3    0    0  0.34421089926E+03 -0.67215682967E+02 -0.45384885311E+03  0.57356592705E+03  0.00000000000E+00 0. -1.
        -11    1    3    3    0    0  0.31347250589E+03  0.20760255175E+02 -0.46154422730E+03  0.55831807592E+03  0.00000000000E+00 0.  1.
         22    1    1    2    0    0 -0.65768340515E+03  0.46455427792E+02  0.33882870210E+03  0.74128972579E+03  0.00000000000E+00 0.  1.
<mgrwt>
<rscale>  0 0.17822327E+04</rscale>
<asrwt>0</asrwt>
<pdfrwt beam="1">  1        2 0.18844139E+00 0.17822327E+04</pdfrwt>
<pdfrwt beam="2">  1       -2 0.99739182E-01 0.17822327E+04</pdfrwt>
<totfact> 0.14385678E+01</totfact>
</mgrwt>
</event>
<event>
 6    1  0.8968082E-007  0.2227890E+04  0.7818608E-02  0.8506908E-01
          2   -1    0    0  501    0  0.00000000000E+00  0.00000000000E+00  0.42495922202E+04  0.42495922202E+04  0.00000000000E+00 0. -1.
         -2   -1    0    0    0  501 -0.00000000000E+00 -0.00000000000E+00 -0.29199834398E+03  0.29199834398E+03  0.00000000000E+00 0.  1.
         23    2    1    2    0    0 -0.91697760571E+03 -0.14297340830E+03  0.73279620351E+03  0.11859074214E+04  0.89982283809E+02 0.  0.
         11    1    3    3    0    0 -0.74738103552E+03 -0.15152948941E+03  0.59731130849E+03  0.96866939544E+03  0.00000000000E+00 0. -1.
        -11    1    3    3    0    0 -0.16959657019E+03  0.85560811046E+01  0.13548489503E+03  0.21723802596E+03  0.00000000000E+00 0.  1.
         22    1    1    2    0    0  0.91697760571E+03  0.14297340830E+03  0.32247976727E+04  0.33556831428E+04  0.00000000000E+00 0. -1.
<mgrwt>
<rscale>  0 0.22278904E+04</rscale>
<asrwt>0</asrwt>
<pdfrwt beam="1">  1        2 0.65378338E+00 0.22278904E+04</pdfrwt>
<pdfrwt beam="2">  1       -2 0.44922825E-01 0.22278904E+04</pdfrwt>
<totfact> 0.90957424E-01</totfact>
</mgrwt>
</event>
<event>
 6    1  0.8968082E-007  0.2987837E+04  0.7818608E-02  0.8247213E-01
         -2   -1    0    0    0  501 -0.00000000000E+00  0.00000000000E+00  0.12169744829E+04  0.12169744829E+04  0.00000000000E+00 0.  1.
          2   -1    0    0  501    0  0.00000000000E+00 -0.00000000000E+00 -0.18338864662E+04  0.18338864662E+04  0.00000000000E+00 0. -1.
         23    2    1    2    0    0 -0.12589268875E+04 -0.79085809414E+03 -0.44373686315E+03  0.15540833920E+04  0.88990744971E+02 0.  0.
         11    1    3    3    0    0 -0.95465852227E+03 -0.63755704808E+03 -0.36213743589E+03  0.12037422507E+04  0.00000000000E+00 0. -1.
        -11    1    3    3    0    0 -0.30426836519E+03 -0.15330104606E+03 -0.81599427266E+02  0.35034114133E+03  0.00000000000E+00 0.  1.
         22    1    1    2    0    0  0.12589268875E+04  0.79085809414E+03 -0.17317512023E+03  0.14967775571E+04  0.00000000000E+00 0.  1.
<mgrwt>
<rscale>  0 0.29878374E+04</rscale>
<asrwt>0</asrwt>
<pdfrwt beam="1">  1        2 0.28213638E+00 0.29878374E+04</pdfrwt>
<pdfrwt beam="2">  1       -2 0.18722684E+00 0.29878374E+04</pdfrwt>
<totfact> 0.11458728E+00</totfact>
</mgrwt>
</event>
<event>
 6    1  0.8968082E-007  0.1529351E+04  0.7818608E-02  0.8865166E-01
          2   -1    0    0  501    0  0.00000000000E+00  0.00000000000E+00  0.30072625521E+04  0.30072625521E+04  0.00000000000E+00 0. -1.
         -2   -1    0    0    0  501 -0.00000000000E+00 -0.00000000000E+00 -0.19443885114E+03  0.19443885114E+03  0.00000000000E+00 0.  1.
         23    2    1    2    0    0  0.41134799813E+03  0.49166467193E+03  0.54982370203E+03  0.84965754303E+03  0.93115583708E+02 0.  0.
         13    1    3    3    0    0  0.19782697122E+03  0.29808128260E+03  0.33588834543E+03  0.49072287717E+03  0.00000000000E+00 0.  1.
        -13    1    3    3    0    0  0.21352102691E+03  0.19358338933E+03  0.21393535660E+03  0.35893466586E+03  0.00000000000E+00 0. -1.
         22    1    1    2    0    0 -0.41134799813E+03 -0.49166467193E+03  0.22629999990E+04  0.23520438602E+04  0.00000000000E+00 0. -1.
<mgrwt>
<rscale>  0 0.15293511E+04</rscale>
<asrwt>0</asrwt>
<pdfrwt beam="1">  1        2 0.46265574E+00 0.15293511E+04</pdfrwt>
<pdfrwt beam="2">  1       -2 0.29913672E-01 0.15293511E+04</pdfrwt>
<totfact> 0.17244805E+01</totfact>
</mgrwt>
</event>
<event>
 6    1  0.8968082E-007  0.4493381E+04  0.7818608E-02  0.7911797E-01
         -2   -1    0    0    0  501 -0.00000000000E+00  0.00000000000E+00  0.19364466305E+04  0.19364466305E+04  0.00000000000E+00 0.  1.
          2   -1    0    0  501    0  0.00000000000E+00 -0.00000000000E+00 -0.26066397938E+04  0.26066397938E+04  0.00000000000E+00 0. -1.
         23    2    1    2    0    0  0.28981305116E+03 -0.16405064535E+04 -0.18580877329E+04  0.24970300866E+04  0.86117371060E+02 0.  0.
         11    1    3    3    0    0  0.51518459803E+02 -0.43777189705E+03 -0.44975357978E+03  0.62974333507E+03  0.00000000000E+00 0. -1.
        -11    1    3    3    0    0  0.23829459135E+03 -0.12027345565E+04 -0.14083341531E+04  0.18672867515E+04  0.00000000000E+00 0.  1.
         22    1    1    2    0    0 -0.28981305116E+03  0.16405064535E+04  0.11878945696E+04  0.20460563377E+04  0.00000000000E+00 0.  1.
<mgrwt>
<rscale>  0 0.44933813E+04</rscale>
<asrwt>0</asrwt>
<pdfrwt beam="1">  1        2 0.40102151E+00 0.44933813E+04</pdfrwt>
<pdfrwt beam="2">  1       -2 0.29791487E+00 0.44933813E+04</pdfrwt>
<totfact> 0.74836549E-02</totfact>
</mgrwt>
</event>
<event>
 6    1  0.8968082E-007  0.2272188E+04  0.7818608E-02  0.8488969E-01
          1   -1    0    0  501    0  0.00000000000E+00  0.00000000000E+00  0.89913354913E+03  0.89913354913E+03  0.00000000000E+00 0. -1.
         -1   -1    0    0    0  501 -0.00000000000E+00 -0.00000000000E+00 -0.14355032965E+04  0.14355032965E+04  0.00000000000E+00 0.  1.
         23    2    1    2    0    0 -0.76379689421E+03 -0.83850000219E+03 -0.27458086263E+03  0.11705915847E+04  0.91771776069E+02 0.  0.
         13    1    3    3    0    0 -0.25120211350E+03 -0.32677424412E+03 -0.71193788618E+02  0.41827319300E+03  0.00000000000E+00 0.  1.
        -13    1    3    3    0    0 -0.51259478071E+03 -0.51172575807E+03 -0.20338707401E+03  0.75231839174E+03  0.00000000000E+00 0. -1.
         22    1    1    2    0    0  0.76379689421E+03  0.83850000219E+03 -0.26178888476E+03  0.11640452609E+04  0.00000000000E+00 0.  1.
<mgrwt>
<rscale>  0 0.22721876E+04</rscale>
<asrwt>0</asrwt>
<pdfrwt beam="1">  1        1 0.13832824E+00 0.22721876E+04</pdfrwt>
<pdfrwt beam="2">  1       -1 0.22084666E+00 0.22721876E+04</pdfrwt>
<totfact> 0.17936740E+00</totfact>
</mgrwt>
</event>
<event>
 6    1  0.8968082E-007  0.3713774E+04  0.7818608E-02  0.8064916E-01
          2   -1    0    0  501    0  0.00000000000E+00  0.00000000000E+00  0.15924304243E+04  0.15924304243E+04  0.00000000000E+00 0. -1.
         -2   -1    0    0    0  501 -0.00000000000E+00 -0.00000000000E+00 -0.21652621375E+04  0.21652621375E+04  0.00000000000E+00 0.  1.
         23    2    1    2    0    0 -0.10935154840E+04  0.13322902511E+04 -0.98256004376E+03  0.19860688060E+04  0.90948532919E+02 0.  0.
         11    1    3    3    0    0 -0.85749771752E+03  0.10026186739E+04 -0.71920681577E+03  0.15025994093E+04  0.00000000000E+00 0. -1.
        -11    1    3    3    0    0 -0.23601776649E+03  0.32967157718E+03 -0.26335322799E+03  0.48346939674E+03  0.00000000000E+00 0.  1.
         22    1    1    2    0    0  0.10935154840E+04 -0.13322902511E+04  0.40972833056E+03  0.17716237557E+04  0.00000000000E+00 0. -1.
<mgrwt>
<rscale>  0 0.37137740E+04</rscale>
<asrwt>0</asrwt>
<pdfrwt beam="1">  1        2 0.24498929E+00 0.37137740E+04</pdfrwt>
<pdfrwt beam="2">  1       -2 0.33311725E+00 0.37137740E+04</pdfrwt>
<totfact> 0.18047296E-01</totfact>
</mgrwt>
</event>
<event>
 6    1  0.8968082E-007  0.3936033E+04  0.7818608E-02  0.8017576E-01
          1   -1    0    0  501    0  0.00000000000E+00  0.00000000000E+00  0.14890754116E+04  0.14890754116E+04  0.00000000000E+00 0. -1.
         -1   -1    0    0    0  501 -0.00000000000E+00 -0.00000000000E+00 -0.26010031568E+04  0.26010031568E+04  0.00000000000E+00 0.  1.
         23    2    1    2    0    0  0.16954753817E+04  0.19310088103E+03  0.46028777720E+03  0.17697798011E+04  0.91274238087E+02 0.  0.
         11    1    3    3    0    0  0.12122476113E+04  0.14611432095E+03  0.28721423619E+03  0.12543467158E+04  0.00000000000E+00 0. -1.
        -11    1    3    3    0    0  0.48322777035E+03  0.46986560079E+02  0.17307354101E+03  0.51543308534E+03  0.00000000000E+00 0.  1.
         22    1    1    2    0    0 -0.16954753817E+04 -0.19310088103E+03 -0.15722155225E+04  0.23202987672E+04  0.00000000000E+00 0.  1.
<mgrwt>
<rscale>  0 0.39360335E+04</rscale>
<asrwt>0</asrwt>
<pdfrwt beam="1">  1        1 0.22908853E+00 0.39360335E+04</pdfrwt>
<pdfrwt beam="2">  1       -1 0.40015433E+00 0.39360335E+04</pdfrwt>
<totfact> 0.37348185E-02</totfact>
</mgrwt>
</event>
<event>
 6    1  0.8968082E-007  0.2892567E+04  0.7818608E-02  0.8275092E-01
          2   -1    0    0  501    0  0.00000000000E+00  0.00000000000E+00  0.89965613017E+03  0.89965613017E+03  0.00000000000E+00 0. -1.
         -2   -1    0    0    0  501 -0.00000000000E+00 -0.00000000000E+00 -0.23250400322E+04  0.23250400322E+04  0.00000000000E+00 0.  1.
         23    2    1    2    0    0 -0.13174370798E+04  0.39970184436E+03 -0.22476587013E+03  0.13979817123E+04  0.91821281928E+02 0.  0.
         11    1    3    3    0    0 -0.12379857303E+04  0.39128035382E+03 -0.22705394801E+03  0.13180525327E+04  0.00000000000E+00 0.  1.
        -11    1    3    3    0    0 -0.79451349535E+02  0.84214905389E+01  0.22880778802E+01  0.79929179566E+02  0.00000000000E+00 0. -1.
         22    1    1    2    0    0  0.13174370798E+04 -0.39970184436E+03 -0.12006180319E+04  0.18267144501E+04  0.00000000000E+00 0. -1.
<mgrwt>
<rscale>  0 0.28925674E+04</rscale>
<asrwt>0</asrwt>
<pdfrwt beam="1">  1        2 0.13840864E+00 0.28925674E+04</pdfrwt>
<pdfrwt beam="2">  1       -2 0.35769846E+00 0.28925674E+04</pdfrwt>
<totfact> 0.35229472E-01</totfact>
</mgrwt>
</event>
<event>
 6    1  0.8968082E-007  0.2685899E+04  0.7818608E-02  0.8339595E-01
         -2   -1    0    0    0  501 -0.00000000000E+00  0.00000000000E+00  0.57811437619E+03  0.57811437619E+03  0.00000000000E+00 0.  1.
          2   -1    0    0  501    0  0.00000000000E+00 -0.00000000000E+00 -0.31196491273E+04  0.31196491273E+04  0.00000000000E+00 0. -1.
         23    2    1    2    0    0  0.10793703520E+04  0.51855749326E+03 -0.43993255542E+03  0.12789468466E+04  0.90676086154E+02 0.  0.
         13    1    3    3    0    0  0.71429913473E+03  0.31508010264E+03 -0.24898761107E+03  0.81944710350E+03  0.00000000000E+00 0. -1.
        -13    1    3    3    0    0  0.36507121725E+03  0.20347739062E+03 -0.19094494435E+03  0.45949974313E+03  0.00000000000E+00 0.  1.
         22    1    1    2    0    0 -0.10793703520E+04 -0.51855749326E+03 -0.21016021957E+04  0.24188166569E+04  0.00000000000E+00 0. -1.
<mgrwt>
<rscale>  0 0.26858995E+04</rscale>
<asrwt>0</asrwt>
<pdfrwt beam="1">  1        2 0.47994604E+00 0.26858995E+04</pdfrwt>
<pdfrwt beam="2">  1       -2 0.88940669E-01 0.26858995E+04</pdfrwt>
<totfact> 0.13941724E+00</totfact>
</mgrwt>
</event>
<event>
 6    1  0.8968082E-007  0.3385447E+04  0.7818608E-02  0.8141487E-01
         -1   -1    0    0    0  501 -0.00000000000E+00  0.00000000000E+00  0.18459610219E+04  0.18459610219E+04  0.00000000000E+00 0.  1.
          1   -1    0    0  501    0  0.00000000000E+00 -0.00000000000E+00 -0.15522066357E+04  0.15522066357E+04  0.00000000000E+00 0. -1.
         23    2    1    2    0    0  0.52171713363E+03  0.80554552923E+03  0.15451277393E+04  0.18211363847E+04  0.89585900732E+02 0.  0.
         11    1    3    3    0    0  0.36812799408E+03  0.57075092062E+03  0.10136451523E+04  0.12201439785E+04  0.00000000000E+00 0. -1.
        -11    1    3    3    0    0  0.15358913955E+03  0.23479460860E+03  0.53148258700E+03  0.60099240619E+03  0.00000000000E+00 0.  1.
         22    1    1    2    0    0 -0.52171713363E+03 -0.80554552923E+03 -0.12513733530E+04  0.15770312730E+04  0.00000000000E+00 0. -1.
<mgrwt>
<rscale>  0 0.33854471E+04</rscale>
<asrwt>0</asrwt>
<pdfrwt beam="1">  1        1 0.23880102E+00 0.33854471E+04</pdfrwt>
<pdfrwt beam="2">  1       -1 0.28399400E+00 0.33854471E+04</pdfrwt>
<totfact> 0.20790702E-01</totfact>
</mgrwt>
</event>
<event>
 6    1  0.8968082E-007  0.2090083E+04  0.7818608E-02  0.8565624E-01
         -1   -1    0    0    0  501 -0.00000000000E+00  0.00000000000E+00  0.74424379375E+03  0.74424379375E+03  0.00000000000E+00 0.  1.
          1   -1    0    0  501    0  0.00000000000E+00 -0.00000000000E+00 -0.14674117840E+04  0.14674117840E+04  0.00000000000E+00 0. -1.
         23    2    1    2    0    0  0.10198954878E+04 -0.19289404697E+03 -0.47189082982E+03  0.11436971840E+04  0.89260147512E+02 0.  0.
         11    1    3    3    0    0  0.75290687849E+03 -0.11907451144E+03 -0.38086859670E+03  0.85211994162E+03  0.00000000000E+00 0. -1.
        -11    1    3    3    0    0  0.26698860936E+03 -0.73819535535E+02 -0.91022233122E+02  0.29157724238E+03  0.00000000000E+00 0.  1.
         22    1    1    2    0    0 -0.10198954878E+04  0.19289404697E+03 -0.25127716046E+03  0.10679583938E+04  0.00000000000E+00 0.  1.
<mgrwt>
<rscale>  0 0.20900834E+04</rscale>
<asrwt>0</asrwt>
<pdfrwt beam="1">  1        1 0.22575566E+00 0.20900834E+04</pdfrwt>
<pdfrwt beam="2">  1       -1 0.11449905E+00 0.20900834E+04</pdfrwt>
<totfact> 0.44003326E+00</totfact>
</mgrwt>
</event>
<event>
 6    1  0.8968082E-007  0.2932661E+04  0.7818608E-02  0.8263226E-01
          1   -1    0    0  501    0  0.00000000000E+00  0.00000000000E+00  0.25315448020E+04  0.25315448020E+04  0.00000000000E+00 0. -1.
         -1   -1    0    0    0  501 -0.00000000000E+00 -0.00000000000E+00 -0.84933338180E+03  0.84933338180E+03  0.00000000000E+00 0.  1.
         23    2    1    2    0    0  0.13996316523E+03 -0.55416092202E+03  0.23969067212E+04  0.24657424625E+04  0.89666306014E+02 0.  0.
         11    1    3    3    0    0  0.98484812297E+02 -0.35880711984E+03  0.13718591203E+04  0.14214215608E+04  0.00000000000E+00 0. -1.
        -11    1    3    3    0    0  0.41478352932E+02 -0.19535380219E+03  0.10250476009E+04  0.10443209018E+04  0.00000000000E+00 0.  1.
         22    1    1    2    0    0 -0.13996316523E+03  0.55416092202E+03 -0.71469530096E+03  0.91513572126E+03  0.00000000000E+00 0.  1.
<mgrwt>
<rscale>  0 0.29326613E+04</rscale>
<asrwt>0</asrwt>
<pdfrwt beam="1">  1        1 0.38946843E+00 0.29326613E+04</pdfrwt>
<pdfrwt beam="2">  1       -1 0.13066668E+00 0.29326613E+04</pdfrwt>
<totfact> 0.55169599E-01</totfact>
</mgrwt>
</event>
<event>
 6    1  0.8968082E-007  0.3301970E+04  0.7818608E-02  0.8162394E-01
         -2   -1    0    0    0  501 -0.00000000000E+00  0.00000000000E+00  0.12272581350E+04  0.12272581350E+04  0.00000000000E+00 0.  1.
          2   -1    0    0  501    0  0.00000000000E+00 -0.00000000000E+00 -0.22210093981E+04  0.22210093981E+04  0.00000000000E+00 0. -1.
         23    2    1    2    0    0 -0.59598723813E+03  0.11520977641E+04 -0.15617163066E+04  0.20322469341E+04  0.92410673870E+02 0.  0.
         13    1    3    3    0    0 -0.23057169936E+03  0.36855324463E+03 -0.56263618703E+03  0.71102340442E+03  0.00000000000E+00 0. -1.
        -13    1    3    3    0    0 -0.36541553877E+03  0.78354451951E+03 -0.99908011962E+03  0.13212235297E+04  0.00000000000E+00 0.  1.
         22    1    1    2    0    0  0.59598723813E+03 -0.11520977641E+04  0.56796504356E+03  0.14160205990E+04  0.00000000000E+00 0.  1.
<mgrwt>
<rscale>  0 0.33019702E+04</rscale>
<asrwt>0</asrwt>
<pdfrwt beam="1">  1        2 0.34169375E+00 0.33019702E+04</pdfrwt>
<pdfrwt beam="2">  1       -2 0.18880894E+00 0.33019702E+04</pdfrwt>
<totfact> 0.66253169E-01</totfact>
</mgrwt>
</event>
<event>
 6    1  0.8968082E-007  0.2499368E+04  0.7818608E-02  0.8403211E-01
          2   -1    0    0  501    0  0.00000000000E+00  0.00000000000E+00  0.82902715196E+03  0.82902715196E+03  0.00000000000E+00 0. -1.
         -2   -1    0    0    0  501 -0.00000000000E+00 -0.00000000000E+00 -0.18837871689E+04  0.18837871689E+04  0.00000000000E+00 0.  1.
         23    2    1    2    0    0 -0.10143699508E+04  0.68922511070E+03 -0.77867640411E+03  0.14557543336E+04  0.94372068559E+02 0.  0.
         13    1    3    3    0    0 -0.36153001714E+03  0.29311195284E+03 -0.32287234617E+03  0.56644957597E+03  0.00000000000E+00 0. -1.
        -13    1    3    3    0    0 -0.65283993361E+03  0.39611315786E+03 -0.45580405793E+03  0.88930475765E+03  0.00000000000E+00 0.  1.
         22    1    1    2    0    0  0.10143699508E+04 -0.68922511070E+03 -0.27608361280E+03  0.12570599872E+04  0.00000000000E+00 0. -1.
<mgrwt>
<rscale>  0 0.24993685E+04</rscale>
<asrwt>0</asrwt>
<pdfrwt beam="1">  1        2 0.12754264E+00 0.24993685E+04</pdfrwt>
<pdfrwt beam="2">  1       -2 0.28981341E+00 0.24993685E+04</pdfrwt>
<totfact> 0.10745402E+00</totfact>
</mgrwt>
</event>
<event>
 6    1  0.8968082E-007  0.5014461E+04  0.7818608E-02  0.7826280E-01
          1   -1    0    0  501    0  0.00000000000E+00  0.00000000000E+00  0.50986580009E+04  0.50986580009E+04  0.00000000000E+00 0. -1.
         -1   -1    0    0    0  501 -0.00000000000E+00 -0.00000000000E+00 -0.12329134365E+04  0.12329134365E+04  0.00000000000E+00 0.  1.
         23    2    1    2    0    0 -0.67416495737E+03 -0.10602581020E+04  0.46718073540E+04  0.48387945440E+04  0.97483608435E+02 0.  0.
         11    1    3    3    0    0 -0.53071307741E+03 -0.83754357855E+03  0.35259160214E+04  0.36626792661E+04  0.00000000000E+00 0. -1.
        -11    1    3    3    0    0 -0.14345187996E+03 -0.22271452345E+03  0.11458913326E+04  0.11761152780E+04  0.00000000000E+00 0.  1.
         22    1    1    2    0    0  0.67416495737E+03  0.10602581020E+04 -0.80606278967E+03  0.14927768934E+04  0.00000000000E+00 0.  1.
<mgrwt>
<rscale>  0 0.50144607E+04</rscale>
<asrwt>0</asrwt>
<pdfrwt beam="1">  1        1 0.78440891E+00 0.50144607E+04</pdfrwt>
<pdfrwt beam="2">  1       -1 0.18967899E+00 0.50144607E+04</pdfrwt>
<totfact> 0.80773643E-04</totfact>
</mgrwt>
</event>
<event>
 6    1  0.8968082E-007  0.3737723E+04  0.7818608E-02  0.8059653E-01
          1   -1    0    0  501    0  0.00000000000E+00  0.00000000000E+00  0.19176270361E+04  0.19176270361E+04  0.00000000000E+00 0. -1.
         -1   -1    0    0    0  501 -0.00000000000E+00 -0.00000000000E+00 -0.18213363680E+04  0.18213363680E+04  0.00000000000E+00 0.  1.
         23    2    1    2    0    0 -0.17734599607E+04 -0.44325478008E+03  0.43184085710E+03  0.18804077925E+04  0.88384997711E+02 0.  0.
         13    1    3    3    0    0 -0.14982052340E+04 -0.35402364085E+03  0.38945443755E+03  0.15879629783E+04  0.00000000000E+00 0. -1.
        -13    1    3    3    0    0 -0.27525472671E+03 -0.89231139228E+02  0.42386419556E+02  0.29244481419E+03  0.00000000000E+00 0.  1.
         22    1    1    2    0    0  0.17734599607E+04  0.44325478008E+03 -0.33555018908E+03  0.18585556117E+04  0.00000000000E+00 0.  1.
<mgrwt>
<rscale>  0 0.37377233E+04</rscale>
<asrwt>0</asrwt>
<pdfrwt beam="1">  1        1 0.29501954E+00 0.37377233E+04</pdfrwt>
<pdfrwt beam="2">  1       -1 0.28020560E+00 0.37377233E+04</pdfrwt>
<totfact> 0.12028610E-01</totfact>
</mgrwt>
</event>
<event>
 6    1  0.8968082E-007  0.3081251E+04  0.7818608E-02  0.8220902E-01
         -1   -1    0    0    0  501 -0.00000000000E+00  0.00000000000E+00  0.76816896847E+03  0.76816896847E+03  0.00000000000E+00 0.  1.
          1   -1    0    0  501    0  0.00000000000E+00 -0.00000000000E+00 -0.30898504197E+04  0.30898504197E+04  0.00000000000E+00 0. -1.
         23    2    1    2    0    0 -0.13820472891E+04 -0.50744340511E+03 -0.59940743492E+03  0.15922344677E+04  0.91475725456E+02 0.  0.
         13    1    3    3    0    0 -0.28123621927E+03 -0.68156852493E+02 -0.10130946071E+03  0.30659871885E+03  0.00000000000E+00 0. -1.
        -13    1    3    3    0    0 -0.11008110698E+04 -0.43928655262E+03 -0.49809797421E+03  0.12856357488E+04  0.00000000000E+00 0.  1.
         22    1    1    2    0    0  0.13820472891E+04  0.50744340511E+03 -0.17222740163E+04  0.22657849205E+04  0.00000000000E+00 0. -1.
<mgrwt>
<rscale>  0 0.30812512E+04</rscale>
<asrwt>0</asrwt>
<pdfrwt beam="1">  1        1 0.47536159E+00 0.30812512E+04</pdfrwt>
<pdfrwt beam="2">  1       -1 0.11817984E+00 0.30812512E+04</pdfrwt>
<totfact> 0.27865341E-01</totfact>
</mgrwt>
</event>
<event>
 6    1  0.8968082E-007  0.8890176E+03  0.7818608E-02  0.9439415E-01
          1   -1    0    0  501    0  0.00000000000E+00  0.00000000000E+00  0.18861669338E+03  0.18861669338E+03  0.00000000000E+00 0. -1.
         -1   -1    0    0    0  501 -0.00000000000E+00 -0.00000000000E+00 -0.10475641536E+04  0.10475641536E+04  0.00000000000E+00 0.  1.
         23    2    1    2    0    0 -0.32844342252E+03 -0.13646088310E+03 -0.74690904228E+02  0.37504496919E+03  0.92646334656E+02 0.  0.
         11    1    3    3    0    0 -0.49927786166E+02 -0.21365221048E+02  0.21939899358E+02  0.58571457944E+02  0.00000000000E+00 0. -1.
        -11    1    3    3    0    0 -0.27851563636E+03 -0.11509566205E+03 -0.96630803586E+02  0.31647351125E+03  0.00000000000E+00 0.  1.
         22    1    1    2    0    0  0.32844342252E+03  0.13646088310E+03 -0.78425655600E+03  0.86113587781E+03  0.00000000000E+00 0.  1.
<mgrwt>
<rscale>  0 0.88901763E+03</rscale>
<asrwt>0</asrwt>
<pdfrwt beam="1">  1        1 0.29017952E-01 0.88901763E+03</pdfrwt>
<pdfrwt beam="2">  1       -1 0.16116372E+00 0.88901763E+03</pdfrwt>
<totfact> 0.46455183E+01</totfact>
</mgrwt>
</event>
<event>
 6    1  0.8968082E-007  0.3161932E+04  0.7818608E-02  0.8198944E-01
         -2   -1    0    0    0  501 -0.00000000000E+00  0.00000000000E+00  0.15420847791E+04  0.15420847791E+04  0.00000000000E+00 0.  1.
          2   -1    0    0  501    0  0.00000000000E+00 -0.00000000000E+00 -0.16208279951E+04  0.16208279951E+04  0.00000000000E+00 0. -1.
         23    2    1    2    0    0  0.13146295148E+04  0.83969500049E+03 -0.28881946297E+03  0.15889145262E+04  0.88849504043E+02 0.  0.
         13    1    3    3    0    0  0.11294224593E+04  0.75553500385E+03 -0.25928348508E+03  0.13833496157E+04  0.00000000000E+00 0. -1.
        -13    1    3    3    0    0  0.18520705555E+03  0.84159996642E+02 -0.29535977886E+02  0.20556491055E+03  0.00000000000E+00 0.  1.
         22    1    1    2    0    0 -0.13146295148E+04 -0.83969500049E+03  0.21007624691E+03  0.15739982480E+04  0.00000000000E+00 0.  1.
<mgrwt>
<rscale>  0 0.31619324E+04</rscale>
<asrwt>0</asrwt>
<pdfrwt beam="1">  1        2 0.24935815E+00 0.31619324E+04</pdfrwt>
<pdfrwt beam="2">  1       -2 0.23724381E+00 0.31619324E+04</pdfrwt>
<totfact> 0.70664119E-01</totfact>
</mgrwt>
</event>
<event>
 6    1  0.8968082E-007  0.3492386E+04  0.7818608E-02  0.8115597E-01
          2   -1    0    0  501    0  0.00000000000E+00  0.00000000000E+00  0.12541248850E+04  0.12541248850E+04  0.00000000000E+00 0. -1.
         -2   -1    0    0    0  501 -0.00000000000E+00 -0.00000000000E+00 -0.24313282147E+04  0.24313282147E+04  0.00000000000E+00 0.  1.
         23    2    1    2    0    0  0.13467263501E+04  0.39740996404E+03  0.50453684742E+03  0.14945956044E+04  0.87475989878E+02 0.  0.
         13    1    3    3    0    0  0.46966130027E+03  0.11094671614E+03  0.20741683499E+03  0.52527388497E+03  0.00000000000E+00 0. -1.
        -13    1    3    3    0    0  0.87706504981E+03  0.28646324791E+03  0.29712001243E+03  0.96932171945E+03  0.00000000000E+00 0.  1.
         22    1    1    2    0    0 -0.13467263501E+04 -0.39740996404E+03 -0.16817401770E+04  0.21908574953E+04  0.00000000000E+00 0.  1.
<mgrwt>
<rscale>  0 0.34923856E+04</rscale>
<asrwt>0</asrwt>
<pdfrwt beam="1">  1        2 0.19294229E+00 0.34923856E+04</pdfrwt>
<pdfrwt beam="2">  1       -2 0.37405050E+00 0.34923856E+04</pdfrwt>
<totfact> 0.15805033E-01</totfact>
</mgrwt>
</event>
<event>
 6    1  0.8968082E-007  0.1731844E+04  0.7818608E-02  0.8743408E-01
          1   -1    0    0  501    0  0.00000000000E+00  0.00000000000E+00  0.15913279311E+04  0.15913279311E+04  0.00000000000E+00 0. -1.
         -1   -1    0    0    0  501 -0.00000000000E+00 -0.00000000000E+00 -0.47119189931E+03  0.47119189931E+03  0.00000000000E+00 0.  1.
         23    2    1    2    0    0 -0.22029493625E+03 -0.42667528373E+01  0.15560331430E+04  0.15740995649E+04  0.89455207250E+02 0.  0.
         11    1    3    3    0    0 -0.11975137868E+03 -0.42200603520E+02  0.70931194181E+03  0.72058636847E+03  0.00000000000E+00 0. -1.
        -11    1    3    3    0    0 -0.10054355758E+03  0.37933850682E+02  0.84672120120E+03  0.85351319647E+03  0.00000000000E+00 0.  1.
         22    1    1    2    0    0  0.22029493625E+03  0.42667528373E+01 -0.43589711123E+03  0.48842026544E+03  0.00000000000E+00 0.  1.
<mgrwt>
<rscale>  0 0.17318439E+04</rscale>
<asrwt>0</asrwt>
<pdfrwt beam="1">  1        1 0.24481968E+00 0.17318439E+04</pdfrwt>
<pdfrwt beam="2">  1       -1 0.72491062E-01 0.17318439E+04</pdfrwt>
<totfact> 0.10304889E+01</totfact>
</mgrwt>
</event>
<event>
 6    1  0.8968082E-007  0.3609888E+04  0.7818608E-02  0.8088230E-01
         -2   -1    0    0    0  501 -0.00000000000E+00  0.00000000000E+00  0.19943292948E+04  0.19943292948E+04  0.00000000000E+00 0.  1.
          2   -1    0    0  501    0  0.00000000000E+00 -0.00000000000E+00 -0.16335432503E+04  0.16335432503E+04  0.00000000000E+00 0. -1.
         23    2    1    2    0    0 -0.15835895418E+04 -0.84030995666E+03  0.38242730876E+03  0.18350130960E+04  0.84532573392E+02 0.  0.
         11    1    3    3    0    0 -0.15603461882E+04 -0.82942284661E+03  0.36617881091E+03  0.18046355330E+04  0.00000000000E+00 0.  1.
        -11    1    3    3    0    0 -0.23243353595E+02 -0.10887110058E+02  0.16248497844E+02  0.30377563002E+02  0.00000000000E+00 0. -1.
         22    1    1    2    0    0  0.15835895418E+04  0.84030995666E+03 -0.21641264249E+02  0.17928594491E+04  0.00000000000E+00 0. -1.
<mgrwt>
<rscale>  0 0.36098882E+04</rscale>
<asrwt>0</asrwt>
<pdfrwt beam="1">  1        2 0.25131435E+00 0.36098882E+04</pdfrwt>
<pdfrwt beam="2">  1       -2 0.30681989E+00 0.36098882E+04</pdfrwt>
<totfact> 0.25104070E-01</totfact>
</mgrwt>
</event>
<event>
 6    1  0.8968082E-007  0.1148292E+04  0.7818608E-02  0.9159360E-01
          2   -1    0    0  501    0  0.00000000000E+00  0.00000000000E+00  0.53992531634E+03  0.53992531634E+03  0.00000000000E+00 0. -1.
         -2   -1    0    0    0  501 -0.00000000000E+00 -0.00000000000E+00 -0.61053593163E+03  0.61053593163E+03  0.00000000000E+00 0.  1.
         23    2    1    2    0    0  0.37282655677E+03  0.25126005298E+03  0.31646637155E+03  0.55719920688E+03  0.90491635902E+02 0.  0.
         11    1    3    3    0    0  0.12326942019E+03  0.12752776957E+03  0.94119555523E+02  0.20079136610E+03  0.00000000000E+00 0. -1.
        -11    1    3    3    0    0  0.24955713659E+03  0.12373228341E+03  0.22234681602E+03  0.35640784079E+03  0.00000000000E+00 0.  1.
         22    1    1    2    0    0 -0.37282655677E+03 -0.25126005298E+03 -0.38707698683E+03  0.59326204109E+03  0.00000000000E+00 0.  1.
<mgrwt>
<rscale>  0 0.11482923E+04</rscale>
<asrwt>0</asrwt>
<pdfrwt beam="1">  1        2 0.83065434E-01 0.11482923E+04</pdfrwt>
<pdfrwt beam="2">  1       -2 0.93928605E-01 0.11482923E+04</pdfrwt>
<totfact> 0.53333443E+01</totfact>
</mgrwt>
</event>
<event>
 6    1  0.8968082E-007  0.1133176E+04  0.7818608E-02  0.9173446E-01
         -2   -1    0    0    0  501 -0.00000000000E+00  0.00000000000E+00  0.26724309360E+03  0.26724309360E+03  0.00000000000E+00 0.  1.
          2   -1    0    0  501    0  0.00000000000E+00 -0.00000000000E+00 -0.12012367415E+04  0.12012367415E+04  0.00000000000E+00 0. -1.
         23    2    1    2    0    0  0.22881698337E+03 -0.17596313869E+03 -0.10964521192E+04  0.11372503181E+04  0.88378720527E+02 0.  0.
         13    1    3    3    0    0  0.21232080214E+03 -0.17048680980E+03 -0.10781731305E+04  0.11120266070E+04  0.00000000000E+00 0.  1.
        -13    1    3    3    0    0  0.16496181233E+02 -0.54763288963E+01 -0.18278988696E+02  0.25223711091E+02  0.00000000000E+00 0. -1.
         22    1    1    2    0    0 -0.22881698337E+03  0.17596313869E+03  0.16245847129E+03  0.33122951703E+03  0.00000000000E+00 0.  1.
<mgrwt>
<rscale>  0 0.11331765E+04</rscale>
<asrwt>0</asrwt>
<pdfrwt beam="1">  1        2 0.18480565E+00 0.11331765E+04</pdfrwt>
<pdfrwt beam="2">  1       -2 0.41114323E-01 0.11331765E+04</pdfrwt>
<totfact> 0.10491357E+02</totfact>
</mgrwt>
</event>
<event>
 6    1  0.8968082E-007  0.8051942E+03  0.7818608E-02  0.9552529E-01
         -1   -1    0    0    0  501 -0.00000000000E+00  0.00000000000E+00  0.82875405400E+02  0.82875405400E+02  0.00000000000E+00 0.  1.
          1   -1    0    0  501    0  0.00000000000E+00 -0.00000000000E+00 -0.19557602527E+04  0.19557602527E+04  0.00000000000E+00 0. -1.
         23    2    1    2    0    0  0.42401272110E+02 -0.39228877927E+03 -0.82827184546E+03  0.92198679753E+03  0.91307451032E+02 0.  0.
         13    1    3    3    0    0  0.22087959661E+02 -0.10116634308E+03 -0.31461473214E+03  0.33121735554E+03  0.00000000000E+00 0.  1.
        -13    1    3    3    0    0  0.20313312449E+02 -0.29112243619E+03 -0.51365711332E+03  0.59076944199E+03  0.00000000000E+00 0. -1.
         22    1    1    2    0    0 -0.42401272110E+02  0.39228877927E+03 -0.10446130019E+04  0.11166488606E+04  0.00000000000E+00 0. -1.
<mgrwt>
<rscale>  0 0.80519420E+03</rscale>
<asrwt>0</asrwt>
<pdfrwt beam="1">  1        1 0.30088615E+00 0.80519420E+03</pdfrwt>
<pdfrwt beam="2">  1       -1 0.12750064E-01 0.80519420E+03</pdfrwt>
<totfact> 0.13992229E+02</totfact>
</mgrwt>
</event>
<event>
 6    1  0.8968082E-007  0.6877727E+04  0.7818608E-02  0.7590178E-01
          2   -1    0    0  501    0  0.00000000000E+00  0.00000000000E+00  0.40971588366E+04  0.40971588366E+04  0.00000000000E+00 0. -1.
         -2   -1    0    0    0  501 -0.00000000000E+00 -0.00000000000E+00 -0.28863373717E+04  0.28863373717E+04  0.00000000000E+00 0.  1.
         23    2    1    2    0    0  0.27991332813E+03 -0.19506071306E+04 -0.22554170610E+04  0.29962629361E+04  0.86404940056E+02 0.  0.
         11    1    3    3    0    0  0.64312755477E+02 -0.46365924158E+03 -0.48110916828E+03  0.67125409095E+03  0.00000000000E+00 0.  1.
        -11    1    3    3    0    0  0.21560057265E+03 -0.14869478890E+04 -0.17743078927E+04  0.23250088451E+04  0.00000000000E+00 0. -1.
         22    1    1    2    0    0 -0.27991332813E+03  0.19506071306E+04  0.34662385258E+04  0.39872332722E+04  0.00000000000E+00 0. -1.
<mgrwt>
<rscale>  0 0.68777271E+04</rscale>
<asrwt>0</asrwt>
<pdfrwt beam="1">  1        2 0.63033213E+00 0.68777271E+04</pdfrwt>
<pdfrwt beam="2">  1       -2 0.44405190E+00 0.68777271E+04</pdfrwt>
<totfact> 0.67941024E-04</totfact>
</mgrwt>
</event>
<event>
 6    1  0.8968082E-007  0.6337704E+03  0.7818608E-02  0.9837719E-01
          2   -1    0    0  501    0  0.00000000000E+00  0.00000000000E+00  0.11958122510E+04  0.11958122510E+04  0.00000000000E+00 0. -1.
         -2   -1    0    0    0  501 -0.00000000000E+00 -0.00000000000E+00 -0.83973230277E+02  0.83973230277E+02  0.00000000000E+00 0.  1.
         23    2    1    2    0    0  0.30378630785E+02  0.28822767431E+03  0.34585250278E+03  0.46080233180E+03  0.93417246102E+02 0.  0.
         13    1    3    3    0    0  0.39441262568E+02  0.19743727965E+03  0.29253350994E+03  0.35512384745E+03  0.00000000000E+00 0.  1.
        -13    1    3    3    0    0 -0.90626317826E+01  0.90790394667E+02  0.53318992834E+02  0.10567848435E+03  0.00000000000E+00 0. -1.
         22    1    1    2    0    0 -0.30378630785E+02 -0.28822767431E+03  0.76598651794E+03  0.81898314947E+03  0.00000000000E+00 0. -1.
<mgrwt>
<rscale>  0 0.63377036E+03</rscale>
<asrwt>0</asrwt>
<pdfrwt beam="1">  1        2 0.18397110E+00 0.63377036E+03</pdfrwt>
<pdfrwt beam="2">  1       -2 0.12918959E-01 0.63377036E+03</pdfrwt>
<totfact> 0.86730221E+02</totfact>
</mgrwt>
</event>
<event>
 6    1  0.1035445E-006  0.3751881E+04  0.7818608E-02  0.8056561E-01
         -2   -1    0    0    0  501 -0.00000000000E+00  0.00000000000E+00  0.12964559173E+04  0.12964559173E+04  0.00000000000E+00 0.  1.
          2   -1    0    0  501    0  0.00000000000E+00 -0.00000000000E+00 -0.27144402991E+04  0.27144402991E+04  0.00000000000E+00 0. -1.
         23    2    1    2    0    0 -0.16917396280E+04 -0.74304224812E+03 -0.37041501172E+03  0.18868678888E+04  0.94701622155E+02 0.  0.
         13    1    3    3    0    0 -0.43514703868E+03 -0.23659309015E+03 -0.94184308700E+02  0.50418242689E+03  0.00000000000E+00 0. -1.
        -13    1    3    3    0    0 -0.12565925893E+04 -0.50644915798E+03 -0.27623070302E+03  0.13826854619E+04  0.00000000000E+00 0.  1.
         22    1    1    2    0    0  0.16917396280E+04  0.74304224812E+03 -0.10475693701E+04  0.21240283277E+04  0.00000000000E+00 0. -1.
<mgrwt>
<rscale>  0 0.37518807E+04</rscale>
<asrwt>0</asrwt>
<pdfrwt beam="1">  1        2 0.41760620E+00 0.37518807E+04</pdfrwt>
<pdfrwt beam="2">  1       -2 0.19945476E+00 0.37518807E+04</pdfrwt>
<totfact> 0.28095986E-01</totfact>
</mgrwt>
</event>
<event>
 6    1  0.8968082E-007  0.2022045E+04  0.7818608E-02  0.8596383E-01
         -2   -1    0    0    0  501 -0.00000000000E+00  0.00000000000E+00  0.67858808771E+03  0.67858808771E+03  0.00000000000E+00 0.  1.
          2   -1    0    0  501    0  0.00000000000E+00 -0.00000000000E+00 -0.15063135243E+04  0.15063135243E+04  0.00000000000E+00 0. -1.
         23    2    1    2    0    0 -0.96513237228E+03 -0.29270776671E+03 -0.43825201179E+03  0.11037689276E+04  0.95303131742E+02 0.  0.
         11    1    3    3    0    0 -0.70535176737E+03 -0.22976904884E+03 -0.36415841208E+03  0.82639353859E+03  0.00000000000E+00 0. -1.
        -11    1    3    3    0    0 -0.25978060491E+03 -0.62938717870E+02 -0.74093599714E+02  0.27737538898E+03  0.00000000000E+00 0.  1.
         22    1    1    2    0    0  0.96513237228E+03  0.29270776671E+03 -0.38947342479E+03  0.10811326844E+04  0.00000000000E+00 0. -1.
<mgrwt>
<rscale>  0 0.20220449E+04</rscale>
<asrwt>0</asrwt>
<pdfrwt beam="1">  1        2 0.23174054E+00 0.20220449E+04</pdfrwt>
<pdfrwt beam="2">  1       -2 0.10439817E+00 0.20220449E+04</pdfrwt>
<totfact> 0.87032046E+00</totfact>
</mgrwt>
</event>
<event>
 6    1  0.8968082E-007  0.1688777E+04  0.7818608E-02  0.8767791E-01
         -2   -1    0    0    0  501 -0.00000000000E+00  0.00000000000E+00  0.37901617665E+03  0.37901617665E+03  0.00000000000E+00 0.  1.
          2   -1    0    0  501    0  0.00000000000E+00 -0.00000000000E+00 -0.18811640921E+04  0.18811640921E+04  0.00000000000E+00 0. -1.
         23    2    1    2    0    0 -0.13860500169E+03 -0.74596072648E+03 -0.12415270406E+04  0.14579384147E+04  0.92337839547E+02 0.  0.
         11    1    3    3    0    0 -0.10703356311E+03 -0.40288967922E+03 -0.61569258921E+03  0.74354128444E+03  0.00000000000E+00 0.  1.
        -11    1    3    3    0    0 -0.31571438575E+02 -0.34307104726E+03 -0.62583445135E+03  0.71439713024E+03  0.00000000000E+00 0. -1.
         22    1    1    2    0    0  0.13860500169E+03  0.74596072648E+03 -0.26062087484E+03  0.80224185403E+03  0.00000000000E+00 0.  1.
<mgrwt>
<rscale>  0 0.16887766E+04</rscale>
<asrwt>0</asrwt>
<pdfrwt beam="1">  1        2 0.28940986E+00 0.16887766E+04</pdfrwt>
<pdfrwt beam="2">  1       -2 0.58310181E-01 0.16887766E+04</pdfrwt>
<totfact> 0.20378791E+01</totfact>
</mgrwt>
</event>
<event>
 6    1  0.8968082E-007  0.5379059E+03  0.7818608E-02  0.1004333E+00
         -2   -1    0    0    0  501 -0.00000000000E+00  0.00000000000E+00  0.24535465332E+03  0.24535465332E+03  0.00000000000E+00 0.  1.
          2   -1    0    0  501    0  0.00000000000E+00 -0.00000000000E+00 -0.29482097793E+03  0.29482097793E+03  0.00000000000E+00 0. -1.
         23    2    1    2    0    0  0.21834664836E+03  0.29594031713E+02  0.11624343617E+03  0.26447508650E+03  0.88788903367E+02 0.  0.
         13    1    3    3    0    0  0.13319341495E+03  0.15481997806E+02  0.20635633980E+02  0.13566874154E+03  0.00000000000E+00 0. -1.
        -13    1    3    3    0    0  0.85153233419E+02  0.14112033908E+02  0.95607802187E+02  0.12880634496E+03  0.00000000000E+00 0.  1.
         22    1    1    2    0    0 -0.21834664836E+03 -0.29594031713E+02 -0.16570976078E+03  0.27570054476E+03  0.00000000000E+00 0. -1.
<mgrwt>
<rscale>  0 0.53790594E+03</rscale>
<asrwt>0</asrwt>
<pdfrwt beam="1">  1        2 0.45357074E-01 0.53790594E+03</pdfrwt>
<pdfrwt beam="2">  1       -2 0.37746870E-01 0.53790594E+03</pdfrwt>
<totfact> 0.74504780E+02</totfact>
</mgrwt>
</event>
<event>
 6    1  0.8968082E-007  0.2026658E+04  0.7818608E-02  0.8594258E-01
         -1   -1    0    0    0  501 -0.00000000000E+00  0.00000000000E+00  0.29842214727E+03  0.29842214727E+03  0.00000000000E+00 0.  1.
          1   -1    0    0  501    0  0.00000000000E+00 -0.00000000000E+00 -0.34408814988E+04  0.34408814988E+04  0.00000000000E+00 0. -1.
         23    2    1    2    0    0  0.31756711382E+03  0.29943189296E+03 -0.32575069621E+04  0.32879232267E+04  0.92624004938E+02 0.  0.
         13    1    3    3    0    0  0.16438701666E+03  0.10238117490E+03 -0.16130189518E+04  0.16246030700E+04  0.00000000000E+00 0.  1.
        -13    1    3    3    0    0  0.15318009716E+03  0.19705071806E+03 -0.16444880102E+04  0.16633201566E+04  0.00000000000E+00 0. -1.
         22    1    1    2    0    0 -0.31756711382E+03 -0.29943189296E+03  0.11504761056E+03  0.45138041938E+03  0.00000000000E+00 0.  1.
<mgrwt>
<rscale>  0 0.20266576E+04</rscale>
<asrwt>0</asrwt>
<pdfrwt beam="1">  1        1 0.52936637E+00 0.20266576E+04</pdfrwt>
<pdfrwt beam="2">  1       -1 0.45911101E-01 0.20266576E+04</pdfrwt>
<totfact> 0.12186063E+00</totfact>
</mgrwt>
</event>
<event>
 6    1  0.8968082E-007  0.3169997E+04  0.7818608E-02  0.8196786E-01
          2   -1    0    0  501    0  0.00000000000E+00  0.00000000000E+00  0.15490673992E+04  0.15490673992E+04  0.00000000000E+00 0. -1.
         -2   -1    0    0    0  501 -0.00000000000E+00 -0.00000000000E+00 -0.16217633592E+04  0.16217633592E+04  0.00000000000E+00 0.  1.
         23    2    1    2    0    0 -0.14531274687E+03  0.12653637380E+04 -0.97779433649E+03  0.16083121969E+04  0.91242393678E+02 0.  0.
         11    1    3    3    0    0 -0.69153851757E+02  0.82088077826E+03 -0.58631539256E+03  0.10111346334E+04  0.00000000000E+00 0. -1.
        -11    1    3    3    0    0 -0.76158895109E+02  0.44448295972E+03 -0.39147894393E+03  0.59717756348E+03  0.00000000000E+00 0.  1.
         22    1    1    2    0    0  0.14531274687E+03 -0.12653637380E+04  0.90509837657E+03  0.15625185615E+04  0.00000000000E+00 0. -1.
<mgrwt>
<rscale>  0 0.31699973E+04</rscale>
<asrwt>0</asrwt>
<pdfrwt beam="1">  1        2 0.23831806E+00 0.31699973E+04</pdfrwt>
<pdfrwt beam="2">  1       -2 0.24950205E+00 0.31699973E+04</pdfrwt>
<totfact> 0.65069413E-01</totfact>
</mgrwt>
</event>
<event>
 6    1  0.8968082E-007  0.1481352E+04  0.7818608E-02  0.8896949E-01
          1   -1    0    0  501    0  0.00000000000E+00  0.00000000000E+00  0.32930497041E+04  0.32930497041E+04  0.00000000000E+00 0. -1.
         -1   -1    0    0    0  501 -0.00000000000E+00 -0.00000000000E+00 -0.16659361459E+03  0.16659361459E+03  0.00000000000E+00 0.  1.
         23    2    1    2    0    0  0.41959993022E+03 -0.57073463743E+03  0.20515600183E+04  0.21723190815E+04  0.90937094905E+02 0.  0.
         13    1    3    3    0    0  0.22643962645E+03 -0.23598082810E+03  0.98692136449E+03  0.10396997814E+04  0.00000000000E+00 0. -1.
        -13    1    3    3    0    0  0.19316030377E+03 -0.33475380933E+03  0.10646386538E+04  0.11326193001E+04  0.00000000000E+00 0.  1.
         22    1    1    2    0    0 -0.41959993022E+03  0.57073463743E+03  0.10748960712E+04  0.12873242372E+04  0.00000000000E+00 0.  1.
<mgrwt>
<rscale>  0 0.14813522E+04</rscale>
<asrwt>0</asrwt>
<pdfrwt beam="1">  1        1 0.50662298E+00 0.14813522E+04</pdfrwt>
<pdfrwt beam="2">  1       -1 0.25629789E-01 0.14813522E+04</pdfrwt>
<totfact> 0.47454861E+00</totfact>
</mgrwt>
</event>
<event>
 6    1  0.8968082E-007  0.1459696E+04  0.7818608E-02  0.8911706E-01
         -2   -1    0    0    0  501 -0.00000000000E+00  0.00000000000E+00  0.80470964152E+03  0.80470964152E+03  0.00000000000E+00 0.  1.
          2   -1    0    0  501    0  0.00000000000E+00 -0.00000000000E+00 -0.66195095853E+03  0.66195095853E+03  0.00000000000E+00 0. -1.
         23    2    1    2    0    0 -0.45417579463E+03 -0.55733547556E+03 -0.36480395366E+02  0.72569829874E+03  0.91699055576E+02 0.  0.
         11    1    3    3    0    0 -0.19659991558E+03 -0.17624759621E+03 -0.29458120982E+02  0.26567371505E+03  0.00000000000E+00 0.  1.
        -11    1    3    3    0    0 -0.25757587905E+03 -0.38108787936E+03 -0.70222743839E+01  0.46002458369E+03  0.00000000000E+00 0. -1.
         22    1    1    2    0    0  0.45417579463E+03  0.55733547556E+03  0.17923907835E+03  0.74096230131E+03  0.00000000000E+00 0. -1.
<mgrwt>
<rscale>  0 0.14596963E+04</rscale>
<asrwt>0</asrwt>
<pdfrwt beam="1">  1        2 0.10183861E+00 0.14596963E+04</pdfrwt>
<pdfrwt beam="2">  1       -2 0.12380148E+00 0.14596963E+04</pdfrwt>
<totfact> 0.20919442E+01</totfact>
</mgrwt>
</event>
<event>
 6    1  0.8968082E-007  0.1513484E+04  0.7818608E-02  0.8875535E-01
          1   -1    0    0  501    0  0.00000000000E+00  0.00000000000E+00  0.18814349937E+04  0.18814349937E+04  0.00000000000E+00 0. -1.
         -1   -1    0    0    0  501 -0.00000000000E+00 -0.00000000000E+00 -0.30437338251E+03  0.30437338251E+03  0.00000000000E+00 0.  1.
         23    2    1    2    0    0 -0.59578697264E+03 -0.25487448067E+03  0.23404946113E+03  0.69463274845E+03  0.88387710109E+02 0.  0.
         13    1    3    3    0    0 -0.12384049581E+03 -0.26243477543E+02  0.19732135711E+02  0.12811926357E+03  0.00000000000E+00 0. -1.
        -13    1    3    3    0    0 -0.47194647682E+03 -0.22863100312E+03  0.21431732542E+03  0.56651348488E+03  0.00000000000E+00 0.  1.
         22    1    1    2    0    0  0.59578697264E+03  0.25487448067E+03  0.13430121501E+04  0.14911756278E+04  0.00000000000E+00 0. -1.
<mgrwt>
<rscale>  0 0.15134844E+04</rscale>
<asrwt>0</asrwt>
<pdfrwt beam="1">  1        1 0.28945153E+00 0.15134844E+04</pdfrwt>
<pdfrwt beam="2">  1       -1 0.46826675E-01 0.15134844E+04</pdfrwt>
<totfact> 0.15757194E+01</totfact>
</mgrwt>
</event>
<event>
 6    1  0.8968082E-007  0.1473916E+04  0.7818608E-02  0.8901986E-01
          1   -1    0    0  501    0  0.00000000000E+00  0.00000000000E+00  0.46061028199E+03  0.46061028199E+03  0.00000000000E+00 0. -1.
         -1   -1    0    0    0  501 -0.00000000000E+00 -0.00000000000E+00 -0.11791031799E+04  0.11791031799E+04  0.00000000000E+00 0.  1.
         23    2    1    2    0    0  0.65471319545E+03 -0.80554315770E+02 -0.71979605623E+03  0.98006199003E+03  0.85304019063E+02 0.  0.
         11    1    3    3    0    0  0.11241574100E+03 -0.18957187500E+02 -0.17535460355E+03  0.20915523128E+03  0.00000000000E+00 0. -1.
        -11    1    3    3    0    0  0.54229745445E+03 -0.61597128270E+02 -0.54444145267E+03  0.77090675876E+03  0.00000000000E+00 0.  1.
         22    1    1    2    0    0 -0.65471319545E+03  0.80554315770E+02  0.13031583435E+01  0.65965147184E+03  0.00000000000E+00 0. -1.
<mgrwt>
<rscale>  0 0.14739159E+04</rscale>
<asrwt>0</asrwt>
<pdfrwt beam="1">  1        1 0.70863121E-01 0.14739159E+04</pdfrwt>
<pdfrwt beam="2">  1       -1 0.18140049E+00 0.14739159E+04</pdfrwt>
<totfact> 0.97771889E+00</totfact>
</mgrwt>
</event>
<event>
 6    1  0.8968082E-007  0.5913083E+03  0.7818608E-02  0.9923604E-01
         -1   -1    0    0    0  501 -0.00000000000E+00  0.00000000000E+00  0.20932832741E+03  0.20932832741E+03  0.00000000000E+00 0.  1.
          1   -1    0    0  501    0  0.00000000000E+00 -0.00000000000E+00 -0.41758025844E+03  0.41758025844E+03  0.00000000000E+00 0. -1.
         23    2    1    2    0    0 -0.75211826099E+02  0.24785854291E+03 -0.24458000061E+03  0.36535475828E+03  0.81080494713E+02 0.  0.
         13    1    3    3    0    0 -0.61157198174E+02  0.89437925344E+02 -0.69008647933E+02  0.12845831568E+03  0.00000000000E+00 0.  1.
        -13    1    3    3    0    0 -0.14054627925E+02  0.15842061756E+03 -0.17557135268E+03  0.23689644260E+03  0.00000000000E+00 0. -1.
         22    1    1    2    0    0  0.75211826099E+02 -0.24785854291E+03  0.36328069584E+02  0.26155382757E+03  0.00000000000E+00 0.  1.
<mgrwt>
<rscale>  0 0.59130830E+03</rscale>
<asrwt>0</asrwt>
<pdfrwt beam="1">  1        1 0.64243117E-01 0.59130830E+03</pdfrwt>
<pdfrwt beam="2">  1       -1 0.32204358E-01 0.59130830E+03</pdfrwt>
<totfact> 0.51527722E+02</totfact>
</mgrwt>
</event>
<event>
 6    1  0.8968082E-007  0.2983344E+04  0.7818608E-02  0.8248503E-01
         -2   -1    0    0    0  501 -0.00000000000E+00  0.00000000000E+00  0.11234015624E+04  0.11234015624E+04  0.00000000000E+00 0.  1.
          2   -1    0    0  501    0  0.00000000000E+00 -0.00000000000E+00 -0.19806680268E+04  0.19806680268E+04  0.00000000000E+00 0. -1.
         23    2    1    2    0    0 -0.44064547838E+03  0.37024070091E+03 -0.18593248391E+04  0.19484885230E+04  0.90950826603E+02 0.  0.
         11    1    3    3    0    0 -0.13814694903E+03  0.17055395566E+03 -0.74922695801E+03  0.78071394629E+03  0.00000000000E+00 0. -1.
        -11    1    3    3    0    0 -0.30249852935E+03  0.19968674525E+03 -0.11100978811E+04  0.11677745767E+04  0.00000000000E+00 0.  1.
         22    1    1    2    0    0  0.44064547838E+03 -0.37024070091E+03  0.10020583746E+04  0.11555810661E+04  0.00000000000E+00 0.  1.
<mgrwt>
<rscale>  0 0.29833441E+04</rscale>
<asrwt>0</asrwt>
<pdfrwt beam="1">  1        2 0.30471815E+00 0.29833441E+04</pdfrwt>
<pdfrwt beam="2">  1       -2 0.17283101E+00 0.29833441E+04</pdfrwt>
<totfact> 0.11948694E+00</totfact>
</mgrwt>
</event>
<event>
 6    1  0.8968082E-007  0.5022929E+03  0.7818608E-02  0.1013182E+00
         -1   -1    0    0    0  501 -0.00000000000E+00  0.00000000000E+00  0.42969656124E+03  0.42969656124E+03  0.00000000000E+00 0.  1.
          1   -1    0    0  501    0  0.00000000000E+00 -0.00000000000E+00 -0.14678855375E+03  0.14678855375E+03  0.00000000000E+00 0. -1.
         23    2    1    2    0    0  0.20408767707E+03 -0.49816094383E+02  0.28638846560E+03  0.36637672205E+03  0.89889521305E+02 0.  0.
         11    1    3    3    0    0  0.52228006480E+02 -0.30297936510E+02  0.29214358916E+02  0.67076138712E+02  0.00000000000E+00 0. -1.
        -11    1    3    3    0    0  0.15185967060E+03 -0.19518157873E+02  0.25717410668E+03  0.29930058334E+03  0.00000000000E+00 0.  1.
         22    1    1    2    0    0 -0.20408767707E+03  0.49816094383E+02 -0.34804581057E+01  0.21010839294E+03  0.00000000000E+00 0. -1.
<mgrwt>
<rscale>  0 0.50229289E+03</rscale>
<asrwt>0</asrwt>
<pdfrwt beam="1">  1        1 0.22582855E-01 0.50229289E+03</pdfrwt>
<pdfrwt beam="2">  1       -1 0.66107163E-01 0.50229289E+03</pdfrwt>
<totfact> 0.52384168E+02</totfact>
</mgrwt>
</event>
<event>
 6    1  0.8968082E-007  0.3603904E+04  0.7818608E-02  0.8089598E-01
         -2   -1    0    0    0  501 -0.00000000000E+00  0.00000000000E+00  0.11738286794E+04  0.11738286794E+04  0.00000000000E+00 0.  1.
          2   -1    0    0  501    0  0.00000000000E+00 -0.00000000000E+00 -0.27661883140E+04  0.27661883140E+04  0.00000000000E+00 0. -1.
         23    2    1    2    0    0 -0.10074061507E+04  0.61179539203E+03 -0.22851019252E+04  0.25728839950E+04  0.94236345515E+02 0.  0.
         13    1    3    3    0    0 -0.35766169789E+03  0.25235280905E+03 -0.92295746278E+03  0.10214961128E+04  0.00000000000E+00 0.  1.
        -13    1    3    3    0    0 -0.64974445277E+03  0.35944258299E+03 -0.13621444624E+04  0.15513878822E+04  0.00000000000E+00 0. -1.
         22    1    1    2    0    0  0.10074061507E+04 -0.61179539203E+03  0.69274229062E+03  0.13671329984E+04  0.00000000000E+00 0.  1.
<mgrwt>
<rscale>  0 0.36039041E+04</rscale>
<asrwt>0</asrwt>
<pdfrwt beam="1">  1        2 0.42556743E+00 0.36039041E+04</pdfrwt>
<pdfrwt beam="2">  1       -2 0.18058903E+00 0.36039041E+04</pdfrwt>
<totfact> 0.35462124E-01</totfact>
</mgrwt>
</event>
<event>
 6    1  0.8968082E-007  0.2732128E+04  0.7818608E-02  0.8324655E-01
         -2   -1    0    0    0  501 -0.00000000000E+00  0.00000000000E+00  0.15579895056E+04  0.15579895056E+04  0.00000000000E+00 0.  1.
          2   -1    0    0  501    0  0.00000000000E+00 -0.00000000000E+00 -0.11977815402E+04  0.11977815402E+04  0.00000000000E+00 0. -1.
         23    2    1    2    0    0  0.20004104202E+03  0.13109100719E+04  0.50452154206E+03  0.14218564896E+04  0.92909932270E+02 0.  0.
         13    1    3    3    0    0  0.18811070046E+03  0.96612669915E+03  0.36687188642E+03  0.10504196378E+04  0.00000000000E+00 0. -1.
        -13    1    3    3    0    0  0.11930341556E+02  0.34478337271E+03  0.13764965564E+03  0.37143685176E+03  0.00000000000E+00 0.  1.
         22    1    1    2    0    0 -0.20004104202E+03 -0.13109100719E+04 -0.14431357663E+03  0.13339145563E+04  0.00000000000E+00 0.  1.
<mgrwt>
<rscale>  0 0.27321282E+04</rscale>
<asrwt>0</asrwt>
<pdfrwt beam="1">  1        2 0.18427408E+00 0.27321282E+04</pdfrwt>
<pdfrwt beam="2">  1       -2 0.23969069E+00 0.27321282E+04</pdfrwt>
<totfact> 0.12368446E+00</totfact>
</mgrwt>
</event>
<event>
 6    1  0.8968082E-007  0.2456530E+04  0.7818608E-02  0.8418638E-01
          2   -1    0    0  501    0  0.00000000000E+00  0.00000000000E+00  0.29736009949E+04  0.29736009949E+04  0.00000000000E+00 0. -1.
         -2   -1    0    0    0  501 -0.00000000000E+00 -0.00000000000E+00 -0.50734265563E+03  0.50734265563E+03  0.00000000000E+00 0.  1.
         23    2    1    2    0    0 -0.10433988902E+04  0.63778675332E+02  0.32556519665E+03  0.10986514572E+04  0.91067907599E+02 0.  0.
         11    1    3    3    0    0 -0.63159456926E+03 -0.55699789801E+01  0.18918515771E+03  0.65934342226E+03  0.00000000000E+00 0. -1.
        -11    1    3    3    0    0 -0.41180432090E+03  0.69348654312E+02  0.13638003894E+03  0.43930803497E+03  0.00000000000E+00 0.  1.
         22    1    1    2    0    0  0.10433988902E+04 -0.63778675332E+02  0.21406931427E+04  0.23822921933E+04  0.00000000000E+00 0. -1.
<mgrwt>
<rscale>  0 0.24565298E+04</rscale>
<asrwt>0</asrwt>
<pdfrwt beam="1">  1        2 0.45747707E+00 0.24565298E+04</pdfrwt>
<pdfrwt beam="2">  1       -2 0.78052718E-01 0.24565298E+04</pdfrwt>
<totfact> 0.23656470E+00</totfact>
</mgrwt>
</event>
<event>
 6    1  0.8968082E-007  0.3171623E+04  0.7818608E-02  0.8196352E-01
          2   -1    0    0  501    0  0.00000000000E+00  0.00000000000E+00  0.13913537552E+04  0.13913537552E+04  0.00000000000E+00 0. -1.
         -2   -1    0    0    0  501 -0.00000000000E+00 -0.00000000000E+00 -0.18074469490E+04  0.18074469490E+04  0.00000000000E+00 0.  1.
         23    2    1    2    0    0  0.99694528650E+03  0.11894970882E+04 -0.52988248847E+03  0.16426030205E+04  0.92552710887E+02 0.  0.
         11    1    3    3    0    0  0.50857458572E+03  0.67519091056E+03 -0.27336160349E+03  0.88840162157E+03  0.00000000000E+00 0. -1.
        -11    1    3    3    0    0  0.48837070077E+03  0.51430617769E+03 -0.25652088497E+03  0.75420139897E+03  0.00000000000E+00 0.  1.
         22    1    1    2    0    0 -0.99694528650E+03 -0.11894970882E+04  0.11378929471E+03  0.15561976837E+04  0.00000000000E+00 0. -1.
<mgrwt>
<rscale>  0 0.31716230E+04</rscale>
<asrwt>0</asrwt>
<pdfrwt beam="1">  1        2 0.21405442E+00 0.31716230E+04</pdfrwt>
<pdfrwt beam="2">  1       -2 0.27806876E+00 0.31716230E+04</pdfrwt>
<totfact> 0.53453912E-01</totfact>
</mgrwt>
</event>
<event>
 6    1  0.8968082E-007  0.1211874E+04  0.7818608E-02  0.9102526E-01
         -2   -1    0    0    0  501 -0.00000000000E+00  0.00000000000E+00  0.29881428265E+03  0.29881428265E+03  0.00000000000E+00 0.  1.
          2   -1    0    0  501    0  0.00000000000E+00 -0.00000000000E+00 -0.12287218025E+04  0.12287218025E+04  0.00000000000E+00 0. -1.
         23    2    1    2    0    0 -0.46384546044E+03  0.32608074304E+03 -0.72449176680E+03  0.92447979109E+03  0.91067567403E+02 0.  0.
         13    1    3    3    0    0 -0.25277768151E+03  0.22868602637E+03 -0.40466278751E+03  0.52909907061E+03  0.00000000000E+00 0.  1.
        -13    1    3    3    0    0 -0.21106777894E+03  0.97394716671E+02 -0.31982897929E+03  0.39538072049E+03  0.00000000000E+00 0. -1.
         22    1    1    2    0    0  0.46384546044E+03 -0.32608074304E+03 -0.20541575301E+03  0.60305629400E+03  0.00000000000E+00 0.  1.
<mgrwt>
<rscale>  0 0.12118740E+04</rscale>
<asrwt>0</asrwt>
<pdfrwt beam="1">  1        2 0.18903412E+00 0.12118740E+04</pdfrwt>
<pdfrwt beam="2">  1       -2 0.45971429E-01 0.12118740E+04</pdfrwt>
<totfact> 0.80516612E+01</totfact>
</mgrwt>
</event>
<event>
 6    1  0.8968082E-007  0.2384763E+04  0.7818608E-02  0.8445230E-01
         -1   -1    0    0    0  501 -0.00000000000E+00  0.00000000000E+00  0.81701833821E+03  0.81701833821E+03  0.00000000000E+00 0.  1.
          1   -1    0    0  501    0  0.00000000000E+00 -0.00000000000E+00 -0.17401985094E+04  0.17401985094E+04  0.00000000000E+00 0. -1.
         23    2    1    2    0    0  0.44989686138E+03 -0.55162035773E+03 -0.14857877536E+04  0.16499024056E+04  0.88997157951E+02 0.  0.
         11    1    3    3    0    0  0.39344826857E+03 -0.52131585071E+03 -0.13630679109E+04  0.15114648147E+04  0.00000000000E+00 0.  1.
        -11    1    3    3    0    0  0.56448592810E+02 -0.30304507023E+02 -0.12271984273E+03  0.13843759091E+03  0.00000000000E+00 0. -1.
         22    1    1    2    0    0 -0.44989686138E+03  0.55162035773E+03  0.56260758243E+03  0.90731444205E+03  0.00000000000E+00 0.  1.
<mgrwt>
<rscale>  0 0.23847634E+04</rscale>
<asrwt>0</asrwt>
<pdfrwt beam="1">  1        1 0.26772285E+00 0.23847634E+04</pdfrwt>
<pdfrwt beam="2">  1       -1 0.12569513E+00 0.23847634E+04</pdfrwt>
<totfact> 0.22158003E+00</totfact>
</mgrwt>
</event>
<event>
 6    1  0.8968082E-007  0.3977646E+04  0.7818608E-02  0.8009071E-01
         -2   -1    0    0    0  501 -0.00000000000E+00  0.00000000000E+00  0.15637552619E+04  0.15637552619E+04  0.00000000000E+00 0.  1.
          2   -1    0    0  501    0  0.00000000000E+00 -0.00000000000E+00 -0.25294347862E+04  0.25294347862E+04  0.00000000000E+00 0. -1.
         23    2    1    2    0    0 -0.91674184236E+03 -0.12709936811E+04 -0.17414647623E+04  0.23445667959E+04  0.91942367917E+02 0.  0.
         11    1    3    3    0    0 -0.58526055612E+03 -0.78337036082E+03 -0.10239071002E+04  0.14158336027E+04  0.00000000000E+00 0.  1.
        -11    1    3    3    0    0 -0.33148128624E+03 -0.48762332024E+03 -0.71755766210E+03  0.92873319312E+03  0.00000000000E+00 0. -1.
         22    1    1    2    0    0  0.91674184236E+03  0.12709936811E+04  0.77578523805E+03  0.17486232523E+04  0.00000000000E+00 0.  1.
<mgrwt>
<rscale>  0 0.39776460E+04</rscale>
<asrwt>0</asrwt>
<pdfrwt beam="1">  1        2 0.38914381E+00 0.39776460E+04</pdfrwt>
<pdfrwt beam="2">  1       -2 0.24057773E+00 0.39776460E+04</pdfrwt>
<totfact> 0.19430947E-01</totfact>
</mgrwt>
</event>
<event>
 6    1  0.8968082E-007  0.2992823E+03  0.7818608E-02  0.1085600E+00
         -2   -1    0    0    0  501 -0.00000000000E+00  0.00000000000E+00  0.12686781062E+03  0.12686781062E+03  0.00000000000E+00 0.  1.
          2   -1    0    0  501    0  0.00000000000E+00 -0.00000000000E+00 -0.17650237289E+03  0.17650237289E+03  0.00000000000E+00 0. -1.
         23    2    1    2    0    0  0.10718476379E+03  0.68343201858E+02  0.23483957652E+02  0.15672201686E+03  0.88605459608E+02 0.  0.
         11    1    3    3    0    0  0.65782707926E+02  0.27595699865E+01 -0.18685400673E+02  0.68440661064E+02  0.00000000000E+00 0. -1.
        -11    1    3    3    0    0  0.41402055859E+02  0.65583631872E+02  0.42169358325E+02  0.88281355791E+02  0.00000000000E+00 0.  1.
         22    1    1    2    0    0 -0.10718476379E+03 -0.68343201858E+02 -0.73118519921E+02  0.14664816666E+03  0.00000000000E+00 0. -1.
<mgrwt>
<rscale>  0 0.29928227E+03</rscale>
<asrwt>0</asrwt>
<pdfrwt beam="1">  1        2 0.27154211E-01 0.29928227E+03</pdfrwt>
<pdfrwt beam="2">  1       -2 0.19518125E-01 0.29928227E+03</pdfrwt>
<totfact> 0.42863455E+03</totfact>
</mgrwt>
</event>
<event>
 6    1  0.8968082E-007  0.1536092E+04  0.7818608E-02  0.8860801E-01
          2   -1    0    0  501    0  0.00000000000E+00  0.00000000000E+00  0.13931392822E+04  0.13931392822E+04  0.00000000000E+00 0. -1.
         -2   -1    0    0    0  501 -0.00000000000E+00 -0.00000000000E+00 -0.42342829492E+03  0.42342829492E+03  0.00000000000E+00 0.  1.
         23    2    1    2    0    0  0.52139059926E+03  0.49108216942E+03  0.16681705642E+03  0.74062681745E+03  0.87694345841E+02 0.  0.
         11    1    3    3    0    0  0.72466604073E+02  0.10192657936E+03  0.52385559244E+02  0.13559012908E+03  0.00000000000E+00 0. -1.
        -11    1    3    3    0    0  0.44892399519E+03  0.38915559006E+03  0.11443149718E+03  0.60503668837E+03  0.00000000000E+00 0.  1.
         22    1    1    2    0    0 -0.52139059926E+03 -0.49108216942E+03  0.80289393084E+03  0.10759407597E+04  0.00000000000E+00 0.  1.
<mgrwt>
<rscale>  0 0.15360919E+04</rscale>
<asrwt>0</asrwt>
<pdfrwt beam="1">  1        2 0.21432912E+00 0.15360919E+04</pdfrwt>
<pdfrwt beam="2">  1       -2 0.65142815E-01 0.15360919E+04</pdfrwt>
<totfact> 0.30571328E+01</totfact>
</mgrwt>
</event>
<event>
 6    1  0.8968082E-007  0.2121001E+04  0.7818608E-02  0.8552048E-01
          2   -1    0    0  501    0  0.00000000000E+00  0.00000000000E+00  0.74426917909E+03  0.74426917909E+03  0.00000000000E+00 0. -1.
         -2   -1    0    0    0  501 -0.00000000000E+00 -0.00000000000E+00 -0.15110941446E+04  0.15110941446E+04  0.00000000000E+00 0.  1.
         23    2    1    2    0    0  0.43146420736E+03  0.64777523811E+03  0.37862336507E+03  0.87050737472E+03  0.93023198849E+02 0.  0.
         11    1    3    3    0    0  0.76316485201E+02  0.77214416939E+02  0.26357534818E+02  0.11171835900E+03  0.00000000000E+00 0. -1.
        -11    1    3    3    0    0  0.35514772216E+03  0.57056082117E+03  0.35226583025E+03  0.75878901572E+03  0.00000000000E+00 0.  1.
         22    1    1    2    0    0 -0.43146420736E+03 -0.64777523811E+03 -0.11454483305E+04  0.13848559489E+04  0.00000000000E+00 0.  1.
<mgrwt>
<rscale>  0 0.21210005E+04</rscale>
<asrwt>0</asrwt>
<pdfrwt beam="1">  1        2 0.11450295E+00 0.21210005E+04</pdfrwt>
<pdfrwt beam="2">  1       -2 0.23247602E+00 0.21210005E+04</pdfrwt>
<totfact> 0.28736931E+00</totfact>
</mgrwt>
</event>
<event>
 6    1  0.8968082E-007  0.2226187E+04  0.7818608E-02  0.8507607E-01
          2   -1    0    0  501    0  0.00000000000E+00  0.00000000000E+00  0.26860989641E+04  0.26860989641E+04  0.00000000000E+00 0. -1.
         -2   -1    0    0    0  501 -0.00000000000E+00 -0.00000000000E+00 -0.46125520673E+03  0.46125520673E+03  0.00000000000E+00 0.  1.
         23    2    1    2    0    0 -0.66809627756E+03 -0.75085385247E+03  0.44397575168E+03  0.11024519733E+04  0.90286994941E+02 0.  0.
         11    1    3    3    0    0 -0.38975832242E+03 -0.37029002440E+03  0.23762939236E+03  0.58778735967E+03  0.00000000000E+00 0.  1.
        -11    1    3    3    0    0 -0.27833795513E+03 -0.38056382807E+03  0.20634635932E+03  0.51466461361E+03  0.00000000000E+00 0. -1.
         22    1    1    2    0    0  0.66809627756E+03  0.75085385247E+03  0.17808680057E+04  0.20449021975E+04  0.00000000000E+00 0. -1.
<mgrwt>
<rscale>  0 0.22261870E+04</rscale>
<asrwt>0</asrwt>
<pdfrwt beam="1">  1        2 0.41324598E+00 0.22261870E+04</pdfrwt>
<pdfrwt beam="2">  1       -2 0.70962341E-01 0.22261870E+04</pdfrwt>
<totfact> 0.44553006E+00</totfact>
</mgrwt>
</event>
<event>
 6    1  0.8968082E-007  0.2823371E+04  0.7818608E-02  0.8296049E-01
         -2   -1    0    0    0  501 -0.00000000000E+00  0.00000000000E+00  0.16479833040E+04  0.16479833040E+04  0.00000000000E+00 0.  1.
          2   -1    0    0  501    0  0.00000000000E+00 -0.00000000000E+00 -0.12092694480E+04  0.12092694480E+04  0.00000000000E+00 0. -1.
         23    2    1    2    0    0  0.72179393229E+03 -0.37670745028E+03 -0.94566567136E+03  0.12512011777E+04  0.91246047916E+02 0.  0.
         11    1    3    3    0    0  0.67256941655E+03 -0.32839858045E+03 -0.84063428846E+03  0.11255493124E+04  0.00000000000E+00 0. -1.
        -11    1    3    3    0    0  0.49224515739E+02 -0.48308869830E+02 -0.10503138290E+03  0.12565186528E+03  0.00000000000E+00 0.  1.
         22    1    1    2    0    0 -0.72179393229E+03  0.37670745028E+03  0.13843795273E+04  0.16060515743E+04  0.00000000000E+00 0.  1.
<mgrwt>
<rscale>  0 0.28233709E+04</rscale>
<asrwt>0</asrwt>
<pdfrwt beam="1">  1        2 0.18604145E+00 0.28233709E+04</pdfrwt>
<pdfrwt beam="2">  1       -2 0.25353589E+00 0.28233709E+04</pdfrwt>
<totfact> 0.99272333E-01</totfact>
</mgrwt>
</event>
<event>
 6    1  0.8968082E-007  0.4347801E+04  0.7818608E-02  0.7937838E-01
         -2   -1    0    0    0  501 -0.00000000000E+00  0.00000000000E+00  0.35545320293E+04  0.35545320293E+04  0.00000000000E+00 0.  1.
          2   -1    0    0  501    0  0.00000000000E+00 -0.00000000000E+00 -0.13295263064E+04  0.13295263064E+04  0.00000000000E+00 0. -1.
         23    2    1    2    0    0  0.32587933992E+02 -0.19587554970E+04  0.56983126632E+02  0.19620543917E+04  0.92872432686E+02 0.  0.
         11    1    3    3    0    0 -0.15980875528E+02 -0.11339394893E+04  0.31288792108E+01  0.11340564112E+04  0.00000000000E+00 0.  1.
        -11    1    3    3    0    0  0.48568809520E+02 -0.82481600767E+03  0.53854247421E+02  0.82799798051E+03  0.00000000000E+00 0. -1.
         22    1    1    2    0    0 -0.32587933992E+02  0.19587554970E+04  0.21680225963E+04  0.29220039440E+04  0.00000000000E+00 0.  1.
<mgrwt>
<rscale>  0 0.43478012E+04</rscale>
<asrwt>0</asrwt>
<pdfrwt beam="1">  1        2 0.20454251E+00 0.43478012E+04</pdfrwt>
<pdfrwt beam="2">  1       -2 0.54685108E+00 0.43478012E+04</pdfrwt>
<totfact> 0.10848666E-02</totfact>
</mgrwt>
</event>
<event>
 6    1  0.8968082E-007  0.2501320E+04  0.7818608E-02  0.8402515E-01
          2   -1    0    0  501    0  0.00000000000E+00  0.00000000000E+00  0.10112989128E+04  0.10112989128E+04  0.00000000000E+00 0. -1.
         -2   -1    0    0    0  501 -0.00000000000E+00 -0.00000000000E+00 -0.15466751366E+04  0.15466751366E+04  0.00000000000E+00 0.  1.
         23    2    1    2    0    0 -0.45096867860E+03  0.87971936586E+03 -0.10486176245E+04  0.14441088659E+04  0.92588241687E+02 0.  0.
         13    1    3    3    0    0 -0.29613863593E+03  0.55545032757E+03 -0.60327305609E+03  0.87187243235E+03  0.00000000000E+00 0.  1.
        -13    1    3    3    0    0 -0.15483004267E+03  0.32426903829E+03 -0.44534456837E+03  0.57223643355E+03  0.00000000000E+00 0. -1.
         22    1    1    2    0    0  0.45096867860E+03 -0.87971936586E+03  0.51324140064E+03  0.11138651835E+04  0.00000000000E+00 0. -1.
<mgrwt>
<rscale>  0 0.25013204E+04</rscale>
<asrwt>0</asrwt>
<pdfrwt beam="1">  1        2 0.15558445E+00 0.25013204E+04</pdfrwt>
<pdfrwt beam="2">  1       -2 0.23795002E+00 0.25013204E+04</pdfrwt>
<totfact> 0.16847476E+00</totfact>
</mgrwt>
</event>
<event>
 6    1  0.8968082E-007  0.5721667E+03  0.7818608E-02  0.9964895E-01
         -3   -1    0    0    0  501 -0.00000000000E+00  0.00000000000E+00  0.25364642592E+04  0.25364642592E+04  0.00000000000E+00 0.  1.
          3   -1    0    0  501    0  0.00000000000E+00 -0.00000000000E+00 -0.32266843423E+02  0.32266843423E+02  0.00000000000E+00 0. -1.
         23    2    1    2    0    0  0.15639339704E+02 -0.27821524730E+03  0.12269516242E+04  0.12614418749E+04  0.90426781927E+02 0.  0.
         13    1    3    3    0    0 -0.32203763669E+01 -0.40701815785E+02  0.36129291324E+03  0.36359259864E+03  0.00000000000E+00 0. -1.
        -13    1    3    3    0    0  0.18859716071E+02 -0.23751343152E+03  0.86565871095E+03  0.89784927626E+03  0.00000000000E+00 0.  1.
         22    1    1    2    0    0 -0.15639339704E+02  0.27821524730E+03  0.12772457916E+04  0.13072892278E+04  0.00000000000E+00 0. -1.
<mgrwt>
<rscale>  0 0.57216674E+03</rscale>
<asrwt>0</asrwt>
<pdfrwt beam="1">  1        3 0.49641317E-02 0.57216674E+03</pdfrwt>
<pdfrwt beam="2">  1       -3 0.39022511E+00 0.57216674E+03</pdfrwt>
<totfact> 0.82207279E+00</totfact>
</mgrwt>
</event>
<event>
 6    1  0.8968082E-007  0.3573954E+04  0.7818608E-02  0.8096484E-01
         -1   -1    0    0    0  501 -0.00000000000E+00  0.00000000000E+00  0.77314536360E+03  0.77314536360E+03  0.00000000000E+00 0.  1.
          1   -1    0    0  501    0  0.00000000000E+00 -0.00000000000E+00 -0.41302536692E+04  0.41302536692E+04  0.00000000000E+00 0. -1.
         23    2    1    2    0    0 -0.88394012581E+03  0.14876275234E+04 -0.10742769158E+04  0.20388388661E+04  0.91690978297E+02 0.  0.
         13    1    3    3    0    0 -0.14236148378E+03  0.26270082478E+03 -0.14796863353E+03  0.33342650152E+03  0.00000000000E+00 0.  1.
        -13    1    3    3    0    0 -0.74157864203E+03  0.12249266987E+04 -0.92630828227E+03  0.17054123646E+04  0.00000000000E+00 0. -1.
         22    1    1    2    0    0  0.88394012581E+03 -0.14876275234E+04 -0.22828313899E+04  0.28645601668E+04  0.00000000000E+00 0. -1.
<mgrwt>
<rscale>  0 0.35739538E+04</rscale>
<asrwt>0</asrwt>
<pdfrwt beam="1">  1        1 0.63542362E+00 0.35739538E+04</pdfrwt>
<pdfrwt beam="2">  1       -1 0.11894544E+00 0.35739538E+04</pdfrwt>
<totfact> 0.37503616E-02</totfact>
</mgrwt>
</event>
<event>
 6    1  0.8968082E-007  0.1755691E+04  0.7818608E-02  0.8730224E-01
          2   -1    0    0  501    0  0.00000000000E+00  0.00000000000E+00  0.25581480679E+04  0.25581480679E+04  0.00000000000E+00 0. -1.
         -2   -1    0    0    0  501 -0.00000000000E+00 -0.00000000000E+00 -0.30123842473E+03  0.30123842473E+03  0.00000000000E+00 0.  1.
         23    2    1    2    0    0 -0.16423867608E+03  0.84668401101E+03  0.88648631345E+03  0.12401557309E+04  0.90995030855E+02 0.  0.
         13    1    3    3    0    0 -0.99567648918E+02  0.34179637146E+03  0.40905533997E+03  0.54227737128E+03  0.00000000000E+00 0.  1.
        -13    1    3    3    0    0 -0.64671027160E+02  0.50488763956E+03  0.47743097348E+03  0.69787835958E+03  0.00000000000E+00 0. -1.
         22    1    1    2    0    0  0.16423867608E+03 -0.84668401101E+03  0.13704233297E+04  0.16192307618E+04  0.00000000000E+00 0. -1.
<mgrwt>
<rscale>  0 0.17556907E+04</rscale>
<asrwt>0</asrwt>
<pdfrwt beam="1">  1        2 0.39356123E+00 0.17556907E+04</pdfrwt>
<pdfrwt beam="2">  1       -2 0.46344375E-01 0.17556907E+04</pdfrwt>
<totfact> 0.13488529E+01</totfact>
</mgrwt>
</event>
<event>
 6    1  0.8968082E-007  0.2891612E+04  0.7818608E-02  0.8275378E-01
         -2   -1    0    0    0  501 -0.00000000000E+00  0.00000000000E+00  0.12975714994E+04  0.12975714994E+04  0.00000000000E+00 0.  1.
          2   -1    0    0  501    0  0.00000000000E+00 -0.00000000000E+00 -0.16109744872E+04  0.16109744872E+04  0.00000000000E+00 0. -1.
         23    2    1    2    0    0  0.59601338695E+03 -0.74752404104E+03 -0.12458480005E+04  0.15730768365E+04  0.91702475680E+02 0.  0.
         11    1    3    3    0    0  0.60987576846E+02 -0.11701494939E+03 -0.14197319621E+03  0.19382562099E+03  0.00000000000E+00 0. -1.
        -11    1    3    3    0    0  0.53502581011E+03 -0.63050909165E+03 -0.11038748042E+04  0.13792512155E+04  0.00000000000E+00 0.  1.
         22    1    1    2    0    0 -0.59601338695E+03  0.74752404104E+03  0.93244501262E+03  0.13354691501E+04  0.00000000000E+00 0.  1.
<mgrwt>
<rscale>  0 0.28916117E+04</rscale>
<asrwt>0</asrwt>
<pdfrwt beam="1">  1        2 0.24784223E+00 0.28916117E+04</pdfrwt>
<pdfrwt beam="2">  1       -2 0.19962639E+00 0.28916117E+04</pdfrwt>
<totfact> 0.12702982E+00</totfact>
</mgrwt>
</event>
<event>
 6    1  0.8968082E-007  0.4069286E+04  0.7818608E-02  0.7990713E-01
         -1   -1    0    0    0  501 -0.00000000000E+00  0.00000000000E+00  0.15390539802E+04  0.15390539802E+04  0.00000000000E+00 0.  1.
          1   -1    0    0  501    0  0.00000000000E+00 -0.00000000000E+00 -0.26898162342E+04  0.26898162342E+04  0.00000000000E+00 0. -1.
         23    2    1    2    0    0  0.91363646609E+03  0.89427099902E+03 -0.22191905590E+04  0.25627395908E+04  0.91516454422E+02 0.  0.
         11    1    3    3    0    0  0.60030389070E+03  0.54158647966E+03 -0.14597047415E+04  0.16686577266E+04  0.00000000000E+00 0.  1.
        -11    1    3    3    0    0  0.31333257539E+03  0.35268451936E+03 -0.75948581749E+03  0.89408186424E+03  0.00000000000E+00 0. -1.
         22    1    1    2    0    0 -0.91363646609E+03 -0.89427099902E+03  0.10684283050E+04  0.16661306236E+04  0.00000000000E+00 0.  1.
<mgrwt>
<rscale>  0 0.40692861E+04</rscale>
<asrwt>0</asrwt>
<pdfrwt beam="1">  1        1 0.41381788E+00 0.40692861E+04</pdfrwt>
<pdfrwt beam="2">  1       -1 0.23677754E+00 0.40692861E+04</pdfrwt>
<totfact> 0.66099188E-02</totfact>
</mgrwt>
</event>
<event>
 6    1  0.8968082E-007  0.3015780E+04  0.7818608E-02  0.8239239E-01
         -1   -1    0    0    0  501 -0.00000000000E+00  0.00000000000E+00  0.64498666070E+03  0.64498666070E+03  0.00000000000E+00 0.  1.
          1   -1    0    0  501    0  0.00000000000E+00 -0.00000000000E+00 -0.35252397939E+04  0.35252397939E+04  0.00000000000E+00 0. -1.
         23    2    1    2    0    0 -0.13059338017E+04 -0.43773748592E+03 -0.59753683422E+03  0.15041673962E+04  0.91608332051E+02 0.  0.
         11    1    3    3    0    0 -0.97438704690E+03 -0.34899429196E+03 -0.41179704439E+03  0.11139137932E+04  0.00000000000E+00 0.  1.
        -11    1    3    3    0    0 -0.33154675484E+03 -0.88743193960E+02 -0.18573978984E+03  0.39025360299E+03  0.00000000000E+00 0. -1.
         22    1    1    2    0    0  0.13059338017E+04  0.43773748592E+03 -0.22827162990E+04  0.26660590584E+04  0.00000000000E+00 0. -1.
<mgrwt>
<rscale>  0 0.30157803E+04</rscale>
<asrwt>0</asrwt>
<pdfrwt beam="1">  1        1 0.54234458E+00 0.30157803E+04</pdfrwt>
<pdfrwt beam="2">  1       -1 0.99228718E-01 0.30157803E+04</pdfrwt>
<totfact> 0.19661545E-01</totfact>
</mgrwt>
</event>
<event>
 6    1  0.8968082E-007  0.7957887E+03  0.7818608E-02  0.9566133E-01
          1   -1    0    0  501    0  0.00000000000E+00  0.00000000000E+00  0.21777431889E+03  0.21777431889E+03  0.00000000000E+00 0. -1.
         -1   -1    0    0    0  501 -0.00000000000E+00 -0.00000000000E+00 -0.72699072775E+03  0.72699072775E+03  0.00000000000E+00 0.  1.
         23    2    1    2    0    0  0.12502888580E+01  0.18481594574E+03 -0.66831765071E+03  0.70089684006E+03  0.10222231231E+03 0.  0.
         11    1    3    3    0    0  0.38012038535E+02  0.16521196434E+03 -0.53311344810E+03  0.55941921381E+03  0.00000000000E+00 0.  1.
        -11    1    3    3    0    0 -0.36761749677E+02  0.19603981395E+02 -0.13520420261E+03  0.14147762625E+03  0.00000000000E+00 0. -1.
         22    1    1    2    0    0 -0.12502888580E+01 -0.18481594574E+03  0.15910124185E+03  0.24386820658E+03  0.00000000000E+00 0. -1.
<mgrwt>
<rscale>  0 0.79578869E+03</rscale>
<asrwt>0</asrwt>
<pdfrwt beam="1">  1        1 0.33503741E-01 0.79578869E+03</pdfrwt>
<pdfrwt beam="2">  1       -1 0.11184473E+00 0.79578869E+03</pdfrwt>
<totfact> 0.98942374E+01</totfact>
</mgrwt>
</event>
<event>
 6    1  0.8968082E-007  0.1587067E+04  0.7818608E-02  0.8828533E-01
          1   -1    0    0  501    0  0.00000000000E+00  0.00000000000E+00  0.86354329954E+03  0.86354329954E+03  0.00000000000E+00 0. -1.
         -1   -1    0    0    0  501 -0.00000000000E+00 -0.00000000000E+00 -0.72919999707E+03  0.72919999707E+03  0.00000000000E+00 0.  1.
         23    2    1    2    0    0 -0.58166854878E+03  0.45765920278E+03  0.34740763615E+03  0.82255717832E+03  0.90099941292E+02 0.  0.
         13    1    3    3    0    0 -0.46296311601E+03  0.35151277256E+03  0.23192083635E+03  0.62584610759E+03  0.00000000000E+00 0.  1.
        -13    1    3    3    0    0 -0.11870543277E+03  0.10614643022E+03  0.11548679980E+03  0.19671107072E+03  0.00000000000E+00 0. -1.
         22    1    1    2    0    0  0.58166854878E+03 -0.45765920278E+03 -0.21306433367E+03  0.77018611829E+03  0.00000000000E+00 0.  1.
<mgrwt>
<rscale>  0 0.15870674E+04</rscale>
<asrwt>0</asrwt>
<pdfrwt beam="1">  1        1 0.13285282E+00 0.15870674E+04</pdfrwt>
<pdfrwt beam="2">  1       -1 0.11218461E+00 0.15870674E+04</pdfrwt>
<totfact> 0.13652607E+01</totfact>
</mgrwt>
</event>
<event>
 6    1  0.8968082E-007  0.3261944E+04  0.7818608E-02  0.8172647E-01
         -1   -1    0    0    0  501 -0.00000000000E+00  0.00000000000E+00  0.11348941912E+04  0.11348941912E+04  0.00000000000E+00 0.  1.
          1   -1    0    0  501    0  0.00000000000E+00 -0.00000000000E+00 -0.23438927321E+04  0.23438927321E+04  0.00000000000E+00 0. -1.
         23    2    1    2    0    0  0.11531186998E+04 -0.46834689026E+03 -0.17269688649E+04  0.21307050259E+04  0.91928785911E+02 0.  0.
         13    1    3    3    0    0  0.36356461853E+03 -0.14376905897E+03 -0.47157968372E+03  0.61256523919E+03  0.00000000000E+00 0.  1.
        -13    1    3    3    0    0  0.78955408125E+03 -0.32457783129E+03 -0.12553891812E+04  0.15181397868E+04  0.00000000000E+00 0. -1.
         22    1    1    2    0    0 -0.11531186998E+04  0.46834689026E+03  0.51797032401E+03  0.13480818973E+04  0.00000000000E+00 0.  1.
<mgrwt>
<rscale>  0 0.32619444E+04</rscale>
<asrwt>0</asrwt>
<pdfrwt beam="1">  1        1 0.36059888E+00 0.32619444E+04</pdfrwt>
<pdfrwt beam="2">  1       -1 0.17459911E+00 0.32619444E+04</pdfrwt>
<totfact> 0.32904091E-01</totfact>
</mgrwt>
</event>
<event>
 6    1  0.8968082E-007  0.1361452E+04  0.7818608E-02  0.8982204E-01
         -2   -1    0    0    0  501 -0.00000000000E+00  0.00000000000E+00  0.96485528893E+03  0.96485528893E+03  0.00000000000E+00 0.  1.
          2   -1    0    0  501    0  0.00000000000E+00 -0.00000000000E+00 -0.48026692609E+03  0.48026692609E+03  0.00000000000E+00 0. -1.
         23    2    1    2    0    0  0.31730055710E+03 -0.51339910882E+03 -0.85689866055E+02  0.61477557246E+03  0.79674104181E+02 0.  0.
         13    1    3    3    0    0  0.72573262070E+02 -0.15641615953E+03 -0.54494515576E+02  0.18083845154E+03  0.00000000000E+00 0.  1.
        -13    1    3    3    0    0  0.24472729503E+03 -0.35698294929E+03 -0.31195350478E+02  0.43393712092E+03  0.00000000000E+00 0. -1.
         22    1    1    2    0    0 -0.31730055710E+03  0.51339910882E+03  0.57027822889E+03  0.83034664256E+03  0.00000000000E+00 0.  1.
<mgrwt>
<rscale>  0 0.13614523E+04</rscale>
<asrwt>0</asrwt>
<pdfrwt beam="1">  1        2 0.73887219E-01 0.13614523E+04</pdfrwt>
<pdfrwt beam="2">  1       -2 0.14843928E+00 0.13614523E+04</pdfrwt>
<totfact> 0.19381940E+01</totfact>
</mgrwt>
</event>
<event>
 6    1  0.8968082E-007  0.1663110E+04  0.7818608E-02  0.8782688E-01
         -2   -1    0    0    0  501 -0.00000000000E+00  0.00000000000E+00  0.58593282364E+03  0.58593282364E+03  0.00000000000E+00 0.  1.
          2   -1    0    0  501    0  0.00000000000E+00 -0.00000000000E+00 -0.11801421627E+04  0.11801421627E+04  0.00000000000E+00 0. -1.
         23    2    1    2    0    0  0.29006305872E+03  0.76964055133E+03 -0.18790402425E+03  0.84870528710E+03  0.92247415902E+02 0.  0.
         13    1    3    3    0    0  0.13224883077E+03  0.46761479972E+03 -0.90767660833E+02  0.49436031638E+03  0.00000000000E+00 0.  1.
        -13    1    3    3    0    0  0.15781422795E+03  0.30202575161E+03 -0.97136363418E+02  0.35434497072E+03  0.00000000000E+00 0. -1.
         22    1    1    2    0    0 -0.29006305872E+03 -0.76964055133E+03 -0.40630531485E+03  0.91736969928E+03  0.00000000000E+00 0. -1.
<mgrwt>
<rscale>  0 0.16631104E+04</rscale>
<asrwt>0</asrwt>
<pdfrwt beam="1">  1        2 0.18156033E+00 0.16631104E+04</pdfrwt>
<pdfrwt beam="2">  1       -2 0.90143512E-01 0.16631104E+04</pdfrwt>
<totfact> 0.19564497E+01</totfact>
</mgrwt>
</event>
<event>
 6    1  0.9094865E-007  0.2536294E+04  0.7818608E-02  0.8390168E-01
         -2   -1    0    0    0  501 -0.00000000000E+00  0.00000000000E+00  0.75255786008E+03  0.75255786008E+03  0.00000000000E+00 0.  1.
          2   -1    0    0  501    0  0.00000000000E+00 -0.00000000000E+00 -0.21369749517E+04  0.21369749517E+04  0.00000000000E+00 0. -1.
         23    2    1    2    0    0 -0.10199773115E+04 -0.64231254399E+03 -0.11360941113E+04  0.16588486839E+04  0.90277384128E+02 0.  0.
         11    1    3    3    0    0 -0.70767359064E+03 -0.48098099148E+03 -0.76613470566E+03  0.11485238405E+04  0.00000000000E+00 0. -1.
        -11    1    3    3    0    0 -0.31230372085E+03 -0.16133155251E+03 -0.36995940567E+03  0.51032484335E+03  0.00000000000E+00 0.  1.
         22    1    1    2    0    0  0.10199773115E+04  0.64231254399E+03 -0.24832298030E+03  0.12306841279E+04  0.00000000000E+00 0.  1.
<mgrwt>
<rscale>  0 0.25362944E+04</rscale>
<asrwt>0</asrwt>
<pdfrwt beam="1">  1        2 0.32876537E+00 0.25362944E+04</pdfrwt>
<pdfrwt beam="2">  1       -2 0.11577813E+00 0.25362944E+04</pdfrwt>
<totfact> 0.28892170E+00</totfact>
</mgrwt>
</event>
<event>
 6    1  0.8968082E-007  0.2702377E+04  0.7818608E-02  0.8334234E-01
         -2   -1    0    0    0  501 -0.00000000000E+00  0.00000000000E+00  0.26268491394E+04  0.26268491394E+04  0.00000000000E+00 0.  1.
          2   -1    0    0  501    0  0.00000000000E+00 -0.00000000000E+00 -0.69501889860E+03  0.69501889860E+03  0.00000000000E+00 0. -1.
         23    2    1    2    0    0  0.12907604913E+04 -0.35457112474E+02  0.14497833440E+04  0.19435759560E+04  0.91081829703E+02 0.  0.
         13    1    3    3    0    0  0.48104906893E+03 -0.23642524223E+02  0.60581345787E+03  0.77393612230E+03  0.00000000000E+00 0.  1.
        -13    1    3    3    0    0  0.80971142234E+03 -0.11814588251E+02  0.84396988610E+03  0.11696398337E+04  0.00000000000E+00 0. -1.
         22    1    1    2    0    0 -0.12907604913E+04  0.35457112474E+02  0.48204689687E+03  0.13782920820E+04  0.00000000000E+00 0.  1.
<mgrwt>
<rscale>  0 0.27023766E+04</rscale>
<asrwt>0</asrwt>
<pdfrwt beam="1">  1        2 0.10692599E+00 0.27023766E+04</pdfrwt>
<pdfrwt beam="2">  1       -2 0.40413063E+00 0.27023766E+04</pdfrwt>
<totfact> 0.25283740E-01</totfact>
</mgrwt>
</event>
<event>
 6    1  0.8968082E-007  0.9262536E+03  0.7818608E-02  0.9393345E-01
         -2   -1    0    0    0  501 -0.00000000000E+00  0.00000000000E+00  0.29471280122E+03  0.29471280122E+03  0.00000000000E+00 0.  1.
          2   -1    0    0  501    0  0.00000000000E+00 -0.00000000000E+00 -0.72778125896E+03  0.72778125896E+03  0.00000000000E+00 0. -1.
         23    2    1    2    0    0  0.49822971984E+02  0.26894199817E+03  0.18773711401E+03  0.34410502370E+03  0.91383348807E+02 0.  0.
         11    1    3    3    0    0  0.68648820502E+02  0.15327283988E+03  0.13553832604E+03  0.21581441524E+03  0.00000000000E+00 0.  1.
        -11    1    3    3    0    0 -0.18825848518E+02  0.11566915829E+03  0.52198787974E+02  0.12829060845E+03  0.00000000000E+00 0. -1.
         22    1    1    2    0    0 -0.49822971984E+02 -0.26894199817E+03 -0.62080557174E+03  0.67838903649E+03  0.00000000000E+00 0. -1.
<mgrwt>
<rscale>  0 0.92625364E+03</rscale>
<asrwt>0</asrwt>
<pdfrwt beam="1">  1        2 0.11196635E+00 0.92625364E+03</pdfrwt>
<pdfrwt beam="2">  1       -2 0.45340431E-01 0.92625364E+03</pdfrwt>
<totfact> 0.18014909E+02</totfact>
</mgrwt>
</event>
<event>
 6    1  0.8968082E-007  0.1138673E+04  0.7818608E-02  0.9168298E-01
         -2   -1    0    0    0  501 -0.00000000000E+00  0.00000000000E+00  0.45904699462E+03  0.45904699462E+03  0.00000000000E+00 0.  1.
          2   -1    0    0  501    0  0.00000000000E+00 -0.00000000000E+00 -0.70612336025E+03  0.70612336025E+03  0.00000000000E+00 0. -1.
         23    2    1    2    0    0 -0.32520345361E+03 -0.42719846276E+03  0.58073872850E+02  0.54761672897E+03  0.90860851377E+02 0.  0.
         11    1    3    3    0    0 -0.26258388059E+03 -0.27639625975E+03  0.40985016706E+02  0.38343833709E+03  0.00000000000E+00 0.  1.
        -11    1    3    3    0    0 -0.62619573015E+02 -0.15080220300E+03  0.17088856144E+02  0.16417839188E+03  0.00000000000E+00 0. -1.
         22    1    1    2    0    0  0.32520345361E+03  0.42719846276E+03 -0.30515023848E+03  0.61755362590E+03  0.00000000000E+00 0. -1.
<mgrwt>
<rscale>  0 0.11386726E+04</rscale>
<asrwt>0</asrwt>
<pdfrwt beam="1">  1        2 0.10863436E+00 0.11386726E+04</pdfrwt>
<pdfrwt beam="2">  1       -2 0.70622615E-01 0.11386726E+04</pdfrwt>
<totfact> 0.73224939E+01</totfact>
</mgrwt>
</event>
<event>
 6    1  0.8968082E-007  0.1209271E+04  0.7818608E-02  0.9104780E-01
          2   -1    0    0  501    0  0.00000000000E+00  0.00000000000E+00  0.17925764081E+04  0.17925764081E+04  0.00000000000E+00 0. -1.
         -2   -1    0    0    0  501 -0.00000000000E+00 -0.00000000000E+00 -0.20394330102E+03  0.20394330102E+03  0.00000000000E+00 0.  1.
         23    2    1    2    0    0 -0.17039206919E+03  0.34766757525E+03  0.15580720988E+04  0.16081382274E+04  0.92809983812E+02 0.  0.
         11    1    3    3    0    0 -0.27004222031E+02  0.15003378948E+03  0.66879028341E+03  0.68594446508E+03  0.00000000000E+00 0.  1.
        -11    1    3    3    0    0 -0.14338784715E+03  0.19763378577E+03  0.88928181544E+03  0.92219376232E+03  0.00000000000E+00 0. -1.
         22    1    1    2    0    0  0.17039206919E+03 -0.34766757525E+03  0.30561008225E+02  0.38838148172E+03  0.00000000000E+00 0.  1.
<mgrwt>
<rscale>  0 0.12092708E+04</rscale>
<asrwt>0</asrwt>
<pdfrwt beam="1">  1        2 0.27578098E+00 0.12092708E+04</pdfrwt>
<pdfrwt beam="2">  1       -2 0.31375894E-01 0.12092708E+04</pdfrwt>
<totfact> 0.81001597E+01</totfact>
</mgrwt>
</event>
<event>
 6    1  0.8968082E-007  0.3073935E+04  0.7818608E-02  0.8222928E-01
         -1   -1    0    0    0  501 -0.00000000000E+00  0.00000000000E+00  0.76037969827E+03  0.76037969827E+03  0.00000000000E+00 0.  1.
          1   -1    0    0  501    0  0.00000000000E+00 -0.00000000000E+00 -0.31066975202E+04  0.31066975202E+04  0.00000000000E+00 0. -1.
         23    2    1    2    0    0 -0.14304076857E+04  0.34929800417E+03 -0.17224124754E+04  0.22679108343E+04  0.92949307451E+02 0.  0.
         13    1    3    3    0    0 -0.51606691764E+03  0.93128956230E+02 -0.66088539608E+03  0.84366318678E+03  0.00000000000E+00 0. -1.
        -13    1    3    3    0    0 -0.91434076804E+03  0.25616904794E+03 -0.10615270794E+04  0.14242476475E+04  0.00000000000E+00 0.  1.
         22    1    1    2    0    0  0.14304076857E+04 -0.34929800417E+03 -0.62390534652E+03  0.15991663842E+04  0.00000000000E+00 0.  1.
<mgrwt>
<rscale>  0 0.30739354E+04</rscale>
<asrwt>0</asrwt>
<pdfrwt beam="1">  1        1 0.47795346E+00 0.30739354E+04</pdfrwt>
<pdfrwt beam="2">  1       -1 0.11698149E+00 0.30739354E+04</pdfrwt>
<totfact> 0.27770514E-01</totfact>
</mgrwt>
</event>
<event>
 6    1  0.8968082E-007  0.4817861E+04  0.7818608E-02  0.7857235E-01
          1   -1    0    0  501    0  0.00000000000E+00  0.00000000000E+00  0.30896451654E+04  0.30896451654E+04  0.00000000000E+00 0. -1.
         -1   -1    0    0    0  501 -0.00000000000E+00 -0.00000000000E+00 -0.18781914558E+04  0.18781914558E+04  0.00000000000E+00 0.  1.
         23    2    1    2    0    0 -0.99041438206E+03 -0.12751200248E+04  0.24481368883E+04  0.29340625406E+04  0.92179403850E+02 0.  0.
         11    1    3    3    0    0 -0.36467905647E+03 -0.41964575604E+03  0.89981069230E+03  0.10577110460E+04  0.00000000000E+00 0.  1.
        -11    1    3    3    0    0 -0.62573532559E+03 -0.85547426877E+03  0.15483261960E+04  0.18763514947E+04  0.00000000000E+00 0. -1.
         22    1    1    2    0    0  0.99041438206E+03  0.12751200248E+04 -0.12366831788E+04  0.20337740805E+04  0.00000000000E+00 0.  1.
<mgrwt>
<rscale>  0 0.48178606E+04</rscale>
<asrwt>0</asrwt>
<pdfrwt beam="1">  1        1 0.47533002E+00 0.48178606E+04</pdfrwt>
<pdfrwt beam="2">  1       -1 0.28895253E+00 0.48178606E+04</pdfrwt>
<totfact> 0.14647400E-02</totfact>
</mgrwt>
</event>
<event>
 6    1  0.9650475E-007  0.4634871E+04  0.7818608E-02  0.7887441E-01
         -2   -1    0    0    0  501 -0.00000000000E+00  0.00000000000E+00  0.18223834695E+04  0.18223834695E+04  0.00000000000E+00 0.  1.
          2   -1    0    0  501    0  0.00000000000E+00 -0.00000000000E+00 -0.29469690045E+04  0.29469690045E+04  0.00000000000E+00 0. -1.
         23    2    1    2    0    0 -0.11510565275E+04  0.31734329196E+03  0.14801885879E+04  0.19039578892E+04  0.91975505067E+02 0.  0.
         13    1    3    3    0    0 -0.61852040962E+03  0.16712168464E+03  0.72120493816E+03  0.96469358733E+03  0.00000000000E+00 0.  1.
        -13    1    3    3    0    0 -0.53253611789E+03  0.15022160733E+03  0.75898364978E+03  0.93926430189E+03  0.00000000000E+00 0. -1.
         22    1    1    2    0    0  0.11510565275E+04 -0.31734329196E+03 -0.26047741230E+04  0.28653945847E+04  0.00000000000E+00 0. -1.
<mgrwt>
<rscale>  0 0.46348711E+04</rscale>
<asrwt>0</asrwt>
<pdfrwt beam="1">  1        2 0.45337984E+00 0.46348711E+04</pdfrwt>
<pdfrwt beam="2">  1       -2 0.28036669E+00 0.46348711E+04</pdfrwt>
<totfact> 0.58979920E-02</totfact>
</mgrwt>
</event>
<event>
 6    1  0.8968082E-007  0.2892336E+04  0.7818608E-02  0.8275162E-01
         -2   -1    0    0    0  501 -0.00000000000E+00  0.00000000000E+00  0.19218187048E+04  0.19218187048E+04  0.00000000000E+00 0.  1.
          2   -1    0    0  501    0  0.00000000000E+00 -0.00000000000E+00 -0.10882406620E+04  0.10882406620E+04  0.00000000000E+00 0. -1.
         23    2    1    2    0    0  0.78542327189E+03  0.14292435630E+03  0.16703321417E+04  0.18535670366E+04  0.91565320205E+02 0.  0.
         13    1    3    3    0    0  0.59484801177E+03  0.11091347530E+03  0.13509247585E+04  0.14802512149E+04  0.00000000000E+00 0.  1.
        -13    1    3    3    0    0  0.19057526012E+03  0.32010881006E+02  0.31940738325E+03  0.37331582172E+03  0.00000000000E+00 0. -1.
         22    1    1    2    0    0 -0.78542327189E+03 -0.14292435630E+03 -0.83675409890E+03  0.11564923301E+04  0.00000000000E+00 0. -1.
<mgrwt>
<rscale>  0 0.28923356E+04</rscale>
<asrwt>0</asrwt>
<pdfrwt beam="1">  1        2 0.16742164E+00 0.28923356E+04</pdfrwt>
<pdfrwt beam="2">  1       -2 0.29566442E+00 0.28923356E+04</pdfrwt>
<totfact> 0.64639063E-01</totfact>
</mgrwt>
</event>
<event>
 6    1  0.8968082E-007  0.6260529E+04  0.7818608E-02  0.7658913E-01
          2   -1    0    0  501    0  0.00000000000E+00  0.00000000000E+00  0.37589442373E+04  0.37589442373E+04  0.00000000000E+00 0. -1.
         -2   -1    0    0    0  501 -0.00000000000E+00 -0.00000000000E+00 -0.26067308968E+04  0.26067308968E+04  0.00000000000E+00 0.  1.
         23    2    1    2    0    0  0.26508814154E+04  0.16450631759E+04  0.82756370524E+03  0.32289885835E+04  0.90002526358E+02 0.  0.
         11    1    3    3    0    0  0.19722634435E+04  0.12557854883E+04  0.64905670860E+03  0.24265396956E+04  0.00000000000E+00 0. -1.
        -11    1    3    3    0    0  0.67861797188E+03  0.38927768757E+03  0.17850699664E+03  0.80244888787E+03  0.00000000000E+00 0.  1.
         22    1    1    2    0    0 -0.26508814154E+04 -0.16450631759E+04  0.32464963526E+03  0.31366865506E+04  0.00000000000E+00 0. -1.
<mgrwt>
<rscale>  0 0.62605291E+04</rscale>
<asrwt>0</asrwt>
<pdfrwt beam="1">  1        2 0.57829911E+00 0.62605291E+04</pdfrwt>
<pdfrwt beam="2">  1       -2 0.40103552E+00 0.62605291E+04</pdfrwt>
<totfact> 0.25376277E-03</totfact>
</mgrwt>
</event>
<event>
 6    1  0.8968082E-007  0.1212912E+04  0.7818608E-02  0.9101629E-01
          1   -1    0    0  501    0  0.00000000000E+00  0.00000000000E+00  0.17798379762E+04  0.17798379762E+04  0.00000000000E+00 0. -1.
         -1   -1    0    0    0  501 -0.00000000000E+00 -0.00000000000E+00 -0.20664177817E+03  0.20664177817E+03  0.00000000000E+00 0.  1.
         23    2    1    2    0    0  0.47598180133E+02 -0.53895253693E+03  0.35538485014E+03  0.65388833054E+03  0.92391197054E+02 0.  0.
         11    1    3    3    0    0  0.30841661950E+00 -0.29996295462E+03  0.24082249775E+03  0.38467303608E+03  0.00000000000E+00 0. -1.
        -11    1    3    3    0    0  0.47289763513E+02 -0.23898958231E+03  0.11456235239E+03  0.26921529446E+03  0.00000000000E+00 0.  1.
         22    1    1    2    0    0 -0.47598180133E+02  0.53895253693E+03  0.12178113479E+04  0.13325914239E+04  0.00000000000E+00 0. -1.
<mgrwt>
<rscale>  0 0.12129120E+04</rscale>
<asrwt>0</asrwt>
<pdfrwt beam="1">  1        1 0.27382122E+00 0.12129120E+04</pdfrwt>
<pdfrwt beam="2">  1       -1 0.31791044E-01 0.12129120E+04</pdfrwt>
<totfact> 0.38322115E+01</totfact>
</mgrwt>
</event>
<event>
 6    1  0.8968082E-007  0.3048683E+04  0.7818608E-02  0.8229964E-01
         -1   -1    0    0    0  501 -0.00000000000E+00  0.00000000000E+00  0.10315702898E+04  0.10315702898E+04  0.00000000000E+00 0.  1.
          1   -1    0    0  501    0  0.00000000000E+00 -0.00000000000E+00 -0.22525041144E+04  0.22525041144E+04  0.00000000000E+00 0. -1.
         23    2    1    2    0    0  0.14630363239E+03 -0.40596262280E+03 -0.21843261147E+04  0.22284536823E+04  0.92275861811E+02 0.  0.
         11    1    3    3    0    0 -0.99687462642E+01 -0.69400734809E+02 -0.36399444941E+03  0.37068557713E+03  0.00000000000E+00 0. -1.
        -11    1    3    3    0    0  0.15627237866E+03 -0.33656188799E+03 -0.18203316653E+04  0.18577681052E+04  0.00000000000E+00 0.  1.
         22    1    1    2    0    0 -0.14630363239E+03  0.40596262280E+03  0.96339229012E+03  0.10556207220E+04  0.00000000000E+00 0.  1.
<mgrwt>
<rscale>  0 0.30486825E+04</rscale>
<asrwt>0</asrwt>
<pdfrwt beam="1">  1        1 0.34653909E+00 0.30486825E+04</pdfrwt>
<pdfrwt beam="2">  1       -1 0.15870312E+00 0.30486825E+04</pdfrwt>
<totfact> 0.50813295E-01</totfact>
</mgrwt>
</event>
<event>
 6    1  0.8968082E-007  0.2820530E+04  0.7818608E-02  0.8296923E-01
         -2   -1    0    0    0  501 -0.00000000000E+00  0.00000000000E+00  0.88898448343E+03  0.88898448343E+03  0.00000000000E+00 0.  1.
          2   -1    0    0  501    0  0.00000000000E+00 -0.00000000000E+00 -0.22372127737E+04  0.22372127737E+04  0.00000000000E+00 0. -1.
         23    2    1    2    0    0 -0.26390066374E+03  0.31785029192E+03 -0.21676384787E+04  0.22085342334E+04  0.91074242120E+02 0.  0.
         11    1    3    3    0    0 -0.25007121462E+03  0.30019169115E+03 -0.18882900083E+04  0.19282867575E+04  0.00000000000E+00 0.  1.
        -11    1    3    3    0    0 -0.13829449119E+02  0.17658600763E+02 -0.27934847038E+03  0.28024747590E+03  0.00000000000E+00 0. -1.
         22    1    1    2    0    0  0.26390066374E+03 -0.31785029192E+03  0.81941018835E+03  0.91766302376E+03  0.00000000000E+00 0.  1.
<mgrwt>
<rscale>  0 0.28205301E+04</rscale>
<asrwt>0</asrwt>
<pdfrwt beam="1">  1        2 0.34418658E+00 0.28205301E+04</pdfrwt>
<pdfrwt beam="2">  1       -2 0.13676684E+00 0.28205301E+04</pdfrwt>
<totfact> 0.16308834E+00</totfact>
</mgrwt>
</event>
<event>
 6    1  0.8968082E-007  0.1414174E+04  0.7818608E-02  0.8943622E-01
         -1   -1    0    0    0  501 -0.00000000000E+00  0.00000000000E+00  0.15387114662E+03  0.15387114662E+03  0.00000000000E+00 0.  1.
          1   -1    0    0  501    0  0.00000000000E+00 -0.00000000000E+00 -0.32492884367E+04  0.32492884367E+04  0.00000000000E+00 0. -1.
         23    2    1    2    0    0  0.22804948251E+03  0.10325540356E+03 -0.31379457528E+04  0.31492365341E+04  0.91208305637E+02 0.  0.
         13    1    3    3    0    0  0.99811092072E+02  0.23001553142E+02 -0.82233809305E+03  0.82869250318E+03  0.00000000000E+00 0. -1.
        -13    1    3    3    0    0  0.12823839043E+03  0.80253850420E+02 -0.23156076598E+04  0.23205440309E+04  0.00000000000E+00 0.  1.
         22    1    1    2    0    0 -0.22804948251E+03 -0.10325540356E+03  0.42528462678E+02  0.25392304932E+03  0.00000000000E+00 0.  1.
<mgrwt>
<rscale>  0 0.14141736E+04</rscale>
<asrwt>0</asrwt>
<pdfrwt beam="1">  1        1 0.49989050E+00 0.14141736E+04</pdfrwt>
<pdfrwt beam="2">  1       -1 0.23672485E-01 0.14141736E+04</pdfrwt>
<totfact> 0.59074889E+00</totfact>
</mgrwt>
</event>
<event>
 6    1  0.8968082E-007  0.1495113E+04  0.7818608E-02  0.8887709E-01
          1   -1    0    0  501    0  0.00000000000E+00  0.00000000000E+00  0.16783971085E+04  0.16783971085E+04  0.00000000000E+00 0. -1.
         -1   -1    0    0    0  501 -0.00000000000E+00 -0.00000000000E+00 -0.33296101013E+03  0.33296101013E+03  0.00000000000E+00 0.  1.
         23    2    1    2    0    0 -0.44908680256E+03  0.14139875445E+03  0.14515817367E+04  0.15287200964E+04  0.90680928919E+02 0.  0.
         13    1    3    3    0    0 -0.13491191524E+03  0.42414608294E+02  0.31339406921E+03  0.34382563384E+03  0.00000000000E+00 0.  1.
        -13    1    3    3    0    0 -0.31417488732E+03  0.98984146157E+02  0.11381876674E+04  0.11848944625E+04  0.00000000000E+00 0. -1.
         22    1    1    2    0    0  0.44908680256E+03 -0.14139875445E+03 -0.10614563829E+03  0.48263802225E+03  0.00000000000E+00 0.  1.
<mgrwt>
<rscale>  0 0.14951131E+04</rscale>
<asrwt>0</asrwt>
<pdfrwt beam="1">  1        1 0.25821493E+00 0.14951131E+04</pdfrwt>
<pdfrwt beam="2">  1       -1 0.51224772E-01 0.14951131E+04</pdfrwt>
<totfact> 0.18287930E+01</totfact>
</mgrwt>
</event>
<event>
 6    1  0.8968082E-007  0.2837213E+04  0.7818608E-02  0.8291808E-01
         -2   -1    0    0    0  501 -0.00000000000E+00  0.00000000000E+00  0.15857640285E+04  0.15857640285E+04  0.00000000000E+00 0.  1.
          2   -1    0    0  501    0  0.00000000000E+00 -0.00000000000E+00 -0.12690690496E+04  0.12690690496E+04  0.00000000000E+00 0. -1.
         23    2    1    2    0    0 -0.52772683717E+03  0.47805103075E+03 -0.10743452142E+04  0.12921362997E+04  0.91488660240E+02 0.  0.
         13    1    3    3    0    0 -0.14523050642E+03  0.12355924994E+03 -0.36389290480E+03  0.41082457863E+03  0.00000000000E+00 0. -1.
        -13    1    3    3    0    0 -0.38249633075E+03  0.35449178080E+03 -0.71045230943E+03  0.88131172105E+03  0.00000000000E+00 0.  1.
         22    1    1    2    0    0  0.52772683717E+03 -0.47805103075E+03  0.13910401931E+04  0.15626967785E+04  0.00000000000E+00 0.  1.
<mgrwt>
<rscale>  0 0.28372128E+04</rscale>
<asrwt>0</asrwt>
<pdfrwt beam="1">  1        2 0.19524139E+00 0.28372128E+04</pdfrwt>
<pdfrwt beam="2">  1       -2 0.24396370E+00 0.28372128E+04</pdfrwt>
<totfact> 0.10468133E+00</totfact>
</mgrwt>
</event>
<event>
 6    1  0.8968082E-007  0.6209643E+03  0.7818608E-02  0.9862842E-01
         -1   -1    0    0    0  501 -0.00000000000E+00  0.00000000000E+00  0.19370574923E+03  0.19370574923E+03  0.00000000000E+00 0.  1.
          1   -1    0    0  501    0  0.00000000000E+00 -0.00000000000E+00 -0.49765771779E+03  0.49765771779E+03  0.00000000000E+00 0. -1.
         23    2    1    2    0    0 -0.97268067812E+02 -0.11791623192E+02  0.16476281495E+03  0.21251728328E+03  0.91742526189E+02 0.  0.
         11    1    3    3    0    0 -0.76672700782E+01 -0.39132510128E+02  0.59245080722E+02  0.71415124232E+02  0.00000000000E+00 0.  1.
        -11    1    3    3    0    0 -0.89600797734E+02  0.27340886936E+02  0.10551773422E+03  0.14110215905E+03  0.00000000000E+00 0. -1.
         22    1    1    2    0    0  0.97268067812E+02  0.11791623192E+02 -0.46871478351E+03  0.47884618373E+03  0.00000000000E+00 0. -1.
<mgrwt>
<rscale>  0 0.62096429E+03</rscale>
<asrwt>0</asrwt>
<pdfrwt beam="1">  1        1 0.76562725E-01 0.62096429E+03</pdfrwt>
<pdfrwt beam="2">  1       -1 0.29800885E-01 0.62096429E+03</pdfrwt>
<totfact> 0.46556481E+02</totfact>
</mgrwt>
</event>
<event>
 6    1  0.8968082E-007  0.1583262E+04  0.7818608E-02  0.8830897E-01
         -1   -1    0    0    0  501 -0.00000000000E+00  0.00000000000E+00  0.28622758042E+03  0.28622758042E+03  0.00000000000E+00 0.  1.
          1   -1    0    0  501    0  0.00000000000E+00 -0.00000000000E+00 -0.21894457006E+04  0.21894457006E+04  0.00000000000E+00 0. -1.
         23    2    1    2    0    0 -0.55884276409E+03 -0.11962781205E+03 -0.10295652384E+03  0.58687528661E+03  0.84891152919E+02 0.  0.
         13    1    3    3    0    0 -0.25589011161E+03 -0.97322702118E+02 -0.40565707831E+02  0.27676169211E+03  0.00000000000E+00 0. -1.
        -13    1    3    3    0    0 -0.30295265248E+03 -0.22305109932E+02 -0.62390816006E+02  0.31011359450E+03  0.00000000000E+00 0.  1.
         22    1    1    2    0    0  0.55884276409E+03  0.11962781205E+03 -0.18002615964E+04  0.18887979944E+04  0.00000000000E+00 0. -1.
<mgrwt>
<rscale>  0 0.15832621E+04</rscale>
<asrwt>0</asrwt>
<pdfrwt beam="1">  1        1 0.33683780E+00 0.15832621E+04</pdfrwt>
<pdfrwt beam="2">  1       -1 0.44035012E-01 0.15832621E+04</pdfrwt>
<totfact> 0.10863500E+01</totfact>
</mgrwt>
</event>
<event>
 6    1  0.8968082E-007  0.2621493E+04  0.7818608E-02  0.8360937E-01
         -1   -1    0    0    0  501 -0.00000000000E+00  0.00000000000E+00  0.43921440135E+03  0.43921440135E+03  0.00000000000E+00 0.  1.
          1   -1    0    0  501    0  0.00000000000E+00 -0.00000000000E+00 -0.39116573055E+04  0.39116573055E+04  0.00000000000E+00 0. -1.
         23    2    1    2    0    0  0.17442614354E+03 -0.73213939026E+03 -0.35159675122E+04  0.35969838121E+04  0.99057717391E+02 0.  0.
         13    1    3    3    0    0  0.16150582205E+03 -0.55247840130E+03 -0.28147670486E+04  0.28730175865E+04  0.00000000000E+00 0. -1.
        -13    1    3    3    0    0  0.12920321487E+02 -0.17966098895E+03 -0.70120046357E+03  0.72396622558E+03  0.00000000000E+00 0.  1.
         22    1    1    2    0    0 -0.17442614354E+03  0.73213939026E+03  0.43524608061E+02  0.75388789473E+03  0.00000000000E+00 0.  1.
<mgrwt>
<rscale>  0 0.26214929E+04</rscale>
<asrwt>0</asrwt>
<pdfrwt beam="1">  1        1 0.60179346E+00 0.26214929E+04</pdfrwt>
<pdfrwt beam="2">  1       -1 0.67571443E-01 0.26214929E+04</pdfrwt>
<totfact> 0.22364069E-01</totfact>
</mgrwt>
</event>
<event>
 6    1  0.8968082E-007  0.2285419E+04  0.7818608E-02  0.8483693E-01
         -2   -1    0    0    0  501 -0.00000000000E+00  0.00000000000E+00  0.35070006583E+03  0.35070006583E+03  0.00000000000E+00 0.  1.
          2   -1    0    0  501    0  0.00000000000E+00 -0.00000000000E+00 -0.37233656247E+04  0.37233656247E+04  0.00000000000E+00 0. -1.
         23    2    1    2    0    0 -0.15224980541E+03 -0.25128285194E+03 -0.36542028871E+04  0.36671426731E+04  0.91725514898E+02 0.  0.
         13    1    3    3    0    0 -0.49101845705E+02 -0.13706553579E+03 -0.22018755785E+04  0.22066839410E+04  0.00000000000E+00 0.  1.
        -13    1    3    3    0    0 -0.10314795971E+03 -0.11421731615E+03 -0.14523273086E+04  0.14604587321E+04  0.00000000000E+00 0. -1.
         22    1    1    2    0    0  0.15224980541E+03  0.25128285194E+03  0.28153732821E+03  0.40692301742E+03  0.00000000000E+00 0.  1.
<mgrwt>
<rscale>  0 0.22854186E+04</rscale>
<asrwt>0</asrwt>
<pdfrwt beam="1">  1        2 0.57282549E+00 0.22854186E+04</pdfrwt>
<pdfrwt beam="2">  1       -2 0.53953855E-01 0.22854186E+04</pdfrwt>
<totfact> 0.16539049E+00</totfact>
</mgrwt>
</event>
<event>
 6    1  0.8968082E-007  0.4190660E+04  0.7818608E-02  0.7967151E-01
         -2   -1    0    0    0  501 -0.00000000000E+00  0.00000000000E+00  0.18320759318E+04  0.18320759318E+04  0.00000000000E+00 0.  1.
          2   -1    0    0  501    0  0.00000000000E+00 -0.00000000000E+00 -0.23964115521E+04  0.23964115521E+04  0.00000000000E+00 0. -1.
         23    2    1    2    0    0  0.71946239099E+03 -0.13551438671E+04 -0.17207475919E+04  0.23072041417E+04  0.90430326757E+02 0.  0.
         13    1    3    3    0    0  0.55633281117E+03 -0.10122806608E+04 -0.12408489967E+04  0.16952653378E+04  0.00000000000E+00 0.  1.
        -13    1    3    3    0    0  0.16312957982E+03 -0.34286320628E+03 -0.47989859528E+03  0.61193880395E+03  0.00000000000E+00 0. -1.
         22    1    1    2    0    0 -0.71946239099E+03  0.13551438671E+04  0.11564119716E+04  0.19212833421E+04  0.00000000000E+00 0.  1.
<mgrwt>
<rscale>  0 0.41906601E+04</rscale>
<asrwt>0</asrwt>
<pdfrwt beam="1">  1        2 0.36867870E+00 0.41906601E+04</pdfrwt>
<pdfrwt beam="2">  1       -2 0.28185784E+00 0.41906601E+04</pdfrwt>
<totfact> 0.12731589E-01</totfact>
</mgrwt>
</event>
<event>
 6    1  0.8968082E-007  0.4779069E+04  0.7818608E-02  0.7863522E-01
          2   -1    0    0  501    0  0.00000000000E+00  0.00000000000E+00  0.21371502547E+04  0.21371502547E+04  0.00000000000E+00 0. -1.
         -2   -1    0    0    0  501 -0.00000000000E+00 -0.00000000000E+00 -0.26717240946E+04  0.26717240946E+04  0.00000000000E+00 0.  1.
         23    2    1    2    0    0  0.19501822366E+04 -0.97884755215E+03  0.70941192419E+03  0.22971311564E+04  0.11042185123E+03 0.  0.
         13    1    3    3    0    0  0.32885633457E+03 -0.12502791833E+03  0.13450304416E+03  0.37665572880E+03  0.00000000000E+00 0. -1.
        -13    1    3    3    0    0  0.16213259020E+04 -0.85381963382E+03  0.57490888003E+03  0.19204754276E+04  0.00000000000E+00 0.  1.
         22    1    1    2    0    0 -0.19501822366E+04  0.97884755215E+03 -0.12439857640E+04  0.25117431929E+04  0.00000000000E+00 0. -1.
<mgrwt>
<rscale>  0 0.47790693E+04</rscale>
<asrwt>0</asrwt>
<pdfrwt beam="1">  1        2 0.32879235E+00 0.47790693E+04</pdfrwt>
<pdfrwt beam="2">  1       -2 0.41103447E+00 0.47790693E+04</pdfrwt>
<totfact> 0.26089802E-02</totfact>
</mgrwt>
</event>
<event>
 6    1  0.9306249E-007  0.3182469E+04  0.7818608E-02  0.8193463E-01
          2   -1    0    0  501    0  0.00000000000E+00  0.00000000000E+00  0.28960830234E+04  0.28960830234E+04  0.00000000000E+00 0. -1.
         -2   -1    0    0    0  501 -0.00000000000E+00 -0.00000000000E+00 -0.87429349270E+03  0.87429349270E+03  0.00000000000E+00 0.  1.
         23    2    1    2    0    0 -0.11384846375E+04 -0.10780813431E+04  0.69876146228E+03  0.17188380880E+04  0.87921210849E+02 0.  0.
         11    1    3    3    0    0 -0.77768812242E+03 -0.68700843489E+03  0.48488728899E+03  0.11453798882E+04  0.00000000000E+00 0.  1.
        -11    1    3    3    0    0 -0.36079651507E+03 -0.39107290826E+03  0.21387417329E+03  0.57345819975E+03  0.00000000000E+00 0. -1.
         22    1    1    2    0    0  0.11384846375E+04  0.10780813431E+04  0.13230280684E+04  0.20515384281E+04  0.00000000000E+00 0. -1.
<mgrwt>
<rscale>  0 0.31824686E+04</rscale>
<asrwt>0</asrwt>
<pdfrwt beam="1">  1        2 0.44555123E+00 0.31824686E+04</pdfrwt>
<pdfrwt beam="2">  1       -2 0.13450669E+00 0.31824686E+04</pdfrwt>
<totfact> 0.67802942E-01</totfact>
</mgrwt>
</event>
<event>
 6    1  0.8968082E-007  0.1735852E+04  0.7818608E-02  0.8741177E-01
         -2   -1    0    0    0  501 -0.00000000000E+00  0.00000000000E+00  0.40158420164E+03  0.40158420164E+03  0.00000000000E+00 0.  1.
          2   -1    0    0  501    0  0.00000000000E+00 -0.00000000000E+00 -0.18758095563E+04  0.18758095563E+04  0.00000000000E+00 0. -1.
         23    2    1    2    0    0 -0.29474918292E+03  0.15388939407E+03  0.30921466682E+03  0.46322250453E+03  0.91664344710E+02 0.  0.
         11    1    3    3    0    0 -0.10968788277E+03  0.78688983525E+02  0.18123294910E+03  0.22598400296E+03  0.00000000000E+00 0. -1.
        -11    1    3    3    0    0 -0.18506130014E+03  0.75200410545E+02  0.12798171773E+03  0.23723850157E+03  0.00000000000E+00 0.  1.
         22    1    1    2    0    0  0.29474918292E+03 -0.15388939407E+03 -0.17834400215E+04  0.18141712534E+04  0.00000000000E+00 0. -1.
<mgrwt>
<rscale>  0 0.17358519E+04</rscale>
<asrwt>0</asrwt>
<pdfrwt beam="1">  1        2 0.28858609E+00 0.17358519E+04</pdfrwt>
<pdfrwt beam="2">  1       -2 0.61782185E-01 0.17358519E+04</pdfrwt>
<totfact> 0.18086305E+01</totfact>
</mgrwt>
</event>
<event>
 6    1  0.8968082E-007  0.2510320E+04  0.7818608E-02  0.8399318E-01
         -2   -1    0    0    0  501 -0.00000000000E+00  0.00000000000E+00  0.13036526874E+04  0.13036526874E+04  0.00000000000E+00 0.  1.
          2   -1    0    0  501    0  0.00000000000E+00 -0.00000000000E+00 -0.12084709873E+04  0.12084709873E+04  0.00000000000E+00 0. -1.
         23    2    1    2    0    0 -0.77329089156E+03  0.92977179314E+03 -0.28159142714E+03  0.12454696653E+04  0.97193441085E+02 0.  0.
         11    1    3    3    0    0 -0.76231082810E+03  0.91807177916E+03 -0.26497091357E+03  0.12223678560E+04  0.00000000000E+00 0.  1.
        -11    1    3    3    0    0 -0.10980063460E+02  0.11700013981E+02 -0.16620513569E+02  0.23101809281E+02  0.00000000000E+00 0. -1.
         22    1    1    2    0    0  0.77329089156E+03 -0.92977179314E+03  0.37677312716E+03  0.12666540094E+04  0.00000000000E+00 0.  1.
<mgrwt>
<rscale>  0 0.25103199E+04</rscale>
<asrwt>0</asrwt>
<pdfrwt beam="1">  1        2 0.18591861E+00 0.25103199E+04</pdfrwt>
<pdfrwt beam="2">  1       -2 0.20056195E+00 0.25103199E+04</pdfrwt>
<totfact> 0.21999979E+00</totfact>
</mgrwt>
</event>
<event>
 6    1  0.8968082E-007  0.2912214E+04  0.7818608E-02  0.8269253E-01
         -2   -1    0    0    0  501 -0.00000000000E+00  0.00000000000E+00  0.11496908340E+04  0.11496908340E+04  0.00000000000E+00 0.  1.
          2   -1    0    0  501    0  0.00000000000E+00 -0.00000000000E+00 -0.18441888401E+04  0.18441888401E+04  0.00000000000E+00 0. -1.
         23    2    1    2    0    0  0.62198422851E+03 -0.25924127161E+03  0.97768495331E+03  0.11910301887E+04  0.92815004349E+02 0.  0.
         11    1    3    3    0    0  0.23770869274E+03 -0.50934775148E+02  0.35074303921E+03  0.42675573045E+03  0.00000000000E+00 0. -1.
        -11    1    3    3    0    0  0.38427553577E+03 -0.20830649646E+03  0.62694191410E+03  0.76427445824E+03  0.00000000000E+00 0.  1.
         22    1    1    2    0    0 -0.62198422851E+03  0.25924127161E+03 -0.16721829594E+04  0.18028494854E+04  0.00000000000E+00 0. -1.
<mgrwt>
<rscale>  0 0.29122136E+04</rscale>
<asrwt>0</asrwt>
<pdfrwt beam="1">  1        2 0.28372136E+00 0.29122136E+04</pdfrwt>
<pdfrwt beam="2">  1       -2 0.17687551E+00 0.29122136E+04</pdfrwt>
<totfact> 0.13404824E+00</totfact>
</mgrwt>
</event>
<event>
 6    1  0.8968082E-007  0.1895725E+04  0.7818608E-02  0.8656987E-01
         -2   -1    0    0    0  501 -0.00000000000E+00  0.00000000000E+00  0.18957196771E+04  0.18957196771E+04  0.00000000000E+00 0.  1.
          2   -1    0    0  501    0  0.00000000000E+00 -0.00000000000E+00 -0.47393266538E+03  0.47393266538E+03  0.00000000000E+00 0. -1.
         23    2    1    2    0    0  0.75699858970E+03  0.44634803063E+03  0.11491721559E+04  0.14495478436E+04  0.91207882613E+02 0.  0.
         13    1    3    3    0    0  0.28504260940E+03  0.17080757452E+03  0.50850952547E+03  0.60745901441E+03  0.00000000000E+00 0. -1.
        -13    1    3    3    0    0  0.47195598029E+03  0.27554045611E+03  0.64066263041E+03  0.84208882922E+03  0.00000000000E+00 0.  1.
         22    1    1    2    0    0 -0.75699858970E+03 -0.44634803063E+03  0.27261485589E+03  0.92010449890E+03  0.00000000000E+00 0.  1.
<mgrwt>
<rscale>  0 0.18957252E+04</rscale>
<asrwt>0</asrwt>
<pdfrwt beam="1">  1        2 0.72912719E-01 0.18957252E+04</pdfrwt>
<pdfrwt beam="2">  1       -2 0.29164918E+00 0.18957252E+04</pdfrwt>
<totfact> 0.21970128E+00</totfact>
</mgrwt>
</event>
<event>
 6    1  0.8968082E-007  0.7429389E+03  0.7818608E-02  0.9646494E-01
          2   -1    0    0  501    0  0.00000000000E+00  0.00000000000E+00  0.85173109990E+03  0.85173109990E+03  0.00000000000E+00 0. -1.
         -2   -1    0    0    0  501 -0.00000000000E+00 -0.00000000000E+00 -0.16201068153E+03  0.16201068153E+03  0.00000000000E+00 0.  1.
         23    2    1    2    0    0  0.32510248528E+02 -0.26511587912E+03  0.69113242155E+03  0.74663629783E+03  0.91969513932E+02 0.  0.
         13    1    3    3    0    0 -0.16312959245E+02 -0.13665349365E+03  0.43091863686E+03  0.45236175962E+03  0.00000000000E+00 0. -1.
        -13    1    3    3    0    0  0.48823207774E+02 -0.12846238547E+03  0.26021378469E+03  0.29427453821E+03  0.00000000000E+00 0.  1.
         22    1    1    2    0    0 -0.32510248528E+02  0.26511587912E+03 -0.14120031860E+01  0.26710548361E+03  0.00000000000E+00 0.  1.
<mgrwt>
<rscale>  0 0.74293886E+03</rscale>
<asrwt>0</asrwt>
<pdfrwt beam="1">  1        2 0.13103555E+00 0.74293886E+03</pdfrwt>
<pdfrwt beam="2">  1       -2 0.24924721E-01 0.74293886E+03</pdfrwt>
<totfact> 0.45869024E+02</totfact>
</mgrwt>
</event>
<event>
 6    1  0.8968082E-007  0.7218505E+03  0.7818608E-02  0.9680578E-01
         -2   -1    0    0    0  501 -0.00000000000E+00  0.00000000000E+00  0.50826236562E+02  0.50826236562E+02  0.00000000000E+00 0.  1.
          2   -1    0    0  501    0  0.00000000000E+00 -0.00000000000E+00 -0.25629881053E+04  0.25629881053E+04  0.00000000000E+00 0. -1.
         23    2    1    2    0    0  0.34343777928E+02  0.23173382713E+03 -0.22428114923E+04  0.22568413919E+04  0.90827399456E+02 0.  0.
         11    1    3    3    0    0 -0.21459865091E+02  0.15333344703E+03 -0.14260553659E+04  0.14344356306E+04  0.00000000000E+00 0. -1.
        -11    1    3    3    0    0  0.55803643018E+02  0.78400380100E+02 -0.81675612642E+03  0.82240576130E+03  0.00000000000E+00 0.  1.
         22    1    1    2    0    0 -0.34343777928E+02 -0.23173382713E+03 -0.26935037647E+03  0.35697294999E+03  0.00000000000E+00 0.  1.
<mgrwt>
<rscale>  0 0.72185051E+03</rscale>
<asrwt>0</asrwt>
<pdfrwt beam="1">  1        2 0.39430581E+00 0.72185051E+03</pdfrwt>
<pdfrwt beam="2">  1       -2 0.78194220E-02 0.72185051E+03</pdfrwt>
<totfact> 0.34041158E+02</totfact>
</mgrwt>
</event>
<event>
 6    1  0.8968082E-007  0.1931309E+04  0.7818608E-02  0.8639427E-01
          1   -1    0    0  501    0  0.00000000000E+00  0.00000000000E+00  0.12280215218E+04  0.12280215218E+04  0.00000000000E+00 0. -1.
         -1   -1    0    0    0  501 -0.00000000000E+00 -0.00000000000E+00 -0.75934242215E+03  0.75934242215E+03  0.00000000000E+00 0.  1.
         23    2    1    2    0    0  0.47675160263E+03  0.73691420627E+03 -0.17424924547E+03  0.89938807335E+03  0.90561961808E+02 0.  0.
         11    1    3    3    0    0  0.18631193345E+03  0.34560970120E+03 -0.11077953356E+03  0.40795870767E+03  0.00000000000E+00 0.  1.
        -11    1    3    3    0    0  0.29043966919E+03  0.39130450506E+03 -0.63469711912E+02  0.49142936568E+03  0.00000000000E+00 0. -1.
         22    1    1    2    0    0 -0.47675160263E+03 -0.73691420627E+03  0.64292834509E+03  0.10879758706E+04  0.00000000000E+00 0. -1.
<mgrwt>
<rscale>  0 0.19313092E+04</rscale>
<asrwt>0</asrwt>
<pdfrwt beam="1">  1        1 0.18892639E+00 0.19313092E+04</pdfrwt>
<pdfrwt beam="2">  1       -1 0.11682191E+00 0.19313092E+04</pdfrwt>
<totfact> 0.62872979E+00</totfact>
</mgrwt>
</event>
<event>
 6    1  0.8968082E-007  0.2864964E+04  0.7818608E-02  0.8283379E-01
          2   -1    0    0  501    0  0.00000000000E+00  0.00000000000E+00  0.89978073726E+03  0.89978073726E+03  0.00000000000E+00 0. -1.
         -2   -1    0    0    0  501 -0.00000000000E+00 -0.00000000000E+00 -0.22805607279E+04  0.22805607279E+04  0.00000000000E+00 0.  1.
         23    2    1    2    0    0  0.55701047687E+03  0.97318984792E+03 -0.16780862394E+04  0.20202767441E+04  0.90473997252E+02 0.  0.
         13    1    3    3    0    0  0.23212327972E+03  0.42825286382E+03 -0.65154663261E+03  0.81350768086E+03  0.00000000000E+00 0.  1.
        -13    1    3    3    0    0  0.32488719715E+03  0.54493698410E+03 -0.10265396068E+04  0.12067690632E+04  0.00000000000E+00 0. -1.
         22    1    1    2    0    0 -0.55701047687E+03 -0.97318984792E+03  0.29730624884E+03  0.11600647211E+04  0.00000000000E+00 0. -1.
<mgrwt>
<rscale>  0 0.28649640E+04</rscale>
<asrwt>0</asrwt>
<pdfrwt beam="1">  1        2 0.13842781E+00 0.28649640E+04</pdfrwt>
<pdfrwt beam="2">  1       -2 0.35085549E+00 0.28649640E+04</pdfrwt>
<totfact> 0.39005889E-01</totfact>
</mgrwt>
</event>
<event>
 6    1  0.8968082E-007  0.3633678E+04  0.7818608E-02  0.8082821E-01
         -2   -1    0    0    0  501 -0.00000000000E+00  0.00000000000E+00  0.15075902299E+04  0.15075902299E+04  0.00000000000E+00 0.  1.
          2   -1    0    0  501    0  0.00000000000E+00 -0.00000000000E+00 -0.21895233271E+04  0.21895233271E+04  0.00000000000E+00 0. -1.
         23    2    1    2    0    0 -0.17621842446E+03 -0.42577926071E+03 -0.21286321500E+04  0.21787990107E+04  0.61232239761E+02 0.  0.
         11    1    3    3    0    0 -0.10186649864E+03 -0.17130962556E+03 -0.96057833880E+03  0.98103746938E+03  0.00000000000E+00 0. -1.
        -11    1    3    3    0    0 -0.74351925822E+02 -0.25446963515E+03 -0.11680538112E+04  0.11977615413E+04  0.00000000000E+00 0.  1.
         22    1    1    2    0    0  0.17621842446E+03  0.42577926071E+03  0.14466990528E+04  0.15183145462E+04  0.00000000000E+00 0.  1.
<mgrwt>
<rscale>  0 0.36336780E+04</rscale>
<asrwt>0</asrwt>
<pdfrwt beam="1">  1        2 0.33684974E+00 0.36336780E+04</pdfrwt>
<pdfrwt beam="2">  1       -2 0.23193696E+00 0.36336780E+04</pdfrwt>
<totfact> 0.35376148E-01</totfact>
</mgrwt>
</event>
<event>
 6    1  0.8968082E-007  0.3109011E+04  0.7818608E-02  0.8213269E-01
          2   -1    0    0  501    0  0.00000000000E+00  0.00000000000E+00  0.22663660662E+04  0.22663660662E+04  0.00000000000E+00 0. -1.
         -2   -1    0    0    0  501 -0.00000000000E+00 -0.00000000000E+00 -0.10662387656E+04  0.10662387656E+04  0.00000000000E+00 0.  1.
         23    2    1    2    0    0 -0.11370226833E+04  0.49679983213E+03 -0.40108459686E+03  0.13068925629E+04  0.86421418668E+02 0.  0.
         11    1    3    3    0    0 -0.39821861272E+03  0.21093020377E+03 -0.12020726370E+03  0.46638975185E+03  0.00000000000E+00 0. -1.
        -11    1    3    3    0    0 -0.73880407057E+03  0.28586962836E+03 -0.28087733316E+03  0.84050281106E+03  0.00000000000E+00 0.  1.
         22    1    1    2    0    0  0.11370226833E+04 -0.49679983213E+03  0.16012118975E+04  0.20257122688E+04  0.00000000000E+00 0. -1.
<mgrwt>
<rscale>  0 0.31090110E+04</rscale>
<asrwt>0</asrwt>
<pdfrwt beam="1">  1        2 0.34867170E+00 0.31090110E+04</pdfrwt>
<pdfrwt beam="2">  1       -2 0.16403673E+00 0.31090110E+04</pdfrwt>
<totfact> 0.94552163E-01</totfact>
</mgrwt>
</event>
<event>
 6    1  0.8968082E-007  0.1132014E+04  0.7818608E-02  0.9174539E-01
          2   -1    0    0  501    0  0.00000000000E+00  0.00000000000E+00  0.12339443697E+04  0.12339443697E+04  0.00000000000E+00 0. -1.
         -2   -1    0    0    0  501 -0.00000000000E+00 -0.00000000000E+00 -0.25962592943E+03  0.25962592943E+03  0.00000000000E+00 0.  1.
         23    2    1    2    0    0 -0.55074997659E+03  0.54921079217E+02  0.62068256409E+03  0.83675967607E+03  0.92617754622E+02 0.  0.
         13    1    3    3    0    0 -0.23693405660E+03  0.69261801411E+02  0.28376858437E+03  0.37611109234E+03  0.00000000000E+00 0.  1.
        -13    1    3    3    0    0 -0.31381592000E+03 -0.14340722194E+02  0.33691397972E+03  0.46064858373E+03  0.00000000000E+00 0. -1.
         22    1    1    2    0    0  0.55074997659E+03 -0.54921079217E+02  0.35363587622E+03  0.65681062309E+03  0.00000000000E+00 0.  1.
<mgrwt>
<rscale>  0 0.11320141E+04</rscale>
<asrwt>0</asrwt>
<pdfrwt beam="1">  1        2 0.18983759E+00 0.11320141E+04</pdfrwt>
<pdfrwt beam="2">  1       -2 0.39942451E-01 0.11320141E+04</pdfrwt>
<totfact> 0.10617795E+02</totfact>
</mgrwt>
</event>
<event>
 6    1  0.8968082E-007  0.1440670E+04  0.7818608E-02  0.8924894E-01
          1   -1    0    0  501    0  0.00000000000E+00  0.00000000000E+00  0.55848699944E+03  0.55848699944E+03  0.00000000000E+00 0. -1.
         -1   -1    0    0    0  501 -0.00000000000E+00 -0.00000000000E+00 -0.92908672594E+03  0.92908672594E+03  0.00000000000E+00 0.  1.
         23    2    1    2    0    0  0.39315600931E+03 -0.54091148626E+03  0.83061080449E+02  0.67951122076E+03  0.87632599145E+02 0.  0.
         11    1    3    3    0    0  0.98095732507E+02 -0.12371523431E+03  0.56978810261E+02  0.16785355747E+03  0.00000000000E+00 0. -1.
        -11    1    3    3    0    0  0.29506027680E+03 -0.41719625195E+03  0.26082270187E+02  0.51165766329E+03  0.00000000000E+00 0.  1.
         22    1    1    2    0    0 -0.39315600931E+03  0.54091148626E+03 -0.45366080695E+03  0.80806250463E+03  0.00000000000E+00 0.  1.
<mgrwt>
<rscale>  0 0.14406705E+04</rscale>
<asrwt>0</asrwt>
<pdfrwt beam="1">  1        1 0.85921079E-01 0.14406705E+04</pdfrwt>
<pdfrwt beam="2">  1       -1 0.14293642E+00 0.14406705E+04</pdfrwt>
<totfact> 0.14644187E+01</totfact>
</mgrwt>
</event>
<event>
 6    1  0.8968082E-007  0.4904730E+04  0.7818608E-02  0.7843374E-01
          3   -1    0    0  501    0  0.00000000000E+00  0.00000000000E+00  0.15958063658E+04  0.15958063658E+04  0.00000000000E+00 0. -1.
         -3   -1    0    0    0  501 -0.00000000000E+00 -0.00000000000E+00 -0.37686869997E+04  0.37686869997E+04  0.00000000000E+00 0.  1.
         23    2    1    2    0    0 -0.62311402306E+03 -0.75923658828E+03 -0.35435227445E+04  0.36782635240E+04  0.91421163459E+02 0.  0.
         11    1    3    3    0    0 -0.26946606531E+03 -0.29455355140E+03 -0.15881876171E+04  0.16375938636E+04  0.00000000000E+00 0. -1.
        -11    1    3    3    0    0 -0.35364795774E+03 -0.46468303688E+03 -0.19553351274E+04  0.20406696605E+04  0.00000000000E+00 0.  1.
         22    1    1    2    0    0  0.62311402306E+03  0.75923658828E+03  0.13706421106E+04  0.16862298414E+04  0.00000000000E+00 0. -1.
<mgrwt>
<rscale>  0 0.49047302E+04</rscale>
<asrwt>0</asrwt>
<pdfrwt beam="1">  1        3 0.24550867E+00 0.49047302E+04</pdfrwt>
<pdfrwt beam="2">  1       -3 0.57979799E+00 0.49047302E+04</pdfrwt>
<totfact> 0.17106512E-04</totfact>
</mgrwt>
</event>
<event>
 6    1  0.8968082E-007  0.4752294E+04  0.7818608E-02  0.7867897E-01
          1   -1    0    0  501    0  0.00000000000E+00  0.00000000000E+00  0.37592801141E+04  0.37592801141E+04  0.00000000000E+00 0. -1.
         -1   -1    0    0    0  501 -0.00000000000E+00 -0.00000000000E+00 -0.15019028461E+04  0.15019028461E+04  0.00000000000E+00 0.  1.
         23    2    1    2    0    0  0.12666173522E+04 -0.11118107708E+03 -0.10919906891E+04  0.16785936088E+04  0.92477509292E+02 0.  0.
         13    1    3    3    0    0  0.32800820645E+03 -0.75572208185E+01 -0.23715766891E+03  0.40483361398E+03  0.00000000000E+00 0. -1.
        -13    1    3    3    0    0  0.93860914574E+03 -0.10362385626E+03 -0.85483302015E+03  0.12737599948E+04  0.00000000000E+00 0.  1.
         22    1    1    2    0    0 -0.12666173522E+04  0.11118107708E+03  0.33493679570E+04  0.35825893514E+04  0.00000000000E+00 0. -1.
<mgrwt>
<rscale>  0 0.47522936E+04</rscale>
<asrwt>0</asrwt>
<pdfrwt beam="1">  1        1 0.57835078E+00 0.47522936E+04</pdfrwt>
<pdfrwt beam="2">  1       -1 0.23106198E+00 0.47522936E+04</pdfrwt>
<totfact> 0.10516108E-02</totfact>
</mgrwt>
</event>
<event>
 6    1  0.8968082E-007  0.9576880E+03  0.7818608E-02  0.9356209E-01
          2   -1    0    0  501    0  0.00000000000E+00  0.00000000000E+00  0.16289566573E+04  0.16289566573E+04  0.00000000000E+00 0. -1.
         -2   -1    0    0    0  501 -0.00000000000E+00 -0.00000000000E+00 -0.14075976395E+03  0.14075976395E+03  0.00000000000E+00 0.  1.
         23    2    1    2    0    0  0.12616741803E+03  0.37682944847E+03  0.27125150590E+03  0.48953099460E+03  0.90247241578E+02 0.  0.
         11    1    3    3    0    0  0.48839100430E+02  0.27195125416E+03  0.19931101634E+03  0.34068698772E+03  0.00000000000E+00 0. -1.
        -11    1    3    3    0    0  0.77328317597E+02  0.10487819431E+03  0.71940489562E+02  0.14884400688E+03  0.00000000000E+00 0.  1.
         22    1    1    2    0    0 -0.12616741803E+03 -0.37682944847E+03  0.12169453875E+04  0.12801854267E+04  0.00000000000E+00 0. -1.
<mgrwt>
<rscale>  0 0.95768795E+03</rscale>
<asrwt>0</asrwt>
<pdfrwt beam="1">  1        2 0.25060870E+00 0.95768795E+03</pdfrwt>
<pdfrwt beam="2">  1       -2 0.21655349E-01 0.95768795E+03</pdfrwt>
<totfact> 0.19964842E+02</totfact>
</mgrwt>
</event>
<event>
 6    1  0.8968082E-007  0.2347282E+04  0.7818608E-02  0.8459508E-01
          1   -1    0    0  501    0  0.00000000000E+00  0.00000000000E+00  0.13271461651E+04  0.13271461651E+04  0.00000000000E+00 0. -1.
         -1   -1    0    0    0  501 -0.00000000000E+00 -0.00000000000E+00 -0.10378909861E+04  0.10378909861E+04  0.00000000000E+00 0.  1.
         23    2    1    2    0    0 -0.54659190551E+03  0.10030729904E+04 -0.11924935767E+03  0.11518619406E+04  0.87449331194E+02 0.  0.
         11    1    3    3    0    0 -0.20969759614E+03  0.40489299459E+03 -0.89624268342E+02  0.46469767416E+03  0.00000000000E+00 0. -1.
        -11    1    3    3    0    0 -0.33689430938E+03  0.59817999584E+03 -0.29625089327E+02  0.68716426641E+03  0.00000000000E+00 0.  1.
         22    1    1    2    0    0  0.54659190551E+03 -0.10030729904E+04  0.40850453667E+03  0.12131752107E+04  0.00000000000E+00 0.  1.
<mgrwt>
<rscale>  0 0.23472819E+04</rscale>
<asrwt>0</asrwt>
<pdfrwt beam="1">  1        1 0.20417633E+00 0.23472819E+04</pdfrwt>
<pdfrwt beam="2">  1       -1 0.15967554E+00 0.23472819E+04</pdfrwt>
<totfact> 0.22889522E+00</totfact>
</mgrwt>
</event>
<event>
 6    1  0.8968082E-007  0.2003771E+04  0.7818608E-02  0.8604860E-01
         -2   -1    0    0    0  501 -0.00000000000E+00  0.00000000000E+00  0.43119887651E+03  0.43119887651E+03  0.00000000000E+00 0.  1.
          2   -1    0    0  501    0  0.00000000000E+00 -0.00000000000E+00 -0.23278696457E+04  0.23278696457E+04  0.00000000000E+00 0. -1.
         23    2    1    2    0    0 -0.61970303185E+03  0.76578953955E+03 -0.11834622714E+04  0.15428728850E+04  0.96996520330E+02 0.  0.
         11    1    3    3    0    0 -0.38907612576E+03  0.44634422036E+03 -0.64380521822E+03  0.87469340554E+03  0.00000000000E+00 0.  1.
        -11    1    3    3    0    0 -0.23062690610E+03  0.31944531919E+03 -0.53965705316E+03  0.66817947948E+03  0.00000000000E+00 0. -1.
         22    1    1    2    0    0  0.61970303185E+03 -0.76578953955E+03 -0.71320849782E+03  0.12161956372E+04  0.00000000000E+00 0.  1.
<mgrwt>
<rscale>  0 0.20037712E+04</rscale>
<asrwt>0</asrwt>
<pdfrwt beam="1">  1        2 0.35813379E+00 0.20037712E+04</pdfrwt>
<pdfrwt beam="2">  1       -2 0.66338288E-01 0.20037712E+04</pdfrwt>
<totfact> 0.84837052E+00</totfact>
</mgrwt>
</event>
<event>
 6    1  0.8968082E-007  0.2727298E+04  0.7818608E-02  0.8326202E-01
         -1   -1    0    0    0  501 -0.00000000000E+00  0.00000000000E+00  0.14719181270E+04  0.14719181270E+04  0.00000000000E+00 0.  1.
          1   -1    0    0  501    0  0.00000000000E+00 -0.00000000000E+00 -0.12633442010E+04  0.12633442010E+04  0.00000000000E+00 0. -1.
         23    2    1    2    0    0 -0.66175059541E+03 -0.93895533966E+03  0.83853928349E+03  0.14251450310E+04  0.91319487987E+02 0.  0.
         13    1    3    3    0    0 -0.56198839830E+03 -0.75398164566E+03  0.71531646539E+03  0.11815231388E+04  0.00000000000E+00 0. -1.
        -13    1    3    3    0    0 -0.99762197118E+02 -0.18497369400E+03  0.12322281810E+03  0.24362189217E+03  0.00000000000E+00 0.  1.
         22    1    1    2    0    0  0.66175059541E+03  0.93895533966E+03 -0.62996535751E+03  0.13101172971E+04  0.00000000000E+00 0. -1.
<mgrwt>
<rscale>  0 0.27272985E+04</rscale>
<asrwt>0</asrwt>
<pdfrwt beam="1">  1        1 0.19436065E+00 0.27272985E+04</pdfrwt>
<pdfrwt beam="2">  1       -1 0.22644894E+00 0.27272985E+04</pdfrwt>
<totfact> 0.83441206E-01</totfact>
</mgrwt>
</event>
<event>
 6    1  0.8968082E-007  0.1641778E+04  0.7818608E-02  0.8795285E-01
         -1   -1    0    0    0  501 -0.00000000000E+00  0.00000000000E+00  0.35234381792E+03  0.35234381792E+03  0.00000000000E+00 0.  1.
          1   -1    0    0  501    0  0.00000000000E+00 -0.00000000000E+00 -0.19125039721E+04  0.19125039721E+04  0.00000000000E+00 0. -1.
         23    2    1    2    0    0 -0.36216650575E+03  0.53249127843E+03 -0.85528326367E+02  0.65573295039E+03  0.89213609544E+02 0.  0.
         11    1    3    3    0    0 -0.16826053885E+03  0.32269897997E+03 -0.60933464606E+02  0.36899746302E+03  0.00000000000E+00 0.  1.
        -11    1    3    3    0    0 -0.19390596690E+03  0.20979229846E+03 -0.24594861761E+02  0.28673548737E+03  0.00000000000E+00 0. -1.
         22    1    1    2    0    0  0.36216650575E+03 -0.53249127843E+03 -0.14746318278E+04  0.16091148396E+04  0.00000000000E+00 0. -1.
<mgrwt>
<rscale>  0 0.16417782E+04</rscale>
<asrwt>0</asrwt>
<pdfrwt beam="1">  1        1 0.29423138E+00 0.16417782E+04</pdfrwt>
<pdfrwt beam="2">  1       -1 0.54206741E-01 0.16417782E+04</pdfrwt>
<totfact> 0.11230379E+01</totfact>
</mgrwt>
</event>
<event>
 6    1  0.8968082E-007  0.1102165E+04  0.7818608E-02  0.9203084E-01
         -1   -1    0    0    0  501 -0.00000000000E+00  0.00000000000E+00  0.36196137451E+03  0.36196137451E+03  0.00000000000E+00 0.  1.
          1   -1    0    0  501    0  0.00000000000E+00 -0.00000000000E+00 -0.83901778827E+03  0.83901778827E+03  0.00000000000E+00 0. -1.
         23    2    1    2    0    0  0.31942539095E+03  0.41332057056E+03 -0.70146058293E+02  0.53882924636E+03  0.11202683966E+03 0.  0.
         11    1    3    3    0    0  0.53113464252E+02  0.14518402904E+03 -0.40168892458E+02  0.15972783819E+03  0.00000000000E+00 0.  1.
        -11    1    3    3    0    0  0.26631192670E+03  0.26813654152E+03 -0.29977165834E+02  0.37910140817E+03  0.00000000000E+00 0. -1.
         22    1    1    2    0    0 -0.31942539095E+03 -0.41332057056E+03 -0.40691035547E+03  0.66214991642E+03  0.00000000000E+00 0. -1.
<mgrwt>
<rscale>  0 0.11021652E+04</rscale>
<asrwt>0</asrwt>
<pdfrwt beam="1">  1        1 0.12907966E+00 0.11021652E+04</pdfrwt>
<pdfrwt beam="2">  1       -1 0.55686366E-01 0.11021652E+04</pdfrwt>
<totfact> 0.66484667E+01</totfact>
</mgrwt>
</event>
<event>
 6    1  0.8968082E-007  0.2114216E+04  0.7818608E-02  0.8555007E-01
         -2   -1    0    0    0  501 -0.00000000000E+00  0.00000000000E+00  0.60340208708E+03  0.60340208708E+03  0.00000000000E+00 0.  1.
          2   -1    0    0  501    0  0.00000000000E+00 -0.00000000000E+00 -0.18519621334E+04  0.18519621334E+04  0.00000000000E+00 0. -1.
         23    2    1    2    0    0 -0.27968796498E+03  0.74553796832E+03  0.17863225177E+03  0.82106618288E+03  0.90487431950E+02 0.  0.
         13    1    3    3    0    0 -0.22893918746E+03  0.59737913258E+03  0.10613366132E+03  0.64849004129E+03  0.00000000000E+00 0. -1.
        -13    1    3    3    0    0 -0.50748777520E+02  0.14815883574E+03  0.72498590449E+02  0.17257614159E+03  0.00000000000E+00 0.  1.
         22    1    1    2    0    0  0.27968796498E+03 -0.74553796832E+03 -0.14271922981E+04  0.16342980376E+04  0.00000000000E+00 0. -1.
<mgrwt>
<rscale>  0 0.21142165E+04</rscale>
<asrwt>0</asrwt>
<pdfrwt beam="1">  1        2 0.28491725E+00 0.21142165E+04</pdfrwt>
<pdfrwt beam="2">  1       -2 0.92831090E-01 0.21142165E+04</pdfrwt>
<totfact> 0.73100647E+00</totfact>
</mgrwt>
</event>
<event>
 6    1  0.8968082E-007  0.4045414E+04  0.7818608E-02  0.7995447E-01
         -2   -1    0    0    0  501 -0.00000000000E+00  0.00000000000E+00  0.76855021417E+03  0.76855021417E+03  0.00000000000E+00 0.  1.
          2   -1    0    0  501    0  0.00000000000E+00 -0.00000000000E+00 -0.53234576638E+04  0.53234576638E+04  0.00000000000E+00 0. -1.
         23    2    1    2    0    0 -0.12589935420E+04 -0.12745625879E+04 -0.36893796918E+04  0.41023564440E+04  0.90726810443E+02 0.  0.
         13    1    3    3    0    0 -0.46237523889E+03 -0.41810102390E+03 -0.12256389179E+04  0.13750600295E+04  0.00000000000E+00 0. -1.
        -13    1    3    3    0    0 -0.79661830307E+03 -0.85646156399E+03 -0.24637407739E+04  0.27272964145E+04  0.00000000000E+00 0.  1.
         22    1    1    2    0    0  0.12589935420E+04  0.12745625879E+04 -0.86552775783E+03  0.19896514340E+04  0.00000000000E+00 0.  1.
<mgrwt>
<rscale>  0 0.40454145E+04</rscale>
<asrwt>0</asrwt>
<pdfrwt beam="1">  1        2 0.81899350E+00 0.40454145E+04</pdfrwt>
<pdfrwt beam="2">  1       -2 0.11823849E+00 0.40454145E+04</pdfrwt>
<totfact> 0.51039305E-03</totfact>
</mgrwt>
</event>
<event>
 6    1  0.8968082E-007  0.9274597E+03  0.7818608E-02  0.9391892E-01
          2   -1    0    0  501    0  0.00000000000E+00  0.00000000000E+00  0.13004444226E+04  0.13004444226E+04  0.00000000000E+00 0. -1.
         -2   -1    0    0    0  501 -0.00000000000E+00 -0.00000000000E+00 -0.16536298610E+03  0.16536298610E+03  0.00000000000E+00 0.  1.
         23    2    1    2    0    0  0.36349246992E+03 -0.27884667655E+03  0.58425856357E+03  0.74936614659E+03  0.10153476173E+03 0.  0.
         11    1    3    3    0    0  0.11104953338E+03 -0.13180701649E+03  0.16689177502E+03  0.23991238615E+03  0.00000000000E+00 0. -1.
        -11    1    3    3    0    0  0.25244293654E+03 -0.14703966006E+03  0.41736678855E+03  0.50945376044E+03  0.00000000000E+00 0.  1.
         22    1    1    2    0    0 -0.36349246992E+03  0.27884667655E+03  0.55082287292E+03  0.71644126210E+03  0.00000000000E+00 0. -1.
<mgrwt>
<rscale>  0 0.92745970E+03</rscale>
<asrwt>0</asrwt>
<pdfrwt beam="1">  1        2 0.20006837E+00 0.92745970E+03</pdfrwt>
<pdfrwt beam="2">  1       -2 0.25440460E-01 0.92745970E+03</pdfrwt>
<totfact> 0.22966465E+02</totfact>
</mgrwt>
</event>
<event>
 6    1  0.8968082E-007  0.1699138E+04  0.7818608E-02  0.8761856E-01
          2   -1    0    0  501    0  0.00000000000E+00  0.00000000000E+00  0.19289949924E+04  0.19289949924E+04  0.00000000000E+00 0. -1.
         -2   -1    0    0    0  501 -0.00000000000E+00 -0.00000000000E+00 -0.37416755102E+03  0.37416755102E+03  0.00000000000E+00 0.  1.
         23    2    1    2    0    0 -0.27771243533E+03 -0.27366267528E+03  0.17989656807E+04  0.18431419608E+04  0.94230095654E+02 0.  0.
         13    1    3    3    0    0 -0.14187123106E+03 -0.20366027233E+03  0.10937454102E+04  0.11215542676E+04  0.00000000000E+00 0.  1.
        -13    1    3    3    0    0 -0.13584120426E+03 -0.70002402959E+02  0.70522027046E+03  0.72158769326E+03  0.00000000000E+00 0. -1.
         22    1    1    2    0    0  0.27771243533E+03  0.27366267528E+03 -0.24413823925E+03  0.46002058263E+03  0.00000000000E+00 0.  1.
<mgrwt>
<rscale>  0 0.16991378E+04</rscale>
<asrwt>0</asrwt>
<pdfrwt beam="1">  1        2 0.29676845E+00 0.16991378E+04</pdfrwt>
<pdfrwt beam="2">  1       -2 0.57564240E-01 0.16991378E+04</pdfrwt>
<totfact> 0.19680640E+01</totfact>
</mgrwt>
</event>
<event>
 6    1  0.8968082E-007  0.2388115E+04  0.7818608E-02  0.8443966E-01
         -1   -1    0    0    0  501 -0.00000000000E+00  0.00000000000E+00  0.96423558013E+03  0.96423558013E+03  0.00000000000E+00 0.  1.
          1   -1    0    0  501    0  0.00000000000E+00 -0.00000000000E+00 -0.14786568503E+04  0.14786568503E+04  0.00000000000E+00 0. -1.
         23    2    1    2    0    0 -0.60248122011E+03 -0.81784561379E+03 -0.89627574455E+03  0.13576883445E+04  0.90290430958E+02 0.  0.
         11    1    3    3    0    0 -0.29412189185E+03 -0.33078520911E+03 -0.41439553454E+03  0.60634165359E+03  0.00000000000E+00 0.  1.
        -11    1    3    3    0    0 -0.30835932826E+03 -0.48706040468E+03 -0.48188021002E+03  0.75134669091E+03  0.00000000000E+00 0. -1.
         22    1    1    2    0    0  0.60248122011E+03  0.81784561379E+03  0.38185447436E+03  0.10852040860E+04  0.00000000000E+00 0. -1.
<mgrwt>
<rscale>  0 0.23881152E+04</rscale>
<asrwt>0</asrwt>
<pdfrwt beam="1">  1        1 0.22748567E+00 0.23881152E+04</pdfrwt>
<pdfrwt beam="2">  1       -1 0.14834394E+00 0.23881152E+04</pdfrwt>
<totfact> 0.21829065E+00</totfact>
</mgrwt>
</event>
<event>
 6    1  0.8968082E-007  0.2141140E+04  0.7818608E-02  0.8543334E-01
          1   -1    0    0  501    0  0.00000000000E+00  0.00000000000E+00  0.23487677405E+04  0.23487677405E+04  0.00000000000E+00 0. -1.
         -1   -1    0    0    0  501 -0.00000000000E+00 -0.00000000000E+00 -0.48796667121E+03  0.48796667121E+03  0.00000000000E+00 0.  1.
         23    2    1    2    0    0  0.86063332134E+03 -0.61145004367E+03  0.11511807822E+04  0.15646802377E+04  0.91903118749E+02 0.  0.
         13    1    3    3    0    0  0.30459118441E+03 -0.19398583152E+03  0.33618076798E+03  0.49337997650E+03  0.00000000000E+00 0. -1.
        -13    1    3    3    0    0  0.55604213692E+03 -0.41746421215E+03  0.81500001424E+03  0.10713002612E+04  0.00000000000E+00 0.  1.
         22    1    1    2    0    0 -0.86063332134E+03  0.61145004367E+03  0.70962028702E+03  0.12720541739E+04  0.00000000000E+00 0. -1.
<mgrwt>
<rscale>  0 0.21411402E+04</rscale>
<asrwt>0</asrwt>
<pdfrwt beam="1">  1        1 0.36134887E+00 0.21411402E+04</pdfrwt>
<pdfrwt beam="2">  1       -1 0.75071797E-01 0.21411402E+04</pdfrwt>
<totfact> 0.28175235E+00</totfact>
</mgrwt>
</event>
<event>
 6    1  0.8968082E-007  0.3105465E+04  0.7818608E-02  0.8214240E-01
         -1   -1    0    0    0  501 -0.00000000000E+00  0.00000000000E+00  0.15497740172E+04  0.15497740172E+04  0.00000000000E+00 0.  1.
          1   -1    0    0  501    0  0.00000000000E+00 -0.00000000000E+00 -0.15556962198E+04  0.15556962198E+04  0.00000000000E+00 0. -1.
         23    2    1    2    0    0 -0.13296850710E+04  0.13888483230E+03 -0.79007050733E+03  0.15555541269E+04  0.90475691171E+02 0.  0.
         11    1    3    3    0    0 -0.55840824428E+03  0.13558924746E+02 -0.33246310473E+03  0.65002717461E+03  0.00000000000E+00 0.  1.
        -11    1    3    3    0    0 -0.77127682668E+03  0.12532590755E+03 -0.45760740260E+03  0.90552695232E+03  0.00000000000E+00 0. -1.
         22    1    1    2    0    0  0.13296850710E+04 -0.13888483230E+03  0.78414830465E+03  0.15499161101E+04  0.00000000000E+00 0.  1.
<mgrwt>
<rscale>  0 0.31054646E+04</rscale>
<asrwt>0</asrwt>
<pdfrwt beam="1">  1        1 0.23933788E+00 0.31054646E+04</pdfrwt>
<pdfrwt beam="2">  1       -1 0.23842677E+00 0.31054646E+04</pdfrwt>
<totfact> 0.41922204E-01</totfact>
</mgrwt>
</event>
<event>
 6    1  0.8968082E-007  0.2109371E+04  0.7818608E-02  0.8557126E-01
         -1   -1    0    0    0  501 -0.00000000000E+00  0.00000000000E+00  0.12342645280E+04  0.12342645280E+04  0.00000000000E+00 0.  1.
          1   -1    0    0  501    0  0.00000000000E+00 -0.00000000000E+00 -0.90123444712E+03  0.90123444712E+03  0.00000000000E+00 0. -1.
         23    2    1    2    0    0  0.55123615132E+03  0.89137553977E+03  0.26776567422E+03  0.10854175067E+04  0.89560371771E+02 0.  0.
         11    1    3    3    0    0  0.50100693512E+03  0.77939302112E+03  0.26057037943E+03  0.96247511814E+03  0.00000000000E+00 0. -1.
        -11    1    3    3    0    0  0.50229216208E+02  0.11198251865E+03  0.71952947924E+01  0.12294238859E+03  0.00000000000E+00 0.  1.
         22    1    1    2    0    0 -0.55123615132E+03 -0.89137553977E+03  0.65264406617E+02  0.10500814684E+04  0.00000000000E+00 0. -1.
<mgrwt>
<rscale>  0 0.21093712E+04</rscale>
<asrwt>0</asrwt>
<pdfrwt beam="1">  1        1 0.13865145E+00 0.21093712E+04</pdfrwt>
<pdfrwt beam="2">  1       -1 0.18988685E+00 0.21093712E+04</pdfrwt>
<totfact> 0.29530432E+00</totfact>
</mgrwt>
</event>
<event>
 6    1  0.8968082E-007  0.1904477E+04  0.7818608E-02  0.8652631E-01
          1   -1    0    0  501    0  0.00000000000E+00  0.00000000000E+00  0.16280845396E+04  0.16280845396E+04  0.00000000000E+00 0. -1.
         -1   -1    0    0    0  501 -0.00000000000E+00 -0.00000000000E+00 -0.55694793722E+03  0.55694793722E+03  0.00000000000E+00 0.  1.
         23    2    1    2    0    0 -0.83722909076E+03  0.24184080364E+03  0.96964215085E+03  0.13076838298E+04  0.10193906683E+03 0.  0.
         13    1    3    3    0    0 -0.41903724512E+03  0.97046643509E+02  0.54573711141E+03  0.69486636024E+03  0.00000000000E+00 0.  1.
        -13    1    3    3    0    0 -0.41819184563E+03  0.14479416014E+03  0.42390503944E+03  0.61281746959E+03  0.00000000000E+00 0. -1.
         22    1    1    2    0    0  0.83722909076E+03 -0.24184080364E+03  0.10149445155E+03  0.87734864701E+03  0.00000000000E+00 0.  1.
<mgrwt>
<rscale>  0 0.19044772E+04</rscale>
<asrwt>0</asrwt>
<pdfrwt beam="1">  1        1 0.25047454E+00 0.19044772E+04</pdfrwt>
<pdfrwt beam="2">  1       -1 0.85684299E-01 0.19044772E+04</pdfrwt>
<totfact> 0.67161164E+00</totfact>
</mgrwt>
</event>
<event>
 6    1  0.8968082E-007  0.2505191E+04  0.7818608E-02  0.8401139E-01
          1   -1    0    0  501    0  0.00000000000E+00  0.00000000000E+00  0.63908615418E+03  0.63908615418E+03  0.00000000000E+00 0. -1.
         -1   -1    0    0    0  501 -0.00000000000E+00 -0.00000000000E+00 -0.24550609450E+04  0.24550609450E+04  0.00000000000E+00 0.  1.
         23    2    1    2    0    0 -0.60963789957E+03 -0.10124947435E+04 -0.40297420675E+03  0.12520356409E+04  0.91657299606E+02 0.  0.
         13    1    3    3    0    0 -0.19749254235E+03 -0.26416076807E+03 -0.13837226429E+03  0.35767457164E+03  0.00000000000E+00 0. -1.
        -13    1    3    3    0    0 -0.41214535722E+03 -0.74833397541E+03 -0.26460194246E+03  0.89436106924E+03  0.00000000000E+00 0.  1.
         22    1    1    2    0    0  0.60963789957E+03  0.10124947435E+04 -0.14130005841E+04  0.18421114583E+04  0.00000000000E+00 0.  1.
<mgrwt>
<rscale>  0 0.25051910E+04</rscale>
<asrwt>0</asrwt>
<pdfrwt beam="1">  1        1 0.98320947E-01 0.25051910E+04</pdfrwt>
<pdfrwt beam="2">  1       -1 0.37770168E+00 0.25051910E+04</pdfrwt>
<totfact> 0.28127255E-01</totfact>
</mgrwt>
</event>
<event>
 6    1  0.8968082E-007  0.2736959E+04  0.7818608E-02  0.8323112E-01
         -1   -1    0    0    0  501 -0.00000000000E+00  0.00000000000E+00  0.14278224884E+04  0.14278224884E+04  0.00000000000E+00 0.  1.
          1   -1    0    0  501    0  0.00000000000E+00 -0.00000000000E+00 -0.13116030355E+04  0.13116030355E+04  0.00000000000E+00 0. -1.
         23    2    1    2    0    0 -0.87216350733E+03  0.16439198007E+03  0.10985706784E+04  0.14155267979E+04  0.95732301068E+02 0.  0.
         11    1    3    3    0    0 -0.37564064980E+03  0.23185395395E+02  0.45264901540E+03  0.58867188780E+03  0.00000000000E+00 0. -1.
        -11    1    3    3    0    0 -0.49652285752E+03  0.14120658467E+03  0.64592166299E+03  0.82685491008E+03  0.00000000000E+00 0.  1.
         22    1    1    2    0    0  0.87216350733E+03 -0.16439198007E+03 -0.98235122542E+03  0.13238987260E+04  0.00000000000E+00 0. -1.
<mgrwt>
<rscale>  0 0.27369591E+04</rscale>
<asrwt>0</asrwt>
<pdfrwt beam="1">  1        1 0.20178508E+00 0.27369591E+04</pdfrwt>
<pdfrwt beam="2">  1       -1 0.21966500E+00 0.27369591E+04</pdfrwt>
<totfact> 0.85449457E-01</totfact>
</mgrwt>
</event>
<event>
 6    1  0.8968082E-007  0.2104368E+04  0.7818608E-02  0.8559322E-01
          2   -1    0    0  501    0  0.00000000000E+00  0.00000000000E+00  0.19346231567E+04  0.19346231567E+04  0.00000000000E+00 0. -1.
         -2   -1    0    0    0  501 -0.00000000000E+00 -0.00000000000E+00 -0.57225176652E+03  0.57225176652E+03  0.00000000000E+00 0.  1.
         23    2    1    2    0    0 -0.27778718551E+03 -0.36291682762E+03 -0.44366662315E+03  0.64390749199E+03  0.94352750543E+02 0.  0.
         13    1    3    3    0    0 -0.60114513870E+02 -0.80624687729E+02 -0.48292746114E+02  0.11156291667E+03  0.00000000000E+00 0. -1.
        -13    1    3    3    0    0 -0.21767267164E+03 -0.28229213989E+03 -0.39537387704E+03  0.53234457532E+03  0.00000000000E+00 0.  1.
         22    1    1    2    0    0  0.27778718551E+03  0.36291682762E+03  0.18060380133E+04  0.18629674312E+04  0.00000000000E+00 0. -1.
<mgrwt>
<rscale>  0 0.21043683E+04</rscale>
<asrwt>0</asrwt>
<pdfrwt beam="1">  1        2 0.29763433E+00 0.21043683E+04</pdfrwt>
<pdfrwt beam="2">  1       -2 0.88038734E-01 0.21043683E+04</pdfrwt>
<totfact> 0.74401396E+00</totfact>
</mgrwt>
</event>
<event>
 6    1  0.8968082E-007  0.1591706E+04  0.7818608E-02  0.8825659E-01
          1   -1    0    0  501    0  0.00000000000E+00  0.00000000000E+00  0.72915637180E+03  0.72915637180E+03  0.00000000000E+00 0. -1.
         -1   -1    0    0    0  501 -0.00000000000E+00 -0.00000000000E+00 -0.86865085452E+03  0.86865085452E+03  0.00000000000E+00 0.  1.
         23    2    1    2    0    0  0.51183746553E+03 -0.48076968793E+03 -0.44055852045E+03  0.83376754229E+03  0.89215585429E+02 0.  0.
         13    1    3    3    0    0  0.17133821945E+03 -0.19870606405E+03 -0.12548272853E+03  0.29083810014E+03  0.00000000000E+00 0. -1.
        -13    1    3    3    0    0  0.34049924608E+03 -0.28206362388E+03 -0.31507579193E+03  0.54292944215E+03  0.00000000000E+00 0.  1.
         22    1    1    2    0    0 -0.51183746553E+03  0.48076968793E+03  0.30106403773E+03  0.76403968403E+03  0.00000000000E+00 0. -1.
<mgrwt>
<rscale>  0 0.15917064E+04</rscale>
<asrwt>0</asrwt>
<pdfrwt beam="1">  1        1 0.11217790E+00 0.15917064E+04</pdfrwt>
<pdfrwt beam="2">  1       -1 0.13363859E+00 0.15917064E+04</pdfrwt>
<totfact> 0.11618543E+01</totfact>
</mgrwt>
</event>
<event>
 6    1  0.8968082E-007  0.2011718E+04  0.7818608E-02  0.8601161E-01
          2   -1    0    0  501    0  0.00000000000E+00  0.00000000000E+00  0.17251942284E+04  0.17251942284E+04  0.00000000000E+00 0. -1.
         -2   -1    0    0    0  501 -0.00000000000E+00 -0.00000000000E+00 -0.58645728136E+03  0.58645728136E+03  0.00000000000E+00 0.  1.
         23    2    1    2    0    0  0.70424130570E+03 -0.22407796372E+03  0.13511450539E+04  0.15427016061E+04  0.90379965225E+02 0.  0.
         11    1    3    3    0    0  0.66553178479E+03 -0.23033153096E+03  0.12596316605E+04  0.14431413967E+04  0.00000000000E+00 0. -1.
        -11    1    3    3    0    0  0.38709520908E+02  0.62535672422E+01  0.91513393444E+02  0.99560209380E+02  0.00000000000E+00 0.  1.
         22    1    1    2    0    0 -0.70424130570E+03  0.22407796372E+03 -0.21240810691E+03  0.76894990368E+03  0.00000000000E+00 0.  1.
<mgrwt>
<rscale>  0 0.20117184E+04</rscale>
<asrwt>0</asrwt>
<pdfrwt beam="1">  1        2 0.26541449E+00 0.20117184E+04</pdfrwt>
<pdfrwt beam="2">  1       -2 0.90224198E-01 0.20117184E+04</pdfrwt>
<totfact> 0.92606209E+00</totfact>
</mgrwt>
</event>
<event>
 6    1  0.8968082E-007  0.1258071E+04  0.7818608E-02  0.9063493E-01
         -2   -1    0    0    0  501 -0.00000000000E+00  0.00000000000E+00  0.55757098783E+03  0.55757098783E+03  0.00000000000E+00 0.  1.
          2   -1    0    0  501    0  0.00000000000E+00 -0.00000000000E+00 -0.70965934145E+03  0.70965934145E+03  0.00000000000E+00 0. -1.
         23    2    1    2    0    0 -0.42850075524E+03 -0.45309262517E+03 -0.12706991231E+03  0.64310554477E+03  0.92369664216E+02 0.  0.
         13    1    3    3    0    0 -0.52062145993E+02 -0.10682863004E+03 -0.19184101881E+02  0.12037795897E+03  0.00000000000E+00 0.  1.
        -13    1    3    3    0    0 -0.37643860925E+03 -0.34626399513E+03 -0.10788581043E+03  0.52272758580E+03  0.00000000000E+00 0. -1.
         22    1    1    2    0    0  0.42850075524E+03  0.45309262517E+03 -0.25018441311E+02  0.62412478451E+03  0.00000000000E+00 0. -1.
<mgrwt>
<rscale>  0 0.12580707E+04</rscale>
<asrwt>0</asrwt>
<pdfrwt beam="1">  1        2 0.10917836E+00 0.12580707E+04</pdfrwt>
<pdfrwt beam="2">  1       -2 0.85780152E-01 0.12580707E+04</pdfrwt>
<totfact> 0.46726330E+01</totfact>
</mgrwt>
</event>
<event>
 6    1  0.8968082E-007  0.2048732E+04  0.7818608E-02  0.8584170E-01
         -1   -1    0    0    0  501 -0.00000000000E+00  0.00000000000E+00  0.54996381533E+03  0.54996381533E+03  0.00000000000E+00 0.  1.
          1   -1    0    0  501    0  0.00000000000E+00 -0.00000000000E+00 -0.19079912446E+04  0.19079912446E+04  0.00000000000E+00 0. -1.
         23    2    1    2    0    0  0.56081814793E+03 -0.83560811931E+03 -0.46442181904E+03  0.11121137206E+04  0.91385870692E+02 0.  0.
         13    1    3    3    0    0  0.27212028727E+03 -0.48510775875E+03 -0.26645664986E+03  0.61674803170E+03  0.00000000000E+00 0. -1.
        -13    1    3    3    0    0  0.28869786065E+03 -0.35050036056E+03 -0.19796516919E+03  0.49536568887E+03  0.00000000000E+00 0.  1.
         22    1    1    2    0    0 -0.56081814793E+03  0.83560811931E+03 -0.89360561021E+03  0.13458413393E+04  0.00000000000E+00 0. -1.
<mgrwt>
<rscale>  0 0.20487324E+04</rscale>
<asrwt>0</asrwt>
<pdfrwt beam="1">  1        1 0.29353712E+00 0.20487324E+04</pdfrwt>
<pdfrwt beam="2">  1       -1 0.84609817E-01 0.20487324E+04</pdfrwt>
<totfact> 0.43948579E+00</totfact>
</mgrwt>
</event>
<event>
 6    1  0.8968082E-007  0.2902816E+04  0.7818608E-02  0.8272040E-01
          1   -1    0    0  501    0  0.00000000000E+00  0.00000000000E+00  0.29053198189E+04  0.29053198189E+04  0.00000000000E+00 0. -1.
         -1   -1    0    0    0  501 -0.00000000000E+00 -0.00000000000E+00 -0.72507878741E+03  0.72507878741E+03  0.00000000000E+00 0.  1.
         23    2    1    2    0    0  0.13574982287E+03 -0.65437829726E+03  0.27005238403E+04  0.27834433705E+04  0.89938946915E+02 0.  0.
         13    1    3    3    0    0  0.11273338108E+02 -0.21663341210E+03  0.98266301637E+03  0.10063218805E+04  0.00000000000E+00 0. -1.
        -13    1    3    3    0    0  0.12447648477E+03 -0.43774488517E+03  0.17178608240E+04  0.17771214900E+04  0.00000000000E+00 0.  1.
         22    1    1    2    0    0 -0.13574982287E+03  0.65437829726E+03 -0.52028280883E+03  0.84695523583E+03  0.00000000000E+00 0.  1.
<mgrwt>
<rscale>  0 0.29028164E+04</rscale>
<asrwt>0</asrwt>
<pdfrwt beam="1">  1        1 0.44697227E+00 0.29028164E+04</pdfrwt>
<pdfrwt beam="2">  1       -1 0.11155058E+00 0.29028164E+04</pdfrwt>
<totfact> 0.44334237E-01</totfact>
</mgrwt>
</event>
<event>
 6    1  0.8968082E-007  0.9854207E+03  0.7818608E-02  0.9324681E-01
         -2   -1    0    0    0  501 -0.00000000000E+00  0.00000000000E+00  0.16563525389E+03  0.16563525389E+03  0.00000000000E+00 0.  1.
          2   -1    0    0  501    0  0.00000000000E+00 -0.00000000000E+00 -0.14656511880E+04  0.14656511880E+04  0.00000000000E+00 0. -1.
         23    2    1    2    0    0  0.87982529166E+02  0.32259585515E+03 -0.66799959930E+02  0.35354208163E+03  0.93384996858E+02 0.  0.
         11    1    3    3    0    0  0.67065560376E+02  0.83392789260E+02 -0.23178329123E+02  0.10949603477E+03  0.00000000000E+00 0.  1.
        -11    1    3    3    0    0  0.20916968791E+02  0.23920306589E+03 -0.43621630807E+02  0.24404604686E+03  0.00000000000E+00 0. -1.
         22    1    1    2    0    0 -0.87982529166E+02 -0.32259585515E+03 -0.12332159742E+04  0.12777443603E+04  0.00000000000E+00 0. -1.
<mgrwt>
<rscale>  0 0.98542074E+03</rscale>
<asrwt>0</asrwt>
<pdfrwt beam="1">  1        2 0.22548478E+00 0.98542074E+03</pdfrwt>
<pdfrwt beam="2">  1       -2 0.25482348E-01 0.98542074E+03</pdfrwt>
<totfact> 0.18360539E+02</totfact>
</mgrwt>
</event>
<event>
 6    1  0.8968082E-007  0.5894099E+03  0.7818608E-02  0.9927624E-01
          2   -1    0    0  501    0  0.00000000000E+00  0.00000000000E+00  0.74996966746E+03  0.74996966746E+03  0.00000000000E+00 0. -1.
         -2   -1    0    0    0  501 -0.00000000000E+00 -0.00000000000E+00 -0.11580601615E+03  0.11580601615E+03  0.00000000000E+00 0.  1.
         23    2    1    2    0    0 -0.21507567198E+03 -0.10811872907E+03  0.88057236257E+02  0.26896799196E+03  0.81501531196E+02 0.  0.
         11    1    3    3    0    0 -0.73020247353E+02 -0.51271847985E+02 -0.58950163928E+01  0.89417616484E+02  0.00000000000E+00 0.  1.
        -11    1    3    3    0    0 -0.14205542463E+03 -0.56846881083E+02  0.93952252649E+02  0.17955037548E+03  0.00000000000E+00 0. -1.
         22    1    1    2    0    0  0.21507567198E+03  0.10811872907E+03  0.54610641505E+03  0.59680769165E+03  0.00000000000E+00 0. -1.
<mgrwt>
<rscale>  0 0.58940987E+03</rscale>
<asrwt>0</asrwt>
<pdfrwt beam="1">  1        2 0.11537995E+00 0.58940987E+03</pdfrwt>
<pdfrwt beam="2">  1       -2 0.17816311E-01 0.58940987E+03</pdfrwt>
<totfact> 0.98359501E+02</totfact>
</mgrwt>
</event>
<event>
 6    1  0.8968082E-007  0.3165939E+04  0.7818608E-02  0.8197871E-01
         -2   -1    0    0    0  501 -0.00000000000E+00  0.00000000000E+00  0.18891502808E+04  0.18891502808E+04  0.00000000000E+00 0.  1.
          2   -1    0    0  501    0  0.00000000000E+00 -0.00000000000E+00 -0.13264126985E+04  0.13264126985E+04  0.00000000000E+00 0. -1.
         23    2    1    2    0    0 -0.82534709644E+03  0.10646026423E+04 -0.56036060987E+03  0.14617311274E+04  0.89873578634E+02 0.  0.
         11    1    3    3    0    0 -0.46510625953E+03  0.54649722864E+03 -0.33131003421E+03  0.79041090095E+03  0.00000000000E+00 0.  1.
        -11    1    3    3    0    0 -0.36024083691E+03  0.51810541369E+03 -0.22905057566E+03  0.67132022648E+03  0.00000000000E+00 0. -1.
         22    1    1    2    0    0  0.82534709644E+03 -0.10646026423E+04  0.11230981921E+04  0.17538318519E+04  0.00000000000E+00 0.  1.
<mgrwt>
<rscale>  0 0.31659393E+04</rscale>
<asrwt>0</asrwt>
<pdfrwt beam="1">  1        2 0.20406349E+00 0.31659393E+04</pdfrwt>
<pdfrwt beam="2">  1       -2 0.29063850E+00 0.31659393E+04</pdfrwt>
<totfact> 0.48855932E-01</totfact>
</mgrwt>
</event>
<event>
 6    1  0.8968082E-007  0.1885320E+04  0.7818608E-02  0.8662198E-01
          2   -1    0    0  501    0  0.00000000000E+00  0.00000000000E+00  0.86582496851E+03  0.86582496851E+03  0.00000000000E+00 0. -1.
         -2   -1    0    0    0  501 -0.00000000000E+00 -0.00000000000E+00 -0.10263132132E+04  0.10263132132E+04  0.00000000000E+00 0.  1.
         23    2    1    2    0    0  0.51765204038E+03  0.12136120450E+03  0.69814567050E+03  0.88221522565E+03  0.90576764446E+02 0.  0.
         13    1    3    3    0    0  0.19677448525E+03  0.66991186880E+02  0.33802211326E+03  0.39682107582E+03  0.00000000000E+00 0. -1.
        -13    1    3    3    0    0  0.32087755514E+03  0.54370017618E+02  0.36012355724E+03  0.48539414983E+03  0.00000000000E+00 0.  1.
         22    1    1    2    0    0 -0.51765204038E+03 -0.12136120450E+03 -0.85863391522E+03  0.10099229561E+04  0.00000000000E+00 0.  1.
<mgrwt>
<rscale>  0 0.18853197E+04</rscale>
<asrwt>0</asrwt>
<pdfrwt beam="1">  1        2 0.13320384E+00 0.18853197E+04</pdfrwt>
<pdfrwt beam="2">  1       -2 0.15789434E+00 0.18853197E+04</pdfrwt>
<totfact> 0.75743865E+00</totfact>
</mgrwt>
</event>
<event>
 6    1  0.8968082E-007  0.1867523E+04  0.7818608E-02  0.8671193E-01
          1   -1    0    0  501    0  0.00000000000E+00  0.00000000000E+00  0.98819571676E+03  0.98819571676E+03  0.00000000000E+00 0. -1.
         -1   -1    0    0    0  501 -0.00000000000E+00 -0.00000000000E+00 -0.88232535157E+03  0.88232535157E+03  0.00000000000E+00 0.  1.
         23    2    1    2    0    0  0.20338772231E+03  0.60948185228E+03 -0.62231010280E+03  0.89939724110E+03  0.93866071601E+02 0.  0.
         13    1    3    3    0    0  0.88917622960E+02  0.40786857811E+03 -0.39470010079E+03  0.57450090534E+03  0.00000000000E+00 0. -1.
        -13    1    3    3    0    0  0.11447009935E+03  0.20161327417E+03 -0.22761000202E+03  0.32489633575E+03  0.00000000000E+00 0.  1.
         22    1    1    2    0    0 -0.20338772231E+03 -0.60948185228E+03  0.72818046800E+03  0.97112382723E+03  0.00000000000E+00 0. -1.
<mgrwt>
<rscale>  0 0.18675226E+04</rscale>
<asrwt>0</asrwt>
<pdfrwt beam="1">  1        1 0.15203011E+00 0.18675226E+04</pdfrwt>
<pdfrwt beam="2">  1       -1 0.13574236E+00 0.18675226E+04</pdfrwt>
<totfact> 0.65875782E+00</totfact>
</mgrwt>
</event>
<event>
 6    1  0.8968082E-007  0.3257145E+04  0.7818608E-02  0.8173886E-01
          2   -1    0    0  501    0  0.00000000000E+00  0.00000000000E+00  0.27655420416E+04  0.27655420416E+04  0.00000000000E+00 0. -1.
         -2   -1    0    0    0  501 -0.00000000000E+00 -0.00000000000E+00 -0.95903356149E+03  0.95903356149E+03  0.00000000000E+00 0.  1.
         23    2    1    2    0    0 -0.59200535256E+02  0.91697942766E+03  0.24397572623E+04  0.26086186172E+04  0.90108917823E+02 0.  0.
         11    1    3    3    0    0 -0.96581570171E+01  0.16447979002E+03  0.34696185443E+03  0.38409557373E+03  0.00000000000E+00 0.  1.
        -11    1    3    3    0    0 -0.49542378239E+02  0.75249963763E+03  0.20927954078E+04  0.22245230435E+04  0.00000000000E+00 0. -1.
         22    1    1    2    0    0  0.59200535256E+02 -0.91697942766E+03 -0.63324878219E+03  0.11159569859E+04  0.00000000000E+00 0.  1.
<mgrwt>
<rscale>  0 0.32571445E+04</rscale>
<asrwt>0</asrwt>
<pdfrwt beam="1">  1        2 0.42546800E+00 0.32571445E+04</pdfrwt>
<pdfrwt beam="2">  1       -2 0.14754363E+00 0.32571445E+04</pdfrwt>
<totfact> 0.63612444E-01</totfact>
</mgrwt>
</event>
<event>
 6    1  0.8968082E-007  0.1020757E+04  0.7818608E-02  0.9286067E-01
          2   -1    0    0  501    0  0.00000000000E+00  0.00000000000E+00  0.53714844959E+03  0.53714844959E+03  0.00000000000E+00 0. -1.
         -2   -1    0    0    0  501 -0.00000000000E+00 -0.00000000000E+00 -0.48494298366E+03  0.48494298366E+03  0.00000000000E+00 0.  1.
         23    2    1    2    0    0  0.25323807404E+03 -0.42535482253E+03  0.13286017517E+03  0.52053243441E+03  0.90807168909E+02 0.  0.
         13    1    3    3    0    0  0.22677905464E+03 -0.37933481963E+03  0.87117411724E+02  0.45045875331E+03  0.00000000000E+00 0. -1.
        -13    1    3    3    0    0  0.26459019400E+02 -0.46020002902E+02  0.45742763442E+02  0.70073681093E+02  0.00000000000E+00 0.  1.
         22    1    1    2    0    0 -0.25323807404E+03  0.42535482253E+03 -0.80654709227E+02  0.50155899884E+03  0.00000000000E+00 0.  1.
<mgrwt>
<rscale>  0 0.10207573E+04</rscale>
<asrwt>0</asrwt>
<pdfrwt beam="1">  1        2 0.82638223E-01 0.10207573E+04</pdfrwt>
<pdfrwt beam="2">  1       -2 0.74606613E-01 0.10207573E+04</pdfrwt>
<totfact> 0.91286047E+01</totfact>
</mgrwt>
</event>
<event>
 6    1  0.8968082E-007  0.2982321E+04  0.7818608E-02  0.8248797E-01
          1   -1    0    0  501    0  0.00000000000E+00  0.00000000000E+00  0.14919490689E+04  0.14919490689E+04  0.00000000000E+00 0. -1.
         -1   -1    0    0    0  501 -0.00000000000E+00 -0.00000000000E+00 -0.14903722536E+04  0.14903722536E+04  0.00000000000E+00 0.  1.
         23    2    1    2    0    0  0.10052461288E+04  0.50557465883E+03  0.97704840752E+03  0.14931368671E+04  0.93319870751E+02 0.  0.
         11    1    3    3    0    0  0.79215162238E+03  0.43535994255E+03  0.75965066000E+03  0.11807250305E+04  0.00000000000E+00 0. -1.
        -11    1    3    3    0    0  0.21309450640E+03  0.70214716277E+02  0.21739774752E+03  0.31241183663E+03  0.00000000000E+00 0.  1.
         22    1    1    2    0    0 -0.10052461288E+04 -0.50557465883E+03 -0.97547159216E+03  0.14891844554E+04  0.00000000000E+00 0.  1.
<mgrwt>
<rscale>  0 0.29823209E+04</rscale>
<asrwt>0</asrwt>
<pdfrwt beam="1">  1        1 0.22953063E+00 0.29823209E+04</pdfrwt>
<pdfrwt beam="2">  1       -1 0.22928804E+00 0.29823209E+04</pdfrwt>
<totfact> 0.53897581E-01</totfact>
</mgrwt>
</event>
<event>
 6    1  0.8968082E-007  0.3097464E+04  0.7818608E-02  0.8216434E-01
         -1   -1    0    0    0  501 -0.00000000000E+00  0.00000000000E+00  0.33928560245E+04  0.33928560245E+04  0.00000000000E+00 0.  1.
          1   -1    0    0  501    0  0.00000000000E+00 -0.00000000000E+00 -0.70694762055E+03  0.70694762055E+03  0.00000000000E+00 0. -1.
         23    2    1    2    0    0  0.13713511056E+04  0.81650784142E+02  0.40169716215E+03  0.14343033726E+04  0.92708409663E+02 0.  0.
         13    1    3    3    0    0  0.20899602864E+03 -0.11526612808E+02  0.85559467520E+02  0.22612524245E+03  0.00000000000E+00 0. -1.
        -13    1    3    3    0    0  0.11623550769E+04  0.93177396951E+02  0.31613769463E+03  0.12081781301E+04  0.00000000000E+00 0.  1.
         22    1    1    2    0    0 -0.13713511056E+04 -0.81650784142E+02  0.22842112418E+04  0.26655002725E+04  0.00000000000E+00 0.  1.
<mgrwt>
<rscale>  0 0.30974644E+04</rscale>
<asrwt>0</asrwt>
<pdfrwt beam="1">  1        1 0.10876117E+00 0.30974644E+04</pdfrwt>
<pdfrwt beam="2">  1       -1 0.52197784E+00 0.30974644E+04</pdfrwt>
<totfact> 0.24486633E-02</totfact>
</mgrwt>
</event>
<event>
 6    1  0.8968082E-007  0.1653058E+04  0.7818608E-02  0.8788600E-01
          1   -1    0    0  501    0  0.00000000000E+00  0.00000000000E+00  0.17206520350E+04  0.17206520350E+04  0.00000000000E+00 0. -1.
         -1   -1    0    0    0  501 -0.00000000000E+00 -0.00000000000E+00 -0.39702979137E+03  0.39702979137E+03  0.00000000000E+00 0.  1.
         23    2    1    2    0    0  0.30490105028E+03  0.12887932756E+03  0.16306485098E+04  0.16661957695E+04  0.87288305513E+02 0.  0.
         11    1    3    3    0    0  0.89846228229E+02  0.80810201235E+01  0.58057232886E+03  0.58753882991E+03  0.00000000000E+00 0. -1.
        -11    1    3    3    0    0  0.21505482205E+03  0.12079830743E+03  0.10500761809E+04  0.10786569396E+04  0.00000000000E+00 0.  1.
         22    1    1    2    0    0 -0.30490105028E+03 -0.12887932756E+03 -0.30702626610E+03  0.45148605694E+03  0.00000000000E+00 0.  1.
<mgrwt>
<rscale>  0 0.16530579E+04</rscale>
<asrwt>0</asrwt>
<pdfrwt beam="1">  1        1 0.26471569E+00 0.16530579E+04</pdfrwt>
<pdfrwt beam="2">  1       -1 0.61081507E-01 0.16530579E+04</pdfrwt>
<totfact> 0.11981832E+01</totfact>
</mgrwt>
</event>
<event>
 6    1  0.8968082E-007  0.5508686E+04  0.7818608E-02  0.7754495E-01
          1   -1    0    0  501    0  0.00000000000E+00  0.00000000000E+00  0.38952052984E+04  0.38952052984E+04  0.00000000000E+00 0. -1.
         -1   -1    0    0    0  501 -0.00000000000E+00 -0.00000000000E+00 -0.19476265737E+04  0.19476265737E+04  0.00000000000E+00 0.  1.
         23    2    1    2    0    0  0.21305179051E+04 -0.59690108128E+03  0.27127562798E+04  0.35017009198E+04  0.86401697250E+02 0.  0.
         13    1    3    3    0    0  0.97335196776E+03 -0.26984070221E+03  0.11706660731E+04  0.15461846954E+04  0.00000000000E+00 0.  1.
        -13    1    3    3    0    0  0.11571659374E+04 -0.32706037906E+03  0.15420902067E+04  0.19555162244E+04  0.00000000000E+00 0. -1.
         22    1    1    2    0    0 -0.21305179051E+04  0.59690108128E+03 -0.76517755516E+03  0.23411309523E+04  0.00000000000E+00 0.  1.
<mgrwt>
<rscale>  0 0.55086860E+04</rscale>
<asrwt>0</asrwt>
<pdfrwt beam="1">  1        1 0.59926235E+00 0.55086860E+04</pdfrwt>
<pdfrwt beam="2">  1       -1 0.29963486E+00 0.55086860E+04</pdfrwt>
<totfact> 0.27179649E-03</totfact>
</mgrwt>
</event>
<event>
 6    1  0.8968082E-007  0.3269180E+03  0.7818608E-02  0.1072509E+00
         -1   -1    0    0    0  501 -0.00000000000E+00  0.00000000000E+00  0.25989982796E+02  0.25989982796E+02  0.00000000000E+00 0.  1.
          1   -1    0    0  501    0  0.00000000000E+00 -0.00000000000E+00 -0.10280438258E+04  0.10280438258E+04  0.00000000000E+00 0. -1.
         23    2    1    2    0    0 -0.40466595607E+02 -0.37503507532E+02 -0.99252985497E+03  0.99804483835E+03  0.89072599075E+02 0.  0.
         11    1    3    3    0    0  0.23223035040E+01 -0.53328955829E+02 -0.36805139765E+03  0.37190214026E+03  0.00000000000E+00 0.  1.
        -11    1    3    3    0    0 -0.42788899111E+02  0.15825448296E+02 -0.62447845733E+03  0.62614269809E+03  0.00000000000E+00 0. -1.
         22    1    1    2    0    0  0.40466595607E+02  0.37503507532E+02 -0.95239879874E+01  0.55988970204E+02  0.00000000000E+00 0.  1.
<mgrwt>
<rscale>  0 0.32691798E+03</rscale>
<asrwt>0</asrwt>
<pdfrwt beam="1">  1        1 0.15816057E+00 0.32691798E+03</pdfrwt>
<pdfrwt beam="2">  1       -1 0.39984593E-02 0.32691798E+03</pdfrwt>
<totfact> 0.37585685E+03</totfact>
</mgrwt>
</event>
<event>
 6    1  0.8968082E-007  0.2067332E+04  0.7818608E-02  0.8575772E-01
          2   -1    0    0  501    0  0.00000000000E+00  0.00000000000E+00  0.24405408971E+04  0.24405408971E+04  0.00000000000E+00 0. -1.
         -2   -1    0    0    0  501 -0.00000000000E+00 -0.00000000000E+00 -0.43779849198E+03  0.43779849198E+03  0.00000000000E+00 0.  1.
         23    2    1    2    0    0  0.60781002465E+03 -0.82202271996E+03  0.81156566586E+03  0.13086080737E+04  0.93069234845E+02 0.  0.
         13    1    3    3    0    0  0.21803189655E+03 -0.24372192573E+03  0.29912989935E+03  0.44318955502E+03  0.00000000000E+00 0.  1.
        -13    1    3    3    0    0  0.38977812809E+03 -0.57830079423E+03  0.51243576650E+03  0.86541851872E+03  0.00000000000E+00 0. -1.
         22    1    1    2    0    0 -0.60781002465E+03  0.82202271996E+03  0.11911767393E+04  0.15697313153E+04  0.00000000000E+00 0. -1.
<mgrwt>
<rscale>  0 0.20673317E+04</rscale>
<asrwt>0</asrwt>
<pdfrwt beam="1">  1        2 0.37546782E+00 0.20673317E+04</pdfrwt>
<pdfrwt beam="2">  1       -2 0.67353616E-01 0.20673317E+04</pdfrwt>
<totfact> 0.70402361E+00</totfact>
</mgrwt>
</event>
<event>
 6    1  0.8968082E-007  0.1407416E+04  0.7818608E-02  0.8948468E-01
         -2   -1    0    0    0  501 -0.00000000000E+00  0.00000000000E+00  0.24033019657E+03  0.24033019657E+03  0.00000000000E+00 0.  1.
          2   -1    0    0  501    0  0.00000000000E+00 -0.00000000000E+00 -0.20605196366E+04  0.20605196366E+04  0.00000000000E+00 0. -1.
         23    2    1    2    0    0  0.17166986504E+03 -0.39819868969E+03 -0.18138339138E+04  0.18671758407E+04  0.91210823273E+02 0.  0.
         11    1    3    3    0    0  0.11369606413E+03 -0.17574318867E+03 -0.74146899182E+03  0.77044709694E+03  0.00000000000E+00 0. -1.
        -11    1    3    3    0    0  0.57973800914E+02 -0.22245550102E+03 -0.10723649220E+04  0.10967287438E+04  0.00000000000E+00 0.  1.
         22    1    1    2    0    0 -0.17166986504E+03  0.39819868969E+03 -0.63555262645E+01  0.43367399248E+03  0.00000000000E+00 0.  1.
<mgrwt>
<rscale>  0 0.14074162E+04</rscale>
<asrwt>0</asrwt>
<pdfrwt beam="1">  1        2 0.31700300E+00 0.14074162E+04</pdfrwt>
<pdfrwt beam="2">  1       -2 0.36973879E-01 0.14074162E+04</pdfrwt>
<totfact> 0.41487980E+01</totfact>
</mgrwt>
</event>
<event>
 6    1  0.8968082E-007  0.3019905E+04  0.7818608E-02  0.8238070E-01
         -2   -1    0    0    0  501 -0.00000000000E+00  0.00000000000E+00  0.57257402936E+03  0.57257402936E+03  0.00000000000E+00 0.  1.
          2   -1    0    0  501    0  0.00000000000E+00 -0.00000000000E+00 -0.39819416059E+04  0.39819416059E+04  0.00000000000E+00 0. -1.
         23    2    1    2    0    0  0.37118409155E+03 -0.12572748871E+04 -0.58030850895E+03  0.14364885380E+04  0.90683971386E+02 0.  0.
         11    1    3    3    0    0  0.12821400864E+03 -0.55918019584E+03 -0.22326247364E+03  0.61560332647E+03  0.00000000000E+00 0. -1.
        -11    1    3    3    0    0  0.24297008291E+03 -0.69809469125E+03 -0.35704603531E+03  0.82088521151E+03  0.00000000000E+00 0.  1.
         22    1    1    2    0    0 -0.37118409155E+03  0.12572748871E+04 -0.28290590676E+04  0.31180270973E+04  0.00000000000E+00 0. -1.
<mgrwt>
<rscale>  0 0.30199049E+04</rscale>
<asrwt>0</asrwt>
<pdfrwt beam="1">  1        2 0.61260642E+00 0.30199049E+04</pdfrwt>
<pdfrwt beam="2">  1       -2 0.88088310E-01 0.30199049E+04</pdfrwt>
<totfact> 0.33551349E-01</totfact>
</mgrwt>
</event>
<event>
 6    1  0.8968082E-007  0.2412203E+04  0.7818608E-02  0.8434949E-01
         -2   -1    0    0    0  501 -0.00000000000E+00  0.00000000000E+00  0.43760312888E+03  0.43760312888E+03  0.00000000000E+00 0.  1.
          2   -1    0    0  501    0  0.00000000000E+00 -0.00000000000E+00 -0.33241999545E+04  0.33241999545E+04  0.00000000000E+00 0. -1.
         23    2    1    2    0    0  0.10069237320E+04  0.39908833400E+02 -0.41650344696E+03  0.10940607014E+04  0.89473907059E+02 0.  0.
         13    1    3    3    0    0  0.33690932116E+03 -0.20683655823E+02 -0.16635618319E+03  0.37631115315E+03  0.00000000000E+00 0.  1.
        -13    1    3    3    0    0  0.67001441086E+03  0.60592489223E+02 -0.25014726377E+03  0.71774954830E+03  0.00000000000E+00 0. -1.
         22    1    1    2    0    0 -0.10069237320E+04 -0.39908833400E+02 -0.24700933786E+04  0.26677423819E+04  0.00000000000E+00 0. -1.
<mgrwt>
<rscale>  0 0.24122026E+04</rscale>
<asrwt>0</asrwt>
<pdfrwt beam="1">  1        2 0.51141538E+00 0.24122026E+04</pdfrwt>
<pdfrwt beam="2">  1       -2 0.67323558E-01 0.24122026E+04</pdfrwt>
<totfact> 0.19531375E+00</totfact>
</mgrwt>
</event>
<event>
 6    1  0.8968082E-007  0.5835288E+03  0.7818608E-02  0.9940180E-01
          1   -1    0    0  501    0  0.00000000000E+00  0.00000000000E+00  0.50051169483E+03  0.50051169483E+03  0.00000000000E+00 0. -1.
         -1   -1    0    0    0  501 -0.00000000000E+00 -0.00000000000E+00 -0.17007886845E+03  0.17007886845E+03  0.00000000000E+00 0.  1.
         23    2    1    2    0    0 -0.46767828693E+01 -0.10119646264E+03  0.47609275568E+03  0.49316618121E+03  0.79284134153E+02 0.  0.
         13    1    3    3    0    0  0.18976765076E+02 -0.10073665210E+03  0.34311767125E+03  0.35810295589E+03  0.00000000000E+00 0. -1.
        -13    1    3    3    0    0 -0.23653547945E+02 -0.45981054137E+00  0.13297508443E+03  0.13506322532E+03  0.00000000000E+00 0.  1.
         22    1    1    2    0    0  0.46767828693E+01  0.10119646264E+03 -0.14565992930E+03  0.17742438207E+03  0.00000000000E+00 0.  1.
<mgrwt>
<rscale>  0 0.58352879E+03</rscale>
<asrwt>0</asrwt>
<pdfrwt beam="1">  1        1 0.77001799E-01 0.58352879E+03</pdfrwt>
<pdfrwt beam="2">  1       -1 0.26165980E-01 0.58352879E+03</pdfrwt>
<totfact> 0.57847053E+02</totfact>
</mgrwt>
</event>
<event>
 6    1  0.8968082E-007  0.1934643E+04  0.7818608E-02  0.8637802E-01
         -1   -1    0    0    0  501 -0.00000000000E+00  0.00000000000E+00  0.12024739791E+04  0.12024739791E+04  0.00000000000E+00 0.  1.
          1   -1    0    0  501    0  0.00000000000E+00 -0.00000000000E+00 -0.77815466184E+03  0.77815466184E+03  0.00000000000E+00 0. -1.
         23    2    1    2    0    0  0.34145311224E+03  0.65475795268E+03 -0.42357401280E+03  0.85625267907E+03  0.91953801688E+02 0.  0.
         13    1    3    3    0    0  0.15296551757E+03  0.33262926400E+03 -0.25836888618E+03  0.44810172749E+03  0.00000000000E+00 0.  1.
        -13    1    3    3    0    0  0.18848759467E+03  0.32212868868E+03 -0.16520512662E+03  0.40815095159E+03  0.00000000000E+00 0. -1.
         22    1    1    2    0    0 -0.34145311224E+03 -0.65475795268E+03  0.84789333008E+03  0.11243759619E+04  0.00000000000E+00 0.  1.
<mgrwt>
<rscale>  0 0.19346428E+04</rscale>
<asrwt>0</asrwt>
<pdfrwt beam="1">  1        1 0.11971610E+00 0.19346428E+04</pdfrwt>
<pdfrwt beam="2">  1       -1 0.18499600E+00 0.19346428E+04</pdfrwt>
<totfact> 0.41321288E+00</totfact>
</mgrwt>
</event>
<event>
 6    1  0.8968082E-007  0.2909492E+04  0.7818608E-02  0.8270059E-01
          3   -1    0    0  501    0  0.00000000000E+00  0.00000000000E+00  0.39634665796E+03  0.39634665796E+03  0.00000000000E+00 0. -1.
         -3   -1    0    0    0  501 -0.00000000000E+00 -0.00000000000E+00 -0.53394826008E+04  0.53394826008E+04  0.00000000000E+00 0.  1.
         23    2    1    2    0    0  0.45051293363E+03  0.75591837915E+03 -0.47540374655E+04  0.48357555210E+04  0.96357335528E+02 0.  0.
         11    1    3    3    0    0  0.25545540467E+03  0.48648370220E+03 -0.27599601968E+04  0.28141258224E+04  0.00000000000E+00 0. -1.
        -11    1    3    3    0    0  0.19505752897E+03  0.26943467695E+03 -0.19940772687E+04  0.20216296986E+04  0.00000000000E+00 0.  1.
         22    1    1    2    0    0 -0.45051293363E+03 -0.75591837915E+03 -0.18909847734E+03  0.90007373778E+03  0.00000000000E+00 0. -1.
<mgrwt>
<rscale>  0 0.29094921E+04</rscale>
<asrwt>0</asrwt>
<pdfrwt beam="1">  1        3 0.60976413E-01 0.29094921E+04</pdfrwt>
<pdfrwt beam="2">  1       -3 0.82145881E+00 0.29094921E+04</pdfrwt>
<totfact> 0.15013827E-04</totfact>
</mgrwt>
</event>
<event>
 6    1  0.1696100E-006  0.4398416E+04  0.7818608E-02  0.7928667E-01
         -2   -1    0    0    0  501 -0.00000000000E+00  0.00000000000E+00  0.16304670026E+04  0.16304670026E+04  0.00000000000E+00 0.  1.
          2   -1    0    0  501    0  0.00000000000E+00 -0.00000000000E+00 -0.29663375026E+04  0.29663375026E+04  0.00000000000E+00 0. -1.
         23    2    1    2    0    0  0.80214915307E+03  0.31998484555E+03  0.14444074590E+04  0.16854853721E+04  0.93351309671E+02 0.  0.
         13    1    3    3    0    0  0.43099631056E+03  0.12571634284E+03  0.71171394971E+03  0.84148628319E+03  0.00000000000E+00 0.  1.
        -13    1    3    3    0    0  0.37115284250E+03  0.19426850271E+03  0.73269350924E+03  0.84399908894E+03  0.00000000000E+00 0. -1.
         22    1    1    2    0    0 -0.80214915307E+03 -0.31998484555E+03 -0.27802779590E+04  0.29113191330E+04  0.00000000000E+00 0. -1.
<mgrwt>
<rscale>  0 0.43984158E+04</rscale>
<asrwt>0</asrwt>
<pdfrwt beam="1">  1        2 0.45635962E+00 0.43984158E+04</pdfrwt>
<pdfrwt beam="2">  1       -2 0.25084108E+00 0.43984158E+04</pdfrwt>
<totfact> 0.88616679E-02</totfact>
</mgrwt>
</event>
<event>
 6    1  0.8968082E-007  0.3228698E+04  0.7818608E-02  0.8181279E-01
          4   -1    0    0  501    0  0.00000000000E+00  0.00000000000E+00  0.22752657859E+04  0.22752657859E+04  0.00000000000E+00 0. -1.
         -4   -1    0    0    0  501 -0.00000000000E+00 -0.00000000000E+00 -0.11454146568E+04  0.11454146568E+04  0.00000000000E+00 0.  1.
         23    2    1    2    0    0  0.76420638737E+03 -0.12008665571E+03 -0.93429963916E+03  0.12163323301E+04  0.90090588923E+02 0.  0.
         11    1    3    3    0    0  0.18379555705E+03  0.39147734045E+01 -0.25360094448E+03  0.31322447427E+03  0.00000000000E+00 0. -1.
        -11    1    3    3    0    0  0.58041083032E+03 -0.12400142912E+03 -0.68069869468E+03  0.90310785586E+03  0.00000000000E+00 0.  1.
         22    1    1    2    0    0 -0.76420638737E+03  0.12008665571E+03  0.20641507682E+04  0.22043481125E+04  0.00000000000E+00 0. -1.
<mgrwt>
<rscale>  0 0.32286981E+04</rscale>
<asrwt>0</asrwt>
<pdfrwt beam="1">  1        4 0.35004089E+00 0.32286981E+04</pdfrwt>
<pdfrwt beam="2">  1       -4 0.17621764E+00 0.32286981E+04</pdfrwt>
<totfact> 0.47055867E-03</totfact>
</mgrwt>
</event>
<event>
 6    1  0.8968082E-007  0.3533780E+04  0.7818608E-02  0.8105831E-01
         -2   -1    0    0    0  501 -0.00000000000E+00  0.00000000000E+00  0.17358219121E+04  0.17358219121E+04  0.00000000000E+00 0.  1.
          2   -1    0    0  501    0  0.00000000000E+00 -0.00000000000E+00 -0.17985143339E+04  0.17985143339E+04  0.00000000000E+00 0. -1.
         23    2    1    2    0    0  0.11537153148E+04 -0.45263454760E+01 -0.13682086274E+04  0.17920813626E+04  0.92093682285E+02 0.  0.
         13    1    3    3    0    0  0.71501918931E+03 -0.47517272978E+02 -0.84697720517E+03  0.11094506381E+04  0.00000000000E+00 0. -1.
        -13    1    3    3    0    0  0.43869612551E+03  0.42990927502E+02 -0.52123142228E+03  0.68263072445E+03  0.00000000000E+00 0.  1.
         22    1    1    2    0    0 -0.11537153148E+04  0.45263454760E+01  0.13055162057E+04  0.17422548834E+04  0.00000000000E+00 0.  1.
<mgrwt>
<rscale>  0 0.35337802E+04</rscale>
<asrwt>0</asrwt>
<pdfrwt beam="1">  1        2 0.27669451E+00 0.35337802E+04</pdfrwt>
<pdfrwt beam="2">  1       -2 0.26704953E+00 0.35337802E+04</pdfrwt>
<totfact> 0.35792018E-01</totfact>
</mgrwt>
</event>
<event>
 6    1  0.8968082E-007  0.2660129E+04  0.7818608E-02  0.8348059E-01
          2   -1    0    0  501    0  0.00000000000E+00  0.00000000000E+00  0.24343138026E+04  0.24343138026E+04  0.00000000000E+00 0. -1.
         -2   -1    0    0    0  501 -0.00000000000E+00 -0.00000000000E+00 -0.72672284036E+03  0.72672284036E+03  0.00000000000E+00 0.  1.
         23    2    1    2    0    0  0.63810002752E+03  0.16278611921E+03 -0.51623298710E+03  0.84175573644E+03  0.91571049708E+02 0.  0.
         13    1    3    3    0    0  0.13133483594E+03  0.69733532963E+02 -0.97395744661E+02  0.17775695719E+03  0.00000000000E+00 0. -1.
        -13    1    3    3    0    0  0.50676519157E+03  0.93052586246E+02 -0.41883724244E+03  0.66399877925E+03  0.00000000000E+00 0.  1.
         22    1    1    2    0    0 -0.63810002752E+03 -0.16278611921E+03  0.22238239494E+04  0.23192809066E+04  0.00000000000E+00 0. -1.
<mgrwt>
<rscale>  0 0.26601289E+04</rscale>
<asrwt>0</asrwt>
<pdfrwt beam="1">  1        2 0.37450981E+00 0.26601289E+04</pdfrwt>
<pdfrwt beam="2">  1       -2 0.11180351E+00 0.26601289E+04</pdfrwt>
<totfact> 0.21114820E+00</totfact>
</mgrwt>
</event>
<event>
 6    1  0.8968082E-007  0.2530454E+04  0.7818608E-02  0.8392216E-01
          1   -1    0    0  501    0  0.00000000000E+00  0.00000000000E+00  0.20238000352E+04  0.20238000352E+04  0.00000000000E+00 0. -1.
         -1   -1    0    0    0  501 -0.00000000000E+00 -0.00000000000E+00 -0.79098677074E+03  0.79098677074E+03  0.00000000000E+00 0.  1.
         23    2    1    2    0    0  0.99647175829E+03 -0.74739053100E+03  0.38093657422E+03  0.13057333058E+04  0.90984731842E+02 0.  0.
         11    1    3    3    0    0  0.51938793650E+03 -0.33698881345E+03  0.17078690442E+03  0.64225653418E+03  0.00000000000E+00 0. -1.
        -11    1    3    3    0    0  0.47708382179E+03 -0.41040171754E+03  0.21014966980E+03  0.66347677163E+03  0.00000000000E+00 0.  1.
         22    1    1    2    0    0 -0.99647175829E+03  0.74739053100E+03  0.85187669024E+03  0.15090535001E+04  0.00000000000E+00 0. -1.
<mgrwt>
<rscale>  0 0.25304538E+04</rscale>
<asrwt>0</asrwt>
<pdfrwt beam="1">  1        1 0.31135385E+00 0.25304538E+04</pdfrwt>
<pdfrwt beam="2">  1       -1 0.12169027E+00 0.25304538E+04</pdfrwt>
<totfact> 0.15213993E+00</totfact>
</mgrwt>
</event>
<event>
 6    1  0.8968082E-007  0.1137868E+04  0.7818608E-02  0.9169050E-01
          2   -1    0    0  501    0  0.00000000000E+00  0.00000000000E+00  0.15489407127E+04  0.15489407127E+04  0.00000000000E+00 0. -1.
         -2   -1    0    0    0  501 -0.00000000000E+00 -0.00000000000E+00 -0.20897234788E+03  0.20897234788E+03  0.00000000000E+00 0.  1.
         23    2    1    2    0    0 -0.31505742739E+03  0.44638519199E+03  0.89823130494E+03  0.10553089386E+04  0.91304744890E+02 0.  0.
         11    1    3    3    0    0 -0.13495829717E+03  0.12198355250E+03  0.26644114123E+03  0.32262146673E+03  0.00000000000E+00 0.  1.
        -11    1    3    3    0    0 -0.18009913023E+03  0.32440163949E+03  0.63179016371E+03  0.73268747182E+03  0.00000000000E+00 0. -1.
         22    1    1    2    0    0  0.31505742739E+03 -0.44638519199E+03  0.44173705983E+03  0.70260412198E+03  0.00000000000E+00 0.  1.
<mgrwt>
<rscale>  0 0.11378678E+04</rscale>
<asrwt>0</asrwt>
<pdfrwt beam="1">  1        2 0.23829856E+00 0.11378678E+04</pdfrwt>
<pdfrwt beam="2">  1       -2 0.32149593E-01 0.11378678E+04</pdfrwt>
<totfact> 0.10619371E+02</totfact>
</mgrwt>
</event>
<event>
 6    1  0.8968082E-007  0.1680161E+04  0.7818608E-02  0.8772761E-01
          2   -1    0    0  501    0  0.00000000000E+00  0.00000000000E+00  0.12115871493E+04  0.12115871493E+04  0.00000000000E+00 0. -1.
         -2   -1    0    0    0  501 -0.00000000000E+00 -0.00000000000E+00 -0.58248813904E+03  0.58248813904E+03  0.00000000000E+00 0.  1.
         23    2    1    2    0    0 -0.64778189354E+03  0.51006585449E+03  0.15958394029E+03  0.84526921836E+03  0.96044052352E+02 0.  0.
         11    1    3    3    0    0 -0.20391195844E+03  0.12497448080E+03  0.12412810760E+02  0.23948441602E+03  0.00000000000E+00 0.  1.
        -11    1    3    3    0    0 -0.44386993510E+03  0.38509137369E+03  0.14717112953E+03  0.60578480233E+03  0.00000000000E+00 0. -1.
         22    1    1    2    0    0  0.64778189354E+03 -0.51006585449E+03  0.46951506998E+03  0.94880606999E+03  0.00000000000E+00 0.  1.
<mgrwt>
<rscale>  0 0.16801609E+04</rscale>
<asrwt>0</asrwt>
<pdfrwt beam="1">  1        2 0.18639802E+00 0.16801609E+04</pdfrwt>
<pdfrwt beam="2">  1       -2 0.89613560E-01 0.16801609E+04</pdfrwt>
<totfact> 0.18965144E+01</totfact>
</mgrwt>
</event>
<event>
 6    1  0.8968082E-007  0.1371358E+04  0.7818608E-02  0.8974816E-01
         -1   -1    0    0    0  501 -0.00000000000E+00  0.00000000000E+00  0.36017439363E+03  0.36017439363E+03  0.00000000000E+00 0.  1.
          1   -1    0    0  501    0  0.00000000000E+00 -0.00000000000E+00 -0.13053563870E+04  0.13053563870E+04  0.00000000000E+00 0. -1.
         23    2    1    2    0    0  0.42222640495E+03 -0.10817870921E+03  0.16380648738E+03  0.47396323300E+03  0.88491868372E+02 0.  0.
         13    1    3    3    0    0  0.29896485573E+03 -0.11716285477E+03  0.11463338947E+03  0.34095151192E+03  0.00000000000E+00 0.  1.
        -13    1    3    3    0    0  0.12326154922E+03  0.89841455601E+01  0.49173097903E+02  0.13301172108E+03  0.00000000000E+00 0. -1.
         22    1    1    2    0    0 -0.42222640495E+03  0.10817870921E+03 -0.11089884807E+04  0.11915675476E+04  0.00000000000E+00 0. -1.
<mgrwt>
<rscale>  0 0.13713584E+04</rscale>
<asrwt>0</asrwt>
<pdfrwt beam="1">  1        1 0.20082406E+00 0.13713584E+04</pdfrwt>
<pdfrwt beam="2">  1       -1 0.55411446E-01 0.13713584E+04</pdfrwt>
<totfact> 0.28850055E+01</totfact>
</mgrwt>
</event>
<event>
 6    1  0.8968082E-007  0.1199556E+04  0.7818608E-02  0.9113245E-01
         -2   -1    0    0    0  501 -0.00000000000E+00  0.00000000000E+00  0.33653886425E+03  0.33653886425E+03  0.00000000000E+00 0.  1.
          2   -1    0    0  501    0  0.00000000000E+00 -0.00000000000E+00 -0.10689223358E+04  0.10689223358E+04  0.00000000000E+00 0. -1.
         23    2    1    2    0    0 -0.41353909248E+03  0.22402446427E+03 -0.79704604163E+03  0.93071622683E+03  0.98735813210E+02 0.  0.
         11    1    3    3    0    0 -0.19828595072E+03  0.15588636202E+03 -0.46829644444E+03  0.53190171648E+03  0.00000000000E+00 0. -1.
        -11    1    3    3    0    0 -0.21525314177E+03  0.68138102246E+02 -0.32874959719E+03  0.39881451036E+03  0.00000000000E+00 0.  1.
         22    1    1    2    0    0  0.41353909248E+03 -0.22402446427E+03  0.64662570095E+02  0.47474497319E+03  0.00000000000E+00 0.  1.
<mgrwt>
<rscale>  0 0.11995564E+04</rscale>
<asrwt>0</asrwt>
<pdfrwt beam="1">  1        2 0.16444958E+00 0.11995564E+04</pdfrwt>
<pdfrwt beam="2">  1       -2 0.51775212E-01 0.11995564E+04</pdfrwt>
<totfact> 0.79170331E+01</totfact>
</mgrwt>
</event>
<event>
 6    1  0.8968082E-007  0.3824830E+04  0.7818608E-02  0.8040847E-01
          1   -1    0    0  501    0  0.00000000000E+00  0.00000000000E+00  0.30404391713E+04  0.30404391713E+04  0.00000000000E+00 0. -1.
         -1   -1    0    0    0  501 -0.00000000000E+00 -0.00000000000E+00 -0.12028954127E+04  0.12028954127E+04  0.00000000000E+00 0.  1.
         23    2    1    2    0    0  0.81927033388E+03 -0.16257879806E+04  0.15646332110E+04  0.24024460472E+04  0.96330094157E+02 0.  0.
         11    1    3    3    0    0  0.27865377128E+03 -0.49092517280E+03  0.53112947555E+03  0.77508320155E+03  0.00000000000E+00 0.  1.
        -11    1    3    3    0    0  0.54061656261E+03 -0.11348628078E+04  0.10335037354E+04  0.16273628456E+04  0.00000000000E+00 0. -1.
         22    1    1    2    0    0 -0.81927033388E+03  0.16257879806E+04  0.27291054766E+03  0.18408885368E+04  0.00000000000E+00 0.  1.
<mgrwt>
<rscale>  0 0.38248296E+04</rscale>
<asrwt>0</asrwt>
<pdfrwt beam="1">  1        1 0.46775987E+00 0.38248296E+04</pdfrwt>
<pdfrwt beam="2">  1       -1 0.18506083E+00 0.38248296E+04</pdfrwt>
<totfact> 0.84834108E-02</totfact>
</mgrwt>
</event>
<event>
 6    1  0.8968082E-007  0.1117534E+04  0.7818608E-02  0.9188269E-01
          2   -1    0    0  501    0  0.00000000000E+00  0.00000000000E+00  0.76504829940E+03  0.76504829940E+03  0.00000000000E+00 0. -1.
         -2   -1    0    0    0  501 -0.00000000000E+00 -0.00000000000E+00 -0.40810548418E+03  0.40810548418E+03  0.00000000000E+00 0.  1.
         23    2    1    2    0    0  0.77034617478E+02 -0.52697033787E+03  0.34308748221E+03  0.64040239734E+03  0.93670383693E+02 0.  0.
         13    1    3    3    0    0  0.47207396393E+02 -0.32966332299E+03  0.15950973402E+03  0.36925573800E+03  0.00000000000E+00 0. -1.
        -13    1    3    3    0    0  0.29827221085E+02 -0.19730701488E+03  0.18357774820E+03  0.27114665934E+03  0.00000000000E+00 0.  1.
         22    1    1    2    0    0 -0.77034617478E+02  0.52697033787E+03  0.13855333010E+02  0.53275138624E+03  0.00000000000E+00 0. -1.
<mgrwt>
<rscale>  0 0.11175337E+04</rscale>
<asrwt>0</asrwt>
<pdfrwt beam="1">  1        2 0.11769974E+00 0.11175337E+04</pdfrwt>
<pdfrwt beam="2">  1       -2 0.62785459E-01 0.11175337E+04</pdfrwt>
<totfact> 0.85265255E+01</totfact>
</mgrwt>
</event>
<event>
 6    1  0.8968082E-007  0.3228154E+04  0.7818608E-02  0.8181421E-01
          2   -1    0    0  501    0  0.00000000000E+00  0.00000000000E+00  0.13448631852E+04  0.13448631852E+04  0.00000000000E+00 0. -1.
         -2   -1    0    0    0  501 -0.00000000000E+00 -0.00000000000E+00 -0.19371823794E+04  0.19371823794E+04  0.00000000000E+00 0.  1.
         23    2    1    2    0    0  0.84011704212E+03  0.34678278172E+03  0.10581439586E+04  0.13978790219E+04  0.91335538167E+02 0.  0.
         11    1    3    3    0    0  0.70672992357E+03  0.32273251936E+03  0.87708182071E+03  0.11717064411E+04  0.00000000000E+00 0. -1.
        -11    1    3    3    0    0  0.13338711856E+03  0.24050262363E+02  0.18106213788E+03  0.22617258077E+03  0.00000000000E+00 0.  1.
         22    1    1    2    0    0 -0.84011704212E+03 -0.34678278172E+03 -0.16504631527E+04  0.18841665427E+04  0.00000000000E+00 0.  1.
<mgrwt>
<rscale>  0 0.32281544E+04</rscale>
<asrwt>0</asrwt>
<pdfrwt beam="1">  1        2 0.20690203E+00 0.32281544E+04</pdfrwt>
<pdfrwt beam="2">  1       -2 0.29802806E+00 0.32281544E+04</pdfrwt>
<totfact> 0.42736498E-01</totfact>
</mgrwt>
</event>
<event>
 6    1  0.8968082E-007  0.1883724E+04  0.7818608E-02  0.8663001E-01
         -2   -1    0    0    0  501 -0.00000000000E+00  0.00000000000E+00  0.98958752298E+03  0.98958752298E+03  0.00000000000E+00 0.  1.
          2   -1    0    0  501    0  0.00000000000E+00 -0.00000000000E+00 -0.89643833950E+03  0.89643833950E+03  0.00000000000E+00 0. -1.
         23    2    1    2    0    0 -0.18462000796E+03 -0.41652406821E+03  0.86957033709E+03  0.98579997165E+03  0.89845234841E+02 0.  0.
         13    1    3    3    0    0 -0.50633152282E+02 -0.10229028608E+03  0.30826569716E+03  0.32871683677E+03  0.00000000000E+00 0. -1.
        -13    1    3    3    0    0 -0.13398685568E+03 -0.31423378214E+03  0.56130463993E+03  0.65708313488E+03  0.00000000000E+00 0.  1.
         22    1    1    2    0    0  0.18462000796E+03  0.41652406821E+03 -0.77642115361E+03  0.90022589083E+03  0.00000000000E+00 0. -1.
<mgrwt>
<rscale>  0 0.18837242E+04</rscale>
<asrwt>0</asrwt>
<pdfrwt beam="1">  1        2 0.13791359E+00 0.18837242E+04</pdfrwt>
<pdfrwt beam="2">  1       -2 0.15224424E+00 0.18837242E+04</pdfrwt>
<totfact> 0.79617376E+00</totfact>
</mgrwt>
</event>
<event>
 6    1  0.8968082E-007  0.1246728E+04  0.7818608E-02  0.9072911E-01
          2   -1    0    0  501    0  0.00000000000E+00  0.00000000000E+00  0.23287257582E+04  0.23287257582E+04  0.00000000000E+00 0. -1.
         -2   -1    0    0    0  501 -0.00000000000E+00 -0.00000000000E+00 -0.16686496679E+03  0.16686496679E+03  0.00000000000E+00 0.  1.
         23    2    1    2    0    0 -0.26167326621E+03 -0.30818405401E+03  0.20274252664E+04  0.20695353063E+04  0.95251582218E+02 0.  0.
         13    1    3    3    0    0 -0.74934540984E+02 -0.10026225107E+03  0.86371034496E+03  0.87273321491E+03  0.00000000000E+00 0. -1.
        -13    1    3    3    0    0 -0.18673872522E+03 -0.20792180294E+03  0.11637149214E+04  0.11968020914E+04  0.00000000000E+00 0.  1.
         22    1    1    2    0    0  0.26167326621E+03  0.30818405401E+03  0.13443552503E+03  0.42605541868E+03  0.00000000000E+00 0.  1.
<mgrwt>
<rscale>  0 0.12467281E+04</rscale>
<asrwt>0</asrwt>
<pdfrwt beam="1">  1        2 0.35826548E+00 0.12467281E+04</pdfrwt>
<pdfrwt beam="2">  1       -2 0.25671535E-01 0.12467281E+04</pdfrwt>
<totfact> 0.58935096E+01</totfact>
</mgrwt>
</event>
<event>
 6    1  0.8968082E-007  0.3964023E+03  0.7818608E-02  0.1045033E+00
          3   -1    0    0  501    0  0.00000000000E+00  0.00000000000E+00  0.27817995285E+02  0.27817995285E+02  0.00000000000E+00 0. -1.
         -3   -1    0    0    0  501 -0.00000000000E+00 -0.00000000000E+00 -0.14121681533E+04  0.14121681533E+04  0.00000000000E+00 0.  1.
         23    2    1    2    0    0 -0.55377691931E+02 -0.88788601339E+02 -0.12951926026E+04  0.13025118812E+04  0.89795425863E+02 0.  0.
         11    1    3    3    0    0 -0.74207810939E+01  0.15875685212E+02 -0.81037834225E+02  0.82911012229E+02  0.00000000000E+00 0. -1.
        -11    1    3    3    0    0 -0.47956910837E+02 -0.10466428655E+03 -0.12141547683E+04  0.12196008690E+04  0.00000000000E+00 0.  1.
         22    1    1    2    0    0  0.55377691931E+02  0.88788601339E+02 -0.89157555446E+02  0.13747426735E+03  0.00000000000E+00 0. -1.
<mgrwt>
<rscale>  0 0.39640226E+03</rscale>
<asrwt>0</asrwt>
<pdfrwt beam="1">  1        3 0.42796914E-02 0.39640226E+03</pdfrwt>
<pdfrwt beam="2">  1       -3 0.21725665E+00 0.39640226E+03</pdfrwt>
<totfact> 0.94056519E+01</totfact>
</mgrwt>
</event>
<event>
 6    1  0.8968082E-007  0.2016473E+04  0.7818608E-02  0.8598958E-01
         -2   -1    0    0    0  501 -0.00000000000E+00  0.00000000000E+00  0.31560981118E+03  0.31560981118E+03  0.00000000000E+00 0.  1.
          2   -1    0    0  501    0  0.00000000000E+00 -0.00000000000E+00 -0.32208783914E+04  0.32208783914E+04  0.00000000000E+00 0. -1.
         23    2    1    2    0    0 -0.27745806117E+03 -0.10966412874E+03 -0.31407630927E+04  0.31564002362E+04  0.97264842915E+02 0.  0.
         11    1    3    3    0    0 -0.23304825561E+03 -0.12783489685E+03 -0.26688106212E+04  0.26820147990E+04  0.00000000000E+00 0. -1.
        -11    1    3    3    0    0 -0.44409805565E+02  0.18170768110E+02 -0.47195247151E+03  0.47438543718E+03  0.00000000000E+00 0.  1.
         22    1    1    2    0    0  0.27745806117E+03  0.10966412874E+03  0.23549451244E+03  0.38008796644E+03  0.00000000000E+00 0.  1.
<mgrwt>
<rscale>  0 0.20164730E+04</rscale>
<asrwt>0</asrwt>
<pdfrwt beam="1">  1        2 0.49551974E+00 0.20164730E+04</pdfrwt>
<pdfrwt beam="2">  1       -2 0.48555357E-01 0.20164730E+04</pdfrwt>
<totfact> 0.47000756E+00</totfact>
</mgrwt>
</event>
<event>
 6    1  0.8968082E-007  0.3338122E+04  0.7818608E-02  0.8153262E-01
         -2   -1    0    0    0  501 -0.00000000000E+00  0.00000000000E+00  0.86558634270E+03  0.86558634270E+03  0.00000000000E+00 0.  1.
          2   -1    0    0  501    0  0.00000000000E+00 -0.00000000000E+00 -0.32183555767E+04  0.32183555767E+04  0.00000000000E+00 0. -1.
         23    2    1    2    0    0  0.26156900222E+03  0.16220020171E+04 -0.15283566631E+04  0.22457458000E+04  0.90505371112E+02 0.  0.
         11    1    3    3    0    0  0.11744902063E+03  0.86977543744E+03 -0.76261918626E+03  0.11627087371E+04  0.00000000000E+00 0. -1.
        -11    1    3    3    0    0  0.14411998159E+03  0.75222657964E+03 -0.76573747683E+03  0.10830370629E+04  0.00000000000E+00 0.  1.
         22    1    1    2    0    0 -0.26156900222E+03 -0.16220020171E+04 -0.82441257092E+03  0.18381961194E+04  0.00000000000E+00 0.  1.
<mgrwt>
<rscale>  0 0.33381220E+04</rscale>
<asrwt>0</asrwt>
<pdfrwt beam="1">  1        2 0.49513162E+00 0.33381220E+04</pdfrwt>
<pdfrwt beam="2">  1       -2 0.13316713E+00 0.33381220E+04</pdfrwt>
<totfact> 0.42861373E-01</totfact>
</mgrwt>
</event>
<event>
 6    1  0.8968082E-007  0.4159548E+04  0.7818608E-02  0.7973112E-01
         -2   -1    0    0    0  501 -0.00000000000E+00  0.00000000000E+00  0.18979281515E+04  0.18979281515E+04  0.00000000000E+00 0.  1.
          2   -1    0    0  501    0  0.00000000000E+00 -0.00000000000E+00 -0.22790426192E+04  0.22790426192E+04  0.00000000000E+00 0. -1.
         23    2    1    2    0    0  0.61262424687E+03 -0.55355770049E+03 -0.21064505469E+04  0.22642451810E+04  0.89093981227E+02 0.  0.
         11    1    3    3    0    0  0.48084824330E+03 -0.42884843583E+03 -0.17371017171E+04  0.18527407778E+04  0.00000000000E+00 0.  1.
        -11    1    3    3    0    0  0.13177600357E+03 -0.12470926466E+03 -0.36934882973E+03  0.41150440317E+03  0.00000000000E+00 0. -1.
         22    1    1    2    0    0 -0.61262424687E+03  0.55355770049E+03  0.17253360792E+04  0.19127255897E+04  0.00000000000E+00 0.  1.
<mgrwt>
<rscale>  0 0.41595476E+04</rscale>
<asrwt>0</asrwt>
<pdfrwt beam="1">  1        2 0.35062194E+00 0.41595476E+04</pdfrwt>
<pdfrwt beam="2">  1       -2 0.29198895E+00 0.41595476E+04</pdfrwt>
<totfact> 0.12911699E-01</totfact>
</mgrwt>
</event>
<event>
 6    1  0.8968082E-007  0.4228067E+04  0.7818608E-02  0.7960055E-01
          1   -1    0    0  501    0  0.00000000000E+00  0.00000000000E+00  0.20952512847E+04  0.20952512847E+04  0.00000000000E+00 0. -1.
         -1   -1    0    0    0  501 -0.00000000000E+00 -0.00000000000E+00 -0.21329837662E+04  0.21329837662E+04  0.00000000000E+00 0.  1.
         23    2    1    2    0    0 -0.19044574571E+04  0.66656621136E+03  0.60858587955E+03  0.21095099286E+04  0.91578633604E+02 0.  0.
         11    1    3    3    0    0 -0.17398003837E+04  0.58430416833E+03  0.56590487637E+03  0.19205637364E+04  0.00000000000E+00 0.  1.
        -11    1    3    3    0    0 -0.16465707335E+03  0.82262043025E+02  0.42681003177E+02  0.18894619224E+03  0.00000000000E+00 0. -1.
         22    1    1    2    0    0  0.19044574571E+04 -0.66656621136E+03 -0.64631836106E+03  0.21187251223E+04  0.00000000000E+00 0.  1.
<mgrwt>
<rscale>  0 0.42280667E+04</rscale>
<asrwt>0</asrwt>
<pdfrwt beam="1">  1        1 0.32234635E+00 0.42280667E+04</pdfrwt>
<pdfrwt beam="2">  1       -1 0.32815135E+00 0.42280667E+04</pdfrwt>
<totfact> 0.42693130E-02</totfact>
</mgrwt>
</event>
<event>
 6    1  0.8968082E-007  0.1755273E+04  0.7818608E-02  0.8730453E-01
          2   -1    0    0  501    0  0.00000000000E+00  0.00000000000E+00  0.99200951723E+03  0.99200951723E+03  0.00000000000E+00 0. -1.
         -2   -1    0    0    0  501 -0.00000000000E+00 -0.00000000000E+00 -0.77645041255E+03  0.77645041255E+03  0.00000000000E+00 0.  1.
         23    2    1    2    0    0  0.28391702549E+03  0.31910078974E+03 -0.66164873788E+03  0.79279206087E+03  0.91137303380E+02 0.  0.
         11    1    3    3    0    0  0.68619818479E+02  0.99570836607E+02 -0.12254218379E+03  0.17216160373E+03  0.00000000000E+00 0. -1.
        -11    1    3    3    0    0  0.21529720701E+03  0.21952995314E+03 -0.53910655409E+03  0.62063045714E+03  0.00000000000E+00 0.  1.
         22    1    1    2    0    0 -0.28391702549E+03 -0.31910078974E+03  0.87720784256E+03  0.97566786891E+03  0.00000000000E+00 0. -1.
<mgrwt>
<rscale>  0 0.17552734E+04</rscale>
<asrwt>0</asrwt>
<pdfrwt beam="1">  1        2 0.15261685E+00 0.17552734E+04</pdfrwt>
<pdfrwt beam="2">  1       -2 0.11945391E+00 0.17552734E+04</pdfrwt>
<totfact> 0.12970229E+01</totfact>
</mgrwt>
</event>
<event>
 6    1  0.9532028E-007  0.2681566E+04  0.7818608E-02  0.8341011E-01
          1   -1    0    0  501    0  0.00000000000E+00  0.00000000000E+00  0.15194777766E+04  0.15194777766E+04  0.00000000000E+00 0. -1.
         -1   -1    0    0    0  501 -0.00000000000E+00 -0.00000000000E+00 -0.11831028627E+04  0.11831028627E+04  0.00000000000E+00 0.  1.
         23    2    1    2    0    0 -0.10922878906E+04 -0.72061637436E+03 -0.11815433538E+03  0.13173089572E+04  0.94665974299E+02 0.  0.
         13    1    3    3    0    0 -0.61080674239E+03 -0.36068403625E+03 -0.95365571540E+02  0.71573210267E+03  0.00000000000E+00 0. -1.
        -13    1    3    3    0    0 -0.48148114820E+03 -0.35993233811E+03 -0.22788763837E+02  0.60157685448E+03  0.00000000000E+00 0.  1.
         22    1    1    2    0    0  0.10922878906E+04  0.72061637436E+03  0.45452924926E+03  0.13852716822E+04  0.00000000000E+00 0. -1.
<mgrwt>
<rscale>  0 0.26815656E+04</rscale>
<asrwt>0</asrwt>
<pdfrwt beam="1">  1        1 0.23376581E+00 0.26815656E+04</pdfrwt>
<pdfrwt beam="2">  1       -1 0.18201583E+00 0.26815656E+04</pdfrwt>
<totfact> 0.11164036E+00</totfact>
</mgrwt>
</event>
<event>
 6    1  0.8968082E-007  0.4702679E+04  0.7818608E-02  0.7876084E-01
          2   -1    0    0  501    0  0.00000000000E+00  0.00000000000E+00  0.22307897510E+04  0.22307897510E+04  0.00000000000E+00 0. -1.
         -2   -1    0    0    0  501 -0.00000000000E+00 -0.00000000000E+00 -0.24784041286E+04  0.24784041286E+04  0.00000000000E+00 0.  1.
         23    2    1    2    0    0  0.14306431227E+04  0.14455037325E+04 -0.13039096645E+04  0.24174738884E+04  0.88197520939E+02 0.  0.
         13    1    3    3    0    0  0.84550793769E+03  0.81340146131E+03 -0.71291191530E+03  0.13728616132E+04  0.00000000000E+00 0. -1.
        -13    1    3    3    0    0  0.58513518500E+03  0.63210227121E+03 -0.59099774916E+03  0.10446122752E+04  0.00000000000E+00 0.  1.
         22    1    1    2    0    0 -0.14306431227E+04 -0.14455037325E+04  0.10562952868E+04  0.22917199912E+04  0.00000000000E+00 0. -1.
<mgrwt>
<rscale>  0 0.47026795E+04</rscale>
<asrwt>0</asrwt>
<pdfrwt beam="1">  1        2 0.34319843E+00 0.47026795E+04</pdfrwt>
<pdfrwt beam="2">  1       -2 0.38129294E+00 0.47026795E+04</pdfrwt>
<totfact> 0.36330551E-02</totfact>
</mgrwt>
</event>
<event>
 6    1  0.8968082E-007  0.1646431E+04  0.7818608E-02  0.8792520E-01
          2   -1    0    0  501    0  0.00000000000E+00  0.00000000000E+00  0.17488287394E+04  0.17488287394E+04  0.00000000000E+00 0. -1.
         -2   -1    0    0    0  501 -0.00000000000E+00 -0.00000000000E+00 -0.38750739545E+03  0.38750739545E+03  0.00000000000E+00 0.  1.
         23    2    1    2    0    0 -0.59059167953E+03  0.56962560129E+03  0.70071324773E+03  0.10829250497E+04  0.91955152647E+02 0.  0.
         11    1    3    3    0    0 -0.73594997336E+02  0.11783170028E+03  0.12582195567E+03  0.18743451591E+03  0.00000000000E+00 0.  1.
        -11    1    3    3    0    0 -0.51699668219E+03  0.45179390101E+03  0.57489129206E+03  0.89549053377E+03  0.00000000000E+00 0. -1.
         22    1    1    2    0    0  0.59059167953E+03 -0.56962560129E+03  0.66060809623E+03  0.10534110852E+04  0.00000000000E+00 0.  1.
<mgrwt>
<rscale>  0 0.16464314E+04</rscale>
<asrwt>0</asrwt>
<pdfrwt beam="1">  1        2 0.26905057E+00 0.16464314E+04</pdfrwt>
<pdfrwt beam="2">  1       -2 0.59616523E-01 0.16464314E+04</pdfrwt>
<totfact> 0.23107413E+01</totfact>
</mgrwt>
</event>
<event>
 6    1  0.8968082E-007  0.3113451E+04  0.7818608E-02  0.8212056E-01
          2   -1    0    0  501    0  0.00000000000E+00  0.00000000000E+00  0.28473013265E+04  0.28473013265E+04  0.00000000000E+00 0. -1.
         -2   -1    0    0    0  501 -0.00000000000E+00 -0.00000000000E+00 -0.85111957564E+03  0.85111957564E+03  0.00000000000E+00 0.  1.
         23    2    1    2    0    0  0.11359320252E+04 -0.25507867411E+02  0.22607149473E+04  0.25318147007E+04  0.90892181834E+02 0.  0.
         13    1    3    3    0    0  0.82742426168E+03  0.43069087332E+01  0.15682518786E+04  0.17731507023E+04  0.00000000000E+00 0.  1.
        -13    1    3    3    0    0  0.30850776351E+03 -0.29814776144E+02  0.69246306860E+03  0.75866399836E+03  0.00000000000E+00 0. -1.
         22    1    1    2    0    0 -0.11359320252E+04  0.25507867411E+02 -0.26453319644E+03  0.11666062014E+04  0.00000000000E+00 0.  1.
<mgrwt>
<rscale>  0 0.31134508E+04</rscale>
<asrwt>0</asrwt>
<pdfrwt beam="1">  1        2 0.43804635E+00 0.31134508E+04</pdfrwt>
<pdfrwt beam="2">  1       -2 0.13094147E+00 0.31134508E+04</pdfrwt>
<totfact> 0.78227293E-01</totfact>
</mgrwt>
</event>
<event>
 6    1  0.8968082E-007  0.3027822E+04  0.7818608E-02  0.8235831E-01
          1   -1    0    0  501    0  0.00000000000E+00  0.00000000000E+00  0.96700980985E+03  0.96700980985E+03  0.00000000000E+00 0. -1.
         -1   -1    0    0    0  501 -0.00000000000E+00 -0.00000000000E+00 -0.23701167021E+04  0.23701167021E+04  0.00000000000E+00 0.  1.
         23    2    1    2    0    0 -0.64101267750E+03 -0.51216130041E+02  0.80670386358E+03  0.10356522190E+04  0.91016759250E+02 0.  0.
         13    1    3    3    0    0 -0.43666725253E+03 -0.73897269057E+02  0.57707265033E+03  0.72742830544E+03  0.00000000000E+00 0.  1.
        -13    1    3    3    0    0 -0.20434542497E+03  0.22681139016E+02  0.22963121325E+03  0.30822391353E+03  0.00000000000E+00 0. -1.
         22    1    1    2    0    0  0.64101267750E+03  0.51216130041E+02 -0.22098107559E+04  0.23014742930E+04  0.00000000000E+00 0.  1.
<mgrwt>
<rscale>  0 0.30278217E+04</rscale>
<asrwt>0</asrwt>
<pdfrwt beam="1">  1        1 0.14877074E+00 0.30278217E+04</pdfrwt>
<pdfrwt beam="2">  1       -1 0.36463334E+00 0.30278217E+04</pdfrwt>
<totfact> 0.16924570E-01</totfact>
</mgrwt>
</event>
<event>
 6    1  0.8968082E-007  0.1065497E+04  0.7818608E-02  0.9239489E-01
          1   -1    0    0  501    0  0.00000000000E+00  0.00000000000E+00  0.77667614437E+03  0.77667614437E+03  0.00000000000E+00 0. -1.
         -1   -1    0    0    0  501 -0.00000000000E+00 -0.00000000000E+00 -0.36543029166E+03  0.36543029166E+03  0.00000000000E+00 0.  1.
         23    2    1    2    0    0  0.11329104983E+02  0.52312235515E+03  0.28960823429E+03  0.60490902604E+03  0.90866128686E+02 0.  0.
         13    1    3    3    0    0 -0.38286884177E+01  0.95108151249E+02  0.95014397351E+02  0.13449146810E+03  0.00000000000E+00 0.  1.
        -13    1    3    3    0    0  0.15157793401E+02  0.42801420390E+03  0.19459383694E+03  0.47041755794E+03  0.00000000000E+00 0. -1.
         22    1    1    2    0    0 -0.11329104983E+02 -0.52312235515E+03  0.12163761843E+03  0.53719740999E+03  0.00000000000E+00 0.  1.
<mgrwt>
<rscale>  0 0.10654970E+04</rscale>
<asrwt>0</asrwt>
<pdfrwt beam="1">  1        1 0.11948864E+00 0.10654970E+04</pdfrwt>
<pdfrwt beam="2">  1       -1 0.56220045E-01 0.10654970E+04</pdfrwt>
<totfact> 0.74105040E+01</totfact>
</mgrwt>
</event>
<event>
 6    1  0.8968082E-007  0.2726298E+04  0.7818608E-02  0.8326522E-01
          2   -1    0    0  501    0  0.00000000000E+00  0.00000000000E+00  0.11703944888E+04  0.11703944888E+04  0.00000000000E+00 0. -1.
         -2   -1    0    0    0  501 -0.00000000000E+00 -0.00000000000E+00 -0.15876482817E+04  0.15876482817E+04  0.00000000000E+00 0.  1.
         23    2    1    2    0    0  0.50694834257E+03  0.13705668888E+03  0.10620491595E+04  0.11882917128E+04  0.91146144057E+02 0.  0.
         11    1    3    3    0    0  0.39056004020E+03  0.14326687468E+03  0.80920027326E+03  0.90987231227E+03  0.00000000000E+00 0. -1.
        -11    1    3    3    0    0  0.11638830237E+03 -0.62101858014E+01  0.25284888626E+03  0.27841940058E+03  0.00000000000E+00 0.  1.
         22    1    1    2    0    0 -0.50694834257E+03 -0.13705668888E+03 -0.14793029524E+04  0.15697510576E+04  0.00000000000E+00 0.  1.
<mgrwt>
<rscale>  0 0.27262977E+04</rscale>
<asrwt>0</asrwt>
<pdfrwt beam="1">  1        2 0.18006069E+00 0.27262977E+04</pdfrwt>
<pdfrwt beam="2">  1       -2 0.24425358E+00 0.27262977E+04</pdfrwt>
<totfact> 0.12043885E+00</totfact>
</mgrwt>
</event>
<event>
 6    1  0.8968082E-007  0.3211087E+04  0.7818608E-02  0.8185895E-01
         -1   -1    0    0    0  501 -0.00000000000E+00  0.00000000000E+00  0.16217618699E+04  0.16217618699E+04  0.00000000000E+00 0.  1.
          1   -1    0    0  501    0  0.00000000000E+00 -0.00000000000E+00 -0.15894875653E+04  0.15894875653E+04  0.00000000000E+00 0. -1.
         23    2    1    2    0    0 -0.10161020562E+04 -0.90336904544E+03  0.86761586061E+03  0.16155256070E+04  0.92879946483E+02 0.  0.
         11    1    3    3    0    0 -0.35464323750E+03 -0.30649781594E+03  0.35147326163E+03  0.58587216244E+03  0.00000000000E+00 0. -1.
        -11    1    3    3    0    0 -0.66145881867E+03 -0.59687122950E+03  0.51614259898E+03  0.10296534446E+04  0.00000000000E+00 0.  1.
         22    1    1    2    0    0  0.10161020562E+04  0.90336904544E+03 -0.83534155600E+03  0.15957238282E+04  0.00000000000E+00 0. -1.
<mgrwt>
<rscale>  0 0.32110872E+04</rscale>
<asrwt>0</asrwt>
<pdfrwt beam="1">  1        1 0.24453655E+00 0.32110872E+04</pdfrwt>
<pdfrwt beam="2">  1       -1 0.24950183E+00 0.32110872E+04</pdfrwt>
<totfact> 0.33313525E-01</totfact>
</mgrwt>
</event>
<event>
 6    1  0.8968082E-007  0.1485381E+04  0.7818608E-02  0.8894233E-01
          1   -1    0    0  501    0  0.00000000000E+00  0.00000000000E+00  0.87061151436E+03  0.87061151436E+03  0.00000000000E+00 0. -1.
         -1   -1    0    0    0  501 -0.00000000000E+00 -0.00000000000E+00 -0.63356501969E+03  0.63356501969E+03  0.00000000000E+00 0.  1.
         23    2    1    2    0    0  0.14206985276E+03  0.51277273512E+03  0.63958623707E+03  0.83697494146E+03  0.91305952946E+02 0.  0.
         13    1    3    3    0    0  0.13487369458E+02  0.55916794108E+02  0.12110684899E+03  0.13407261417E+03  0.00000000000E+00 0. -1.
        -13    1    3    3    0    0  0.12858248330E+03  0.45685594101E+03  0.51847938808E+03  0.70290232729E+03  0.00000000000E+00 0.  1.
         22    1    1    2    0    0 -0.14206985276E+03 -0.51277273512E+03 -0.40253974239E+03  0.66720159259E+03  0.00000000000E+00 0. -1.
<mgrwt>
<rscale>  0 0.14853808E+04</rscale>
<asrwt>0</asrwt>
<pdfrwt beam="1">  1        1 0.13394023E+00 0.14853808E+04</pdfrwt>
<pdfrwt beam="2">  1       -1 0.97471541E-01 0.14853808E+04</pdfrwt>
<totfact> 0.18839145E+01</totfact>
</mgrwt>
</event>
<event>
 6    1  0.8968082E-007  0.2454322E+04  0.7818608E-02  0.8419442E-01
          2   -1    0    0  501    0  0.00000000000E+00  0.00000000000E+00  0.19376694219E+04  0.19376694219E+04  0.00000000000E+00 0. -1.
         -2   -1    0    0    0  501 -0.00000000000E+00 -0.00000000000E+00 -0.77718322078E+03  0.77718322078E+03  0.00000000000E+00 0.  1.
         23    2    1    2    0    0 -0.50062913599E+03 -0.10883587216E+04  0.29505925325E+03  0.12369764500E+04  0.88862456735E+02 0.  0.
         11    1    3    3    0    0 -0.14008829819E+03 -0.22070033682E+03  0.53268141358E+02  0.26677868139E+03  0.00000000000E+00 0. -1.
        -11    1    3    3    0    0 -0.36054083780E+03 -0.86765838481E+03  0.24179111189E+03  0.97019776863E+03  0.00000000000E+00 0.  1.
         22    1    1    2    0    0  0.50062913599E+03  0.10883587216E+04  0.86542694786E+03  0.14778761927E+04  0.00000000000E+00 0. -1.
<mgrwt>
<rscale>  0 0.24543220E+04</rscale>
<asrwt>0</asrwt>
<pdfrwt beam="1">  1        2 0.29810299E+00 0.24543220E+04</pdfrwt>
<pdfrwt beam="2">  1       -2 0.11956665E+00 0.24543220E+04</pdfrwt>
<totfact> 0.34711116E+00</totfact>
</mgrwt>
</event>
<event>
 6    1  0.8968082E-007  0.1187692E+04  0.7818608E-02  0.9123698E-01
          2   -1    0    0  501    0  0.00000000000E+00  0.00000000000E+00  0.14014911006E+04  0.14014911006E+04  0.00000000000E+00 0. -1.
         -2   -1    0    0    0  501 -0.00000000000E+00 -0.00000000000E+00 -0.25162715245E+03  0.25162715245E+03  0.00000000000E+00 0.  1.
         23    2    1    2    0    0 -0.16270787627E+03  0.33832228637E+03 -0.50571041344E+02  0.39535039432E+03  0.11317544614E+03 0.  0.
         13    1    3    3    0    0 -0.56019882295E+02  0.19318536956E+03  0.19465177253E+02  0.20208341681E+03  0.00000000000E+00 0. -1.
        -13    1    3    3    0    0 -0.10668799397E+03  0.14513691682E+03 -0.70036218597E+02  0.19326697751E+03  0.00000000000E+00 0.  1.
         22    1    1    2    0    0  0.16270787627E+03 -0.33832228637E+03  0.12004349895E+04  0.12577678588E+04  0.00000000000E+00 0. -1.
<mgrwt>
<rscale>  0 0.11876922E+04</rscale>
<asrwt>0</asrwt>
<pdfrwt beam="1">  1        2 0.21561401E+00 0.11876922E+04</pdfrwt>
<pdfrwt beam="2">  1       -2 0.38711870E-01 0.11876922E+04</pdfrwt>
<totfact> 0.89864840E+01</totfact>
</mgrwt>
</event>
<event>
 6    1  0.8968082E-007  0.1940480E+04  0.7818608E-02  0.8634965E-01
          1   -1    0    0  501    0  0.00000000000E+00  0.00000000000E+00  0.68409194362E+03  0.68409194362E+03  0.00000000000E+00 0. -1.
         -1   -1    0    0    0  501 -0.00000000000E+00 -0.00000000000E+00 -0.13760803914E+04  0.13760803914E+04  0.00000000000E+00 0.  1.
         23    2    1    2    0    0 -0.59022403731E+03 -0.43378048241E+03  0.32543555167E+03  0.80650510812E+03  0.89511284210E+02 0.  0.
         13    1    3    3    0    0 -0.39257056348E+03 -0.31843887059E+03  0.26030256216E+03  0.56857047539E+03  0.00000000000E+00 0.  1.
        -13    1    3    3    0    0 -0.19765347382E+03 -0.11534161181E+03  0.65132989517E+02  0.23793463273E+03  0.00000000000E+00 0. -1.
         22    1    1    2    0    0  0.59022403731E+03  0.43378048241E+03 -0.10174239994E+04  0.12536672269E+04  0.00000000000E+00 0.  1.
<mgrwt>
<rscale>  0 0.19404798E+04</rscale>
<asrwt>0</asrwt>
<pdfrwt beam="1">  1        1 0.10524491E+00 0.19404798E+04</pdfrwt>
<pdfrwt beam="2">  1       -1 0.21170468E+00 0.19404798E+04</pdfrwt>
<totfact> 0.32921664E+00</totfact>
</mgrwt>
</event>
<event>
 6    1  0.8968082E-007  0.1873140E+04  0.7818608E-02  0.8668343E-01
          2   -1    0    0  501    0  0.00000000000E+00  0.00000000000E+00  0.11034889356E+04  0.11034889356E+04  0.00000000000E+00 0. -1.
         -2   -1    0    0    0  501 -0.00000000000E+00 -0.00000000000E+00 -0.79490014436E+03  0.79490014436E+03  0.00000000000E+00 0.  1.
         23    2    1    2    0    0  0.90691197247E+03  0.10070098097E+03  0.35879855339E+03  0.98452309763E+03  0.88990530283E+02 0.  0.
         13    1    3    3    0    0  0.79853646355E+03  0.59113393711E+02  0.31506758072E+03  0.86047804002E+03  0.00000000000E+00 0.  1.
        -13    1    3    3    0    0  0.10837550892E+03  0.41587587257E+02  0.43730972664E+02  0.12404505761E+03  0.00000000000E+00 0. -1.
         22    1    1    2    0    0 -0.90691197247E+03 -0.10070098097E+03 -0.50209762180E+02  0.91386598229E+03  0.00000000000E+00 0. -1.
<mgrwt>
<rscale>  0 0.18731402E+04</rscale>
<asrwt>0</asrwt>
<pdfrwt beam="1">  1        2 0.16976753E+00 0.18731402E+04</pdfrwt>
<pdfrwt beam="2">  1       -2 0.12229233E+00 0.18731402E+04</pdfrwt>
<totfact> 0.10307386E+01</totfact>
</mgrwt>
</event>
<event>
 6    1  0.8968082E-007  0.2131459E+04  0.7818608E-02  0.8547511E-01
          2   -1    0    0  501    0  0.00000000000E+00  0.00000000000E+00  0.21964235093E+04  0.21964235093E+04  0.00000000000E+00 0. -1.
         -2   -1    0    0    0  501 -0.00000000000E+00 -0.00000000000E+00 -0.51710403273E+03  0.51710403273E+03  0.00000000000E+00 0.  1.
         23    2    1    2    0    0  0.27604259436E+03 -0.40788046277E+03  0.20415724909E+04  0.21021412222E+04  0.91725114431E+02 0.  0.
         13    1    3    3    0    0  0.22021486441E+03 -0.35186757213E+03  0.15681549641E+04  0.16221637915E+04  0.00000000000E+00 0.  1.
        -13    1    3    3    0    0  0.55827729959E+02 -0.56012890639E+02  0.47341752675E+03  0.47997743070E+03  0.00000000000E+00 0. -1.
         22    1    1    2    0    0 -0.27604259436E+03  0.40788046277E+03 -0.36225301427E+03  0.61138631990E+03  0.00000000000E+00 0.  1.
<mgrwt>
<rscale>  0 0.21314591E+04</rscale>
<asrwt>0</asrwt>
<pdfrwt beam="1">  1        2 0.33791130E+00 0.21314591E+04</pdfrwt>
<pdfrwt beam="2">  1       -2 0.79554468E-01 0.21314591E+04</pdfrwt>
<totfact> 0.66743843E+00</totfact>
</mgrwt>
</event>
<event>
 6    1  0.8968082E-007  0.2832139E+04  0.7818608E-02  0.8293359E-01
         -1   -1    0    0    0  501 -0.00000000000E+00  0.00000000000E+00  0.18793058848E+04  0.18793058848E+04  0.00000000000E+00 0.  1.
          1   -1    0    0  501    0  0.00000000000E+00 -0.00000000000E+00 -0.10670175527E+04  0.10670175527E+04  0.00000000000E+00 0. -1.
         23    2    1    2    0    0  0.27923607604E+03 -0.11197900199E+04 -0.44455294183E+03  0.12399962525E+04  0.89782589144E+02 0.  0.
         13    1    3    3    0    0  0.55376696982E+02 -0.23977282665E+03 -0.56363905034E+02  0.25245688099E+03  0.00000000000E+00 0. -1.
        -13    1    3    3    0    0  0.22385937906E+03 -0.88001719321E+03 -0.38818903680E+03  0.98753937148E+03  0.00000000000E+00 0.  1.
         22    1    1    2    0    0 -0.27923607604E+03  0.11197900199E+04  0.12568412739E+04  0.17063271851E+04  0.00000000000E+00 0.  1.
<mgrwt>
<rscale>  0 0.28321387E+04</rscale>
<asrwt>0</asrwt>
<pdfrwt beam="1">  1        1 0.16415655E+00 0.28321387E+04</pdfrwt>
<pdfrwt beam="2">  1       -1 0.28912398E+00 0.28321387E+04</pdfrwt>
<totfact> 0.45037893E-01</totfact>
</mgrwt>
</event>
<event>
 6    1  0.1025745E-006  0.3355222E+04  0.7818608E-02  0.8148985E-01
         -1   -1    0    0    0  501 -0.00000000000E+00  0.00000000000E+00  0.15497494454E+04  0.15497494454E+04  0.00000000000E+00 0.  1.
          1   -1    0    0  501    0  0.00000000000E+00 -0.00000000000E+00 -0.18160217688E+04  0.18160217688E+04  0.00000000000E+00 0. -1.
         23    2    1    2    0    0 -0.66850116317E+03 -0.11193046480E+03  0.14046673400E+04  0.15625902492E+04  0.95789961983E+02 0.  0.
         11    1    3    3    0    0 -0.17487927375E+03  0.12863267162E+02  0.35267520176E+03  0.39386294820E+03  0.00000000000E+00 0.  1.
        -11    1    3    3    0    0 -0.49362188941E+03 -0.12479373196E+03  0.10519921382E+04  0.11687273010E+04  0.00000000000E+00 0. -1.
         22    1    1    2    0    0  0.66850116317E+03  0.11193046480E+03 -0.16709396633E+04  0.18031809650E+04  0.00000000000E+00 0. -1.
<mgrwt>
<rscale>  0 0.33552220E+04</rscale>
<asrwt>0</asrwt>
<pdfrwt beam="1">  1        1 0.27938796E+00 0.33552220E+04</pdfrwt>
<pdfrwt beam="2">  1       -1 0.23842299E+00 0.33552220E+04</pdfrwt>
<totfact> 0.27244748E-01</totfact>
</mgrwt>
</event>
<event>
 6    1  0.8968082E-007  0.2707210E+04  0.7818608E-02  0.8332669E-01
         -2   -1    0    0    0  501 -0.00000000000E+00  0.00000000000E+00  0.63560363864E+03  0.63560363864E+03  0.00000000000E+00 0.  1.
          2   -1    0    0  501    0  0.00000000000E+00 -0.00000000000E+00 -0.28826870753E+04  0.28826870753E+04  0.00000000000E+00 0. -1.
         23    2    1    2    0    0  0.98809537046E+03  0.91955811086E+03 -0.10221455998E+04  0.16955476480E+04  0.90446774284E+02 0.  0.
         13    1    3    3    0    0  0.78769216282E+03  0.72592655413E+03 -0.76435028588E+03  0.13159254025E+04  0.00000000000E+00 0.  1.
        -13    1    3    3    0    0  0.20040320764E+03  0.19363155673E+03 -0.25779531394E+03  0.37962224551E+03  0.00000000000E+00 0. -1.
         22    1    1    2    0    0 -0.98809537046E+03 -0.91955811086E+03 -0.12249378368E+04  0.18227430660E+04  0.00000000000E+00 0. -1.
<mgrwt>
<rscale>  0 0.27072099E+04</rscale>
<asrwt>0</asrwt>
<pdfrwt beam="1">  1        2 0.44349033E+00 0.27072099E+04</pdfrwt>
<pdfrwt beam="2">  1       -2 0.97785173E-01 0.27072099E+04</pdfrwt>
<totfact> 0.15716592E+00</totfact>
</mgrwt>
</event>
<event>
 6    1  0.8968082E-007  0.1584806E+04  0.7818608E-02  0.8829937E-01
         -1   -1    0    0    0  501 -0.00000000000E+00  0.00000000000E+00  0.12355557749E+04  0.12355557749E+04  0.00000000000E+00 0.  1.
          1   -1    0    0  501    0  0.00000000000E+00 -0.00000000000E+00 -0.50819471108E+03  0.50819471108E+03  0.00000000000E+00 0. -1.
         23    2    1    2    0    0 -0.20168374243E+03 -0.76248158493E+03  0.40239189472E+03  0.89072090839E+03  0.97005156459E+02 0.  0.
         11    1    3    3    0    0 -0.11660106177E+03 -0.31975609672E+03  0.13218758388E+03  0.36512097492E+03  0.00000000000E+00 0. -1.
        -11    1    3    3    0    0 -0.85082680656E+02 -0.44272548822E+03  0.27020431085E+03  0.52559993347E+03  0.00000000000E+00 0.  1.
         22    1    1    2    0    0  0.20168374243E+03  0.76248158493E+03  0.32496916905E+03  0.85302957754E+03  0.00000000000E+00 0. -1.
<mgrwt>
<rscale>  0 0.15848065E+04</rscale>
<asrwt>0</asrwt>
<pdfrwt beam="1">  1        1 0.78183802E-01 0.15848065E+04</pdfrwt>
<pdfrwt beam="2">  1       -1 0.19008550E+00 0.15848065E+04</pdfrwt>
<totfact> 0.73449938E+00</totfact>
</mgrwt>
</event>
<event>
 6    1  0.8968082E-007  0.1516246E+04  0.7818608E-02  0.8873721E-01
         -2   -1    0    0    0  501 -0.00000000000E+00  0.00000000000E+00  0.59257167630E+03  0.59257167630E+03  0.00000000000E+00 0.  1.
          2   -1    0    0  501    0  0.00000000000E+00 -0.00000000000E+00 -0.96992608195E+03  0.96992608195E+03  0.00000000000E+00 0. -1.
         23    2    1    2    0    0 -0.42119052921E+03 -0.30641837985E+03 -0.75325705236E+03  0.92016102007E+03  0.89478659510E+02 0.  0.
         11    1    3    3    0    0 -0.39490823616E+03 -0.26371996608E+03 -0.70868919364E+03  0.85307743417E+03  0.00000000000E+00 0.  1.
        -11    1    3    3    0    0 -0.26282293050E+02 -0.42698413768E+02 -0.44567858721E+02  0.67083585901E+02  0.00000000000E+00 0. -1.
         22    1    1    2    0    0  0.42119052921E+03  0.30641837985E+03  0.37590264671E+03  0.64233673818E+03  0.00000000000E+00 0.  1.
<mgrwt>
<rscale>  0 0.15162463E+04</rscale>
<asrwt>0</asrwt>
<pdfrwt beam="1">  1        2 0.14921940E+00 0.15162463E+04</pdfrwt>
<pdfrwt beam="2">  1       -2 0.91164874E-01 0.15162463E+04</pdfrwt>
<totfact> 0.26086445E+01</totfact>
</mgrwt>
</event>
<event>
 6    1  0.8968082E-007  0.2440434E+04  0.7818608E-02  0.8424519E-01
          2   -1    0    0  501    0  0.00000000000E+00  0.00000000000E+00  0.22517181890E+04  0.22517181890E+04  0.00000000000E+00 0. -1.
         -2   -1    0    0    0  501 -0.00000000000E+00 -0.00000000000E+00 -0.66124161515E+03  0.66124161515E+03  0.00000000000E+00 0.  1.
         23    2    1    2    0    0 -0.42749880873E+03  0.34057932456E+03  0.20962263942E+04  0.21682904892E+04  0.92569122177E+02 0.  0.
         11    1    3    3    0    0 -0.29967068197E+03  0.26246524854E+03  0.13682937068E+04  0.14251028708E+04  0.00000000000E+00 0. -1.
        -11    1    3    3    0    0 -0.12782812676E+03  0.78114076024E+02  0.72793268735E+03  0.74318761842E+03  0.00000000000E+00 0.  1.
         22    1    1    2    0    0  0.42749880873E+03 -0.34057932456E+03 -0.50574982033E+03  0.74466931490E+03  0.00000000000E+00 0.  1.
<mgrwt>
<rscale>  0 0.24404342E+04</rscale>
<asrwt>0</asrwt>
<pdfrwt beam="1">  1        2 0.34641818E+00 0.24404342E+04</pdfrwt>
<pdfrwt beam="2">  1       -2 0.10172948E+00 0.24404342E+04</pdfrwt>
<totfact> 0.34309570E+00</totfact>
</mgrwt>
</event>
<event>
 6    1  0.8968082E-007  0.1157715E+04  0.7818608E-02  0.9150695E-01
         -2   -1    0    0    0  501 -0.00000000000E+00  0.00000000000E+00  0.46201058839E+03  0.46201058839E+03  0.00000000000E+00 0.  1.
          2   -1    0    0  501    0  0.00000000000E+00 -0.00000000000E+00 -0.72525618112E+03  0.72525618112E+03  0.00000000000E+00 0. -1.
         23    2    1    2    0    0 -0.46989095237E+03 -0.15700671132E+02 -0.47239119862E+03  0.67269325420E+03  0.91207190004E+02 0.  0.
         13    1    3    3    0    0 -0.25962392986E+03  0.33634310434E+02 -0.23557379265E+03  0.35218015785E+03  0.00000000000E+00 0.  1.
        -13    1    3    3    0    0 -0.21026702251E+03 -0.49334981566E+02 -0.23681740597E+03  0.32051309635E+03  0.00000000000E+00 0. -1.
         22    1    1    2    0    0  0.46989095237E+03  0.15700671132E+02  0.20914560590E+03  0.51457351531E+03  0.00000000000E+00 0.  1.
<mgrwt>
<rscale>  0 0.11577151E+04</rscale>
<asrwt>0</asrwt>
<pdfrwt beam="1">  1        2 0.11157787E+00 0.11577151E+04</pdfrwt>
<pdfrwt beam="2">  1       -2 0.71078553E-01 0.11577151E+04</pdfrwt>
<totfact> 0.69689833E+01</totfact>
</mgrwt>
</event>
<event>
 6    1  0.8968082E-007  0.2238231E+04  0.7818608E-02  0.8502682E-01
         -2   -1    0    0    0  501 -0.00000000000E+00  0.00000000000E+00  0.40599116838E+03  0.40599116838E+03  0.00000000000E+00 0.  1.
          2   -1    0    0  501    0  0.00000000000E+00 -0.00000000000E+00 -0.30848429574E+04  0.30848429574E+04  0.00000000000E+00 0. -1.
         23    2    1    2    0    0  0.89573990646E+03 -0.31683788201E+03 -0.42504597796E+03  0.10449443373E+04  0.92240778011E+02 0.  0.
         13    1    3    3    0    0  0.24457563859E+03 -0.59100490117E+02 -0.78505538506E+02  0.26357775039E+03  0.00000000000E+00 0. -1.
        -13    1    3    3    0    0  0.65116426787E+03 -0.25773739189E+03 -0.34654043945E+03  0.78136658689E+03  0.00000000000E+00 0.  1.
         22    1    1    2    0    0 -0.89573990646E+03  0.31683788201E+03 -0.22538058110E+04  0.24458897885E+04  0.00000000000E+00 0. -1.
<mgrwt>
<rscale>  0 0.22382305E+04</rscale>
<asrwt>0</asrwt>
<pdfrwt beam="1">  1        2 0.47459123E+00 0.22382305E+04</pdfrwt>
<pdfrwt beam="2">  1       -2 0.62460179E-01 0.22382305E+04</pdfrwt>
<totfact> 0.33384752E+00</totfact>
</mgrwt>
</event>
<event>
 6    1  0.8968082E-007  0.5544649E+04  0.7818608E-02  0.7749575E-01
          2   -1    0    0  501    0  0.00000000000E+00  0.00000000000E+00  0.25446562783E+04  0.25446562783E+04  0.00000000000E+00 0. -1.
         -2   -1    0    0    0  501 -0.00000000000E+00 -0.00000000000E+00 -0.30203614906E+04  0.30203614906E+04  0.00000000000E+00 0.  1.
         23    2    1    2    0    0 -0.19621438298E+04 -0.81065983708E+03 -0.20261933903E+04  0.29361032837E+04  0.89805663037E+02 0.  0.
         13    1    3    3    0    0 -0.38730678129E+03 -0.17068775071E+03 -0.35723979090E+03  0.55386019832E+03  0.00000000000E+00 0.  1.
        -13    1    3    3    0    0 -0.15748370485E+04 -0.63997208637E+03 -0.16689535994E+04  0.23822430853E+04  0.00000000000E+00 0. -1.
         22    1    1    2    0    0  0.19621438298E+04  0.81065983708E+03  0.15504881781E+04  0.26289144852E+04  0.00000000000E+00 0. -1.
<mgrwt>
<rscale>  0 0.55446485E+04</rscale>
<asrwt>0</asrwt>
<pdfrwt beam="1">  1        2 0.39148558E+00 0.55446485E+04</pdfrwt>
<pdfrwt beam="2">  1       -2 0.46467100E+00 0.55446485E+04</pdfrwt>
<totfact> 0.63872222E-03</totfact>
</mgrwt>
</event>
<event>
 6    1  0.8968082E-007  0.1091978E+04  0.7818608E-02  0.9213046E-01
         -1   -1    0    0    0  501 -0.00000000000E+00  0.00000000000E+00  0.26946187997E+03  0.26946187997E+03  0.00000000000E+00 0.  1.
          1   -1    0    0  501    0  0.00000000000E+00 -0.00000000000E+00 -0.11062941083E+04  0.11062941083E+04  0.00000000000E+00 0. -1.
         23    2    1    2    0    0 -0.50232773465E+03 -0.20027921069E+03 -0.46952269191E+03  0.72202729013E+03  0.91798334675E+02 0.  0.
         11    1    3    3    0    0 -0.24909473532E+03 -0.13919810973E+03 -0.20978623392E+03  0.35416742490E+03  0.00000000000E+00 0.  1.
        -11    1    3    3    0    0 -0.25323299933E+03 -0.61081100965E+02 -0.25973645799E+03  0.36785986523E+03  0.00000000000E+00 0. -1.
         22    1    1    2    0    0  0.50232773465E+03  0.20027921069E+03 -0.36730953647E+03  0.65372869817E+03  0.00000000000E+00 0.  1.
<mgrwt>
<rscale>  0 0.10919782E+04</rscale>
<asrwt>0</asrwt>
<pdfrwt beam="1">  1        1 0.17019909E+00 0.10919782E+04</pdfrwt>
<pdfrwt beam="2">  1       -1 0.41455674E-01 0.10919782E+04</pdfrwt>
<totfact> 0.71262412E+01</totfact>
</mgrwt>
</event>
<event>
 6    1  0.8968082E-007  0.1982670E+04  0.7818608E-02  0.8614766E-01
          2   -1    0    0  501    0  0.00000000000E+00  0.00000000000E+00  0.11236431401E+04  0.11236431401E+04  0.00000000000E+00 0. -1.
         -2   -1    0    0    0  501 -0.00000000000E+00 -0.00000000000E+00 -0.87460577643E+03  0.87460577643E+03  0.00000000000E+00 0.  1.
         23    2    1    2    0    0 -0.64573019568E+03  0.88732062139E+02 -0.62512984959E+03  0.90783194069E+03  0.92361459655E+02 0.  0.
         11    1    3    3    0    0 -0.39237154014E+03  0.73820184040E+02 -0.32524130887E+03  0.51496286670E+03  0.00000000000E+00 0. -1.
        -11    1    3    3    0    0 -0.25335865554E+03  0.14911878098E+02 -0.29988854072E+03  0.39286907400E+03  0.00000000000E+00 0.  1.
         22    1    1    2    0    0  0.64573019568E+03 -0.88732062139E+02  0.87416721325E+03  0.10904169758E+04  0.00000000000E+00 0. -1.
<mgrwt>
<rscale>  0 0.19826697E+04</rscale>
<asrwt>0</asrwt>
<pdfrwt beam="1">  1        2 0.17286818E+00 0.19826697E+04</pdfrwt>
<pdfrwt beam="2">  1       -2 0.13455473E+00 0.19826697E+04</pdfrwt>
<totfact> 0.77991559E+00</totfact>
</mgrwt>
</event>
<event>
 6    1  0.8968082E-007  0.2216146E+04  0.7818608E-02  0.8511738E-01
          1   -1    0    0  501    0  0.00000000000E+00  0.00000000000E+00  0.19357332698E+04  0.19357332698E+04  0.00000000000E+00 0. -1.
         -1   -1    0    0    0  501 -0.00000000000E+00 -0.00000000000E+00 -0.63429502299E+03  0.63429502299E+03  0.00000000000E+00 0.  1.
         23    2    1    2    0    0  0.25470841786E+03  0.10074191031E+04  0.21175282995E+03  0.10643112095E+04  0.90274371950E+02 0.  0.
         13    1    3    3    0    0  0.10517860127E+03  0.29536644104E+03  0.93510535951E+02  0.32718204870E+03  0.00000000000E+00 0. -1.
        -13    1    3    3    0    0  0.14952981660E+03  0.71205266202E+03  0.11824229399E+03  0.73712916075E+03  0.00000000000E+00 0.  1.
         22    1    1    2    0    0 -0.25470841786E+03 -0.10074191031E+04  0.10896854169E+04  0.15057170834E+04  0.00000000000E+00 0. -1.
<mgrwt>
<rscale>  0 0.22161462E+04</rscale>
<asrwt>0</asrwt>
<pdfrwt beam="1">  1        1 0.29780512E+00 0.22161462E+04</pdfrwt>
<pdfrwt beam="2">  1       -1 0.97583850E-01 0.22161462E+04</pdfrwt>
<totfact> 0.30225647E+00</totfact>
</mgrwt>
</event>
<event>
 6    1  0.8968082E-007  0.2571431E+04  0.7818608E-02  0.8377971E-01
          2   -1    0    0  501    0  0.00000000000E+00  0.00000000000E+00  0.27526527904E+04  0.27526527904E+04  0.00000000000E+00 0. -1.
         -2   -1    0    0    0  501 -0.00000000000E+00 -0.00000000000E+00 -0.60053478503E+03  0.60053478503E+03  0.00000000000E+00 0.  1.
         23    2    1    2    0    0  0.10368184724E+04  0.33138011296E+03  0.19652008285E+04  0.22487676576E+04  0.10067948028E+03 0.  0.
         11    1    3    3    0    0  0.71155599557E+03  0.27466214868E+03  0.13928403863E+04  0.15880036437E+04  0.00000000000E+00 0. -1.
        -11    1    3    3    0    0  0.32526247680E+03  0.56717964279E+02  0.57236044217E+03  0.66076401389E+03  0.00000000000E+00 0.  1.
         22    1    1    2    0    0 -0.10368184724E+04 -0.33138011296E+03  0.18691717691E+03  0.11044199178E+04  0.00000000000E+00 0.  1.
<mgrwt>
<rscale>  0 0.25714305E+04</rscale>
<asrwt>0</asrwt>
<pdfrwt beam="1">  1        2 0.42348504E+00 0.25714305E+04</pdfrwt>
<pdfrwt beam="2">  1       -2 0.92389969E-01 0.25714305E+04</pdfrwt>
<totfact> 0.21773665E+00</totfact>
</mgrwt>
</event>
<event>
 6    1  0.8968082E-007  0.6437612E+03  0.7818608E-02  0.9818557E-01
          2   -1    0    0  501    0  0.00000000000E+00  0.00000000000E+00  0.20788241926E+04  0.20788241926E+04  0.00000000000E+00 0. -1.
         -2   -1    0    0    0  501 -0.00000000000E+00 -0.00000000000E+00 -0.49839285439E+02  0.49839285439E+02  0.00000000000E+00 0.  1.
         23    2    1    2    0    0 -0.10591821464E+03  0.25250455951E+03  0.51820257171E+03  0.59326760534E+03  0.91952843663E+02 0.  0.
         13    1    3    3    0    0 -0.24922113927E+02  0.92099574943E+02  0.10062739332E+03  0.13866980837E+03  0.00000000000E+00 0.  1.
        -13    1    3    3    0    0 -0.80996100716E+02  0.16040498457E+03  0.41757517839E+03  0.45459779697E+03  0.00000000000E+00 0. -1.
         22    1    1    2    0    0  0.10591821464E+03 -0.25250455951E+03  0.15107823354E+04  0.15353958726E+04  0.00000000000E+00 0. -1.
<mgrwt>
<rscale>  0 0.64376117E+03</rscale>
<asrwt>0</asrwt>
<pdfrwt beam="1">  1        2 0.31981904E+00 0.64376117E+03</pdfrwt>
<pdfrwt beam="2">  1       -2 0.76675840E-02 0.64376117E+03</pdfrwt>
<totfact> 0.65696175E+02</totfact>
</mgrwt>
</event>
<event>
 6    1  0.8968082E-007  0.5052650E+04  0.7818608E-02  0.7820436E-01
          2   -1    0    0  501    0  0.00000000000E+00  0.00000000000E+00  0.23531242911E+04  0.23531242911E+04  0.00000000000E+00 0. -1.
         -2   -1    0    0    0  501 -0.00000000000E+00 -0.00000000000E+00 -0.27122737627E+04  0.27122737627E+04  0.00000000000E+00 0.  1.
         23    2    1    2    0    0  0.13374363820E+04  0.16208597217E+04 -0.15839469865E+04  0.26331046368E+04  0.91813174694E+02 0.  0.
         13    1    3    3    0    0  0.87667028447E+03  0.10082188289E+04 -0.97177275052E+03  0.16520890634E+04  0.00000000000E+00 0.  1.
        -13    1    3    3    0    0  0.46076609754E+03  0.61264089273E+03 -0.61217423602E+03  0.98101557345E+03  0.00000000000E+00 0. -1.
         22    1    1    2    0    0 -0.13374363820E+04 -0.16208597217E+04  0.12247975149E+04  0.24322934169E+04  0.00000000000E+00 0. -1.
<mgrwt>
<rscale>  0 0.50526497E+04</rscale>
<asrwt>0</asrwt>
<pdfrwt beam="1">  1        2 0.36201912E+00 0.50526497E+04</pdfrwt>
<pdfrwt beam="2">  1       -2 0.41727289E+00 0.50526497E+04</pdfrwt>
<totfact> 0.17543580E-02</totfact>
</mgrwt>
</event>
<event>
 6    1  0.8968082E-007  0.5781909E+04  0.7818608E-02  0.7718046E-01
         -2   -1    0    0    0  501 -0.00000000000E+00  0.00000000000E+00  0.25458305894E+04  0.25458305894E+04  0.00000000000E+00 0.  1.
          2   -1    0    0  501    0  0.00000000000E+00 -0.00000000000E+00 -0.32828651553E+04  0.32828651553E+04  0.00000000000E+00 0. -1.
         23    2    1    2    0    0  0.96985036688E+03  0.90437466214E+03 -0.29572958509E+04  0.32425666997E+04  0.10068161835E+03 0.  0.
         13    1    3    3    0    0  0.46804696499E+03  0.38378160146E+03 -0.14261072039E+04  0.15492378888E+04  0.00000000000E+00 0. -1.
        -13    1    3    3    0    0  0.50180340189E+03  0.52059306069E+03 -0.15311886470E+04  0.16933288108E+04  0.00000000000E+00 0.  1.
         22    1    1    2    0    0 -0.96985036688E+03 -0.90437466214E+03  0.22202612850E+04  0.25861290450E+04  0.00000000000E+00 0.  1.
<mgrwt>
<rscale>  0 0.57819092E+04</rscale>
<asrwt>0</asrwt>
<pdfrwt beam="1">  1        2 0.50505618E+00 0.57819092E+04</pdfrwt>
<pdfrwt beam="2">  1       -2 0.39166624E+00 0.57819092E+04</pdfrwt>
<totfact> 0.65829962E-03</totfact>
</mgrwt>
</event>
<event>
 6    1  0.8968082E-007  0.1931879E+04  0.7818608E-02  0.8639149E-01
          2   -1    0    0  501    0  0.00000000000E+00  0.00000000000E+00  0.57377662096E+03  0.57377662096E+03  0.00000000000E+00 0. -1.
         -2   -1    0    0    0  501 -0.00000000000E+00 -0.00000000000E+00 -0.16261367364E+04  0.16261367364E+04  0.00000000000E+00 0.  1.
         23    2    1    2    0    0 -0.90751877328E+03 -0.31858910914E+03 -0.45305962671E+03  0.10666656262E+04  0.86157927826E+02 0.  0.
         11    1    3    3    0    0 -0.23628062251E+03 -0.49705350135E+02 -0.13598101229E+03  0.27711006858E+03  0.00000000000E+00 0. -1.
        -11    1    3    3    0    0 -0.67123815078E+03 -0.26888375900E+03 -0.31707861442E+03  0.78955555766E+03  0.00000000000E+00 0.  1.
         22    1    1    2    0    0  0.90751877328E+03  0.31858910914E+03 -0.59930048877E+03  0.11332477312E+04  0.00000000000E+00 0.  1.
<mgrwt>
<rscale>  0 0.19318791E+04</rscale>
<asrwt>0</asrwt>
<pdfrwt beam="1">  1        2 0.88273328E-01 0.19318791E+04</pdfrwt>
<pdfrwt beam="2">  1       -2 0.25017488E+00 0.19318791E+04</pdfrwt>
<totfact> 0.31338517E+00</totfact>
</mgrwt>
</event>
<event>
 6    1  0.8968082E-007  0.4088846E+04  0.7818608E-02  0.7986859E-01
          2   -1    0    0  501    0  0.00000000000E+00  0.00000000000E+00  0.30555582322E+04  0.30555582322E+04  0.00000000000E+00 0. -1.
         -2   -1    0    0    0  501 -0.00000000000E+00 -0.00000000000E+00 -0.13678892455E+04  0.13678892455E+04  0.00000000000E+00 0.  1.
         23    2    1    2    0    0 -0.17853321026E+04  0.39523787399E+03 -0.14232721636E+03  0.18364589201E+04  0.93277194497E+02 0.  0.
         11    1    3    3    0    0 -0.52990129633E+03  0.12915661356E+03 -0.83726987915E+02  0.55180342802E+03  0.00000000000E+00 0.  1.
        -11    1    3    3    0    0 -0.12554308063E+04  0.26608126044E+03 -0.58600228449E+02  0.12846554921E+04  0.00000000000E+00 0. -1.
         22    1    1    2    0    0  0.17853321026E+04 -0.39523787399E+03  0.18299962031E+04  0.25869885576E+04  0.00000000000E+00 0. -1.
<mgrwt>
<rscale>  0 0.40888459E+04</rscale>
<asrwt>0</asrwt>
<pdfrwt beam="1">  1        2 0.47008588E+00 0.40888459E+04</pdfrwt>
<pdfrwt beam="2">  1       -2 0.21044450E+00 0.40888459E+04</pdfrwt>
<totfact> 0.14301424E-01</totfact>
</mgrwt>
</event>
<event>
 6    1  0.8968082E-007  0.1396093E+04  0.7818608E-02  0.8956651E-01
          1   -1    0    0  501    0  0.00000000000E+00  0.00000000000E+00  0.11192282627E+04  0.11192282627E+04  0.00000000000E+00 0. -1.
         -1   -1    0    0    0  501 -0.00000000000E+00 -0.00000000000E+00 -0.43536181541E+03  0.43536181541E+03  0.00000000000E+00 0.  1.
         23    2    1    2    0    0 -0.47598384949E+03  0.99845632242E+02  0.89636425193E+03  0.10238499418E+04  0.90939848098E+02 0.  0.
         13    1    3    3    0    0 -0.25118096205E+03  0.15305583830E+02  0.40268971772E+03  0.47485276176E+03  0.00000000000E+00 0.  1.
        -13    1    3    3    0    0 -0.22480288744E+03  0.84540048412E+02  0.49367453421E+03  0.54899718006E+03  0.00000000000E+00 0. -1.
         22    1    1    2    0    0  0.47598384949E+03 -0.99845632242E+02 -0.21249780467E+03  0.53074013626E+03  0.00000000000E+00 0.  1.
<mgrwt>
<rscale>  0 0.13960935E+04</rscale>
<asrwt>0</asrwt>
<pdfrwt beam="1">  1        1 0.17218896E+00 0.13960935E+04</pdfrwt>
<pdfrwt beam="2">  1       -1 0.66978741E-01 0.13960935E+04</pdfrwt>
<totfact> 0.27012524E+01</totfact>
</mgrwt>
</event>
<event>
 6    1  0.8968082E-007  0.3134162E+04  0.7818608E-02  0.8206424E-01
          2   -1    0    0  501    0  0.00000000000E+00  0.00000000000E+00  0.14719546863E+04  0.14719546863E+04  0.00000000000E+00 0. -1.
         -2   -1    0    0    0  501 -0.00000000000E+00 -0.00000000000E+00 -0.16683553997E+04  0.16683553997E+04  0.00000000000E+00 0.  1.
         23    2    1    2    0    0  0.82647169186E+03 -0.74797954196E+03 -0.11999911562E+04  0.16404025456E+04  0.91721776112E+02 0.  0.
         11    1    3    3    0    0  0.67456978500E+03 -0.64917364295E+03 -0.10307923505E+04  0.13924811250E+04  0.00000000000E+00 0.  1.
        -11    1    3    3    0    0  0.15190190687E+03 -0.98805899011E+02 -0.16919880564E+03  0.24792142066E+03  0.00000000000E+00 0. -1.
         22    1    1    2    0    0 -0.82647169186E+03  0.74797954196E+03  0.10035904428E+04  0.14999075403E+04  0.00000000000E+00 0.  1.
<mgrwt>
<rscale>  0 0.31341624E+04</rscale>
<asrwt>0</asrwt>
<pdfrwt beam="1">  1        2 0.22645457E+00 0.31341624E+04</pdfrwt>
<pdfrwt beam="2">  1       -2 0.25667006E+00 0.31341624E+04</pdfrwt>
<totfact> 0.65185533E-01</totfact>
</mgrwt>
</event>
<event>
 6    1  0.8968082E-007  0.3018238E+04  0.7818608E-02  0.8238542E-01
         -2   -1    0    0    0  501 -0.00000000000E+00  0.00000000000E+00  0.53569600406E+03  0.53569600406E+03  0.00000000000E+00 0.  1.
          2   -1    0    0  501    0  0.00000000000E+00 -0.00000000000E+00 -0.42513666744E+04  0.42513666744E+04  0.00000000000E+00 0. -1.
         23    2    1    2    0    0  0.47318618327E+03  0.12575869725E+04 -0.77433222987E+03  0.15533493364E+04  0.88733315661E+02 0.  0.
         11    1    3    3    0    0  0.29758307293E+03  0.67855039982E+03 -0.44879378869E+03  0.86625758014E+03  0.00000000000E+00 0. -1.
        -11    1    3    3    0    0  0.17560311034E+03  0.57903657263E+03 -0.32553844118E+03  0.68709175624E+03  0.00000000000E+00 0.  1.
         22    1    1    2    0    0 -0.47318618327E+03 -0.12575869725E+04 -0.29413384405E+04  0.32337133421E+04  0.00000000000E+00 0. -1.
<mgrwt>
<rscale>  0 0.30182380E+04</rscale>
<asrwt>0</asrwt>
<pdfrwt beam="1">  1        2 0.65405643E+00 0.30182380E+04</pdfrwt>
<pdfrwt beam="2">  1       -2 0.82414767E-01 0.30182380E+04</pdfrwt>
<totfact> 0.23141326E-01</totfact>
</mgrwt>
</event>
<event>
 6    1  0.8968082E-007  0.2991433E+04  0.7818608E-02  0.8246181E-01
          2   -1    0    0  501    0  0.00000000000E+00  0.00000000000E+00  0.13058328562E+04  0.13058328562E+04  0.00000000000E+00 0. -1.
         -2   -1    0    0    0  501 -0.00000000000E+00 -0.00000000000E+00 -0.17132119415E+04  0.17132119415E+04  0.00000000000E+00 0.  1.
         23    2    1    2    0    0 -0.14100064596E+04 -0.50840375461E+02  0.29272553933E+03  0.14439735468E+04  0.93104256826E+02 0.  0.
         13    1    3    3    0    0 -0.32419579988E+03 -0.34367639787E+02  0.35096026955E+02  0.32789599332E+03  0.00000000000E+00 0. -1.
        -13    1    3    3    0    0 -0.10858106597E+04 -0.16472735673E+02  0.25762951238E+03  0.11160775535E+04  0.00000000000E+00 0.  1.
         22    1    1    2    0    0  0.14100064596E+04  0.50840375461E+02 -0.70010462453E+03  0.15750712509E+04  0.00000000000E+00 0.  1.
<mgrwt>
<rscale>  0 0.29914334E+04</rscale>
<asrwt>0</asrwt>
<pdfrwt beam="1">  1        2 0.20089736E+00 0.29914334E+04</pdfrwt>
<pdfrwt beam="2">  1       -2 0.26357107E+00 0.29914334E+04</pdfrwt>
<totfact> 0.74546308E-01</totfact>
</mgrwt>
</event>
<event>
 6    1  0.8968082E-007  0.1987542E+04  0.7818608E-02  0.8612467E-01
          2   -1    0    0  501    0  0.00000000000E+00  0.00000000000E+00  0.16390436251E+04  0.16390436251E+04  0.00000000000E+00 0. -1.
         -2   -1    0    0    0  501 -0.00000000000E+00 -0.00000000000E+00 -0.60253492743E+03  0.60253492743E+03  0.00000000000E+00 0.  1.
         23    2    1    2    0    0  0.29744193420E+03  0.27072858438E+03 -0.50289739080E+03  0.65049817246E+03  0.92067453925E+02 0.  0.
         11    1    3    3    0    0  0.12010928362E+03  0.17032216129E+03 -0.23983678817E+03  0.31773819978E+03  0.00000000000E+00 0. -1.
        -11    1    3    3    0    0  0.17733265058E+03  0.10040642309E+03 -0.26306060263E+03  0.33275997268E+03  0.00000000000E+00 0.  1.
         22    1    1    2    0    0 -0.29744193420E+03 -0.27072858438E+03  0.15394060885E+04  0.15910803801E+04  0.00000000000E+00 0. -1.
<mgrwt>
<rscale>  0 0.19875422E+04</rscale>
<asrwt>0</asrwt>
<pdfrwt beam="1">  1        2 0.25216056E+00 0.19875422E+04</pdfrwt>
<pdfrwt beam="2">  1       -2 0.92697682E-01 0.19875422E+04</pdfrwt>
<totfact> 0.97337448E+00</totfact>
</mgrwt>
</event>
<event>
 6    1  0.8968082E-007  0.2635851E+04  0.7818608E-02  0.8356124E-01
          2   -1    0    0  501    0  0.00000000000E+00  0.00000000000E+00  0.28836159220E+04  0.28836159220E+04  0.00000000000E+00 0. -1.
         -2   -1    0    0    0  501 -0.00000000000E+00 -0.00000000000E+00 -0.60234366086E+03  0.60234366086E+03  0.00000000000E+00 0.  1.
         23    2    1    2    0    0 -0.10327713802E+04 -0.12238441592E+03  0.74811101165E+02  0.10466839692E+04  0.91410948927E+02 0.  0.
         11    1    3    3    0    0 -0.44480455932E+03 -0.55087852876E+02 -0.13045175923E+02  0.44839262276E+03  0.00000000000E+00 0. -1.
        -11    1    3    3    0    0 -0.58796682083E+03 -0.67296563048E+02  0.87856277088E+02  0.59829134644E+03  0.00000000000E+00 0.  1.
         22    1    1    2    0    0  0.10327713802E+04  0.12238441592E+03  0.22064611600E+04  0.24392756137E+04  0.00000000000E+00 0. -1.
<mgrwt>
<rscale>  0 0.26358511E+04</rscale>
<asrwt>0</asrwt>
<pdfrwt beam="1">  1        2 0.44363321E+00 0.26358511E+04</pdfrwt>
<pdfrwt beam="2">  1       -2 0.92668258E-01 0.26358511E+04</pdfrwt>
<totfact> 0.17906398E+00</totfact>
</mgrwt>
</event>
<event>
 6    1  0.8968082E-007  0.1352390E+04  0.7818608E-02  0.8989021E-01
         -2   -1    0    0    0  501 -0.00000000000E+00  0.00000000000E+00  0.30632125611E+03  0.30632125611E+03  0.00000000000E+00 0.  1.
          2   -1    0    0  501    0  0.00000000000E+00 -0.00000000000E+00 -0.14926809509E+04  0.14926809509E+04  0.00000000000E+00 0. -1.
         23    2    1    2    0    0 -0.26197368670E+03  0.58683143441E+03 -0.86132304607E+03  0.10788285002E+04  0.94827201958E+02 0.  0.
         13    1    3    3    0    0 -0.17950761684E+03  0.43315706549E+03 -0.55703897222E+03  0.72810744019E+03  0.00000000000E+00 0.  1.
        -13    1    3    3    0    0 -0.82466069859E+02  0.15367436893E+03 -0.30428407385E+03  0.35072106002E+03  0.00000000000E+00 0. -1.
         22    1    1    2    0    0  0.26197368670E+03 -0.58683143441E+03 -0.32503664868E+03  0.72017370677E+03  0.00000000000E+00 0.  1.
<mgrwt>
<rscale>  0 0.13523903E+04</rscale>
<asrwt>0</asrwt>
<pdfrwt beam="1">  1        2 0.22964322E+00 0.13523903E+04</pdfrwt>
<pdfrwt beam="2">  1       -2 0.47126348E-01 0.13523903E+04</pdfrwt>
<totfact> 0.53399248E+01</totfact>
</mgrwt>
</event>
<event>
 6    1  0.8968082E-007  0.2064926E+04  0.7818608E-02  0.8576853E-01
          1   -1    0    0  501    0  0.00000000000E+00  0.00000000000E+00  0.71465685803E+03  0.71465685803E+03  0.00000000000E+00 0. -1.
         -1   -1    0    0    0  501 -0.00000000000E+00 -0.00000000000E+00 -0.14915962827E+04  0.14915962827E+04  0.00000000000E+00 0.  1.
         23    2    1    2    0    0 -0.34110234661E+03 -0.97164805408E+03 -0.42954710176E+03  0.11194540894E+04  0.90642119848E+02 0.  0.
         11    1    3    3    0    0 -0.12182976025E+03 -0.26301083185E+03 -0.88852617146E+02  0.30316987932E+03  0.00000000000E+00 0. -1.
        -11    1    3    3    0    0 -0.21927258636E+03 -0.70863722223E+03 -0.34069448461E+03  0.81628421013E+03  0.00000000000E+00 0.  1.
         22    1    1    2    0    0  0.34110234661E+03  0.97164805408E+03 -0.34739232291E+03  0.10867990513E+04  0.00000000000E+00 0.  1.
<mgrwt>
<rscale>  0 0.20649257E+04</rscale>
<asrwt>0</asrwt>
<pdfrwt beam="1">  1        1 0.10994721E+00 0.20649257E+04</pdfrwt>
<pdfrwt beam="2">  1       -1 0.22947635E+00 0.20649257E+04</pdfrwt>
<totfact> 0.23164765E+00</totfact>
</mgrwt>
</event>
<event>
 6    1  0.8968082E-007  0.1967242E+04  0.7818608E-02  0.8622091E-01
         -1   -1    0    0    0  501 -0.00000000000E+00  0.00000000000E+00  0.61340063416E+03  0.61340063416E+03  0.00000000000E+00 0.  1.
          1   -1    0    0  501    0  0.00000000000E+00 -0.00000000000E+00 -0.15772885889E+04  0.15772885889E+04  0.00000000000E+00 0. -1.
         23    2    1    2    0    0  0.37085429746E+03  0.37155166089E+03 -0.14065236703E+04  0.15040234213E+04  0.90521102654E+02 0.  0.
         11    1    3    3    0    0  0.21047961541E+03  0.21331207838E+03 -0.92646267333E+03  0.97372316207E+03  0.00000000000E+00 0. -1.
        -11    1    3    3    0    0  0.16037468205E+03  0.15823958251E+03 -0.48006099700E+03  0.53030025925E+03  0.00000000000E+00 0.  1.
         22    1    1    2    0    0 -0.37085429746E+03 -0.37155166089E+03  0.44263571555E+03  0.68666580178E+03  0.00000000000E+00 0.  1.
<mgrwt>
<rscale>  0 0.19672415E+04</rscale>
<asrwt>0</asrwt>
<pdfrwt beam="1">  1        1 0.24265979E+00 0.19672415E+04</pdfrwt>
<pdfrwt beam="2">  1       -1 0.94369327E-01 0.19672415E+04</pdfrwt>
<totfact> 0.58483763E+00</totfact>
</mgrwt>
</event>
<event>
 6    1  0.8968082E-007  0.2721486E+04  0.7818608E-02  0.8328067E-01
         -2   -1    0    0    0  501 -0.00000000000E+00  0.00000000000E+00  0.63488062845E+03  0.63488062845E+03  0.00000000000E+00 0.  1.
          2   -1    0    0  501    0  0.00000000000E+00 -0.00000000000E+00 -0.29164876790E+04  0.29164876790E+04  0.00000000000E+00 0. -1.
         23    2    1    2    0    0 -0.38425240575E+03 -0.11462747002E+04 -0.33157524638E+03  0.12569795791E+04  0.91977815899E+02 0.  0.
         13    1    3    3    0    0 -0.19188180351E+03 -0.53838689329E+03 -0.20304997036E+03  0.60655450196E+03  0.00000000000E+00 0. -1.
        -13    1    3    3    0    0 -0.19237060224E+03 -0.60788780689E+03 -0.12852527602E+03  0.65042507712E+03  0.00000000000E+00 0.  1.
         22    1    1    2    0    0  0.38425240575E+03  0.11462747002E+04 -0.19500318042E+04  0.22943887284E+04  0.00000000000E+00 0. -1.
<mgrwt>
<rscale>  0 0.27214860E+04</rscale>
<asrwt>0</asrwt>
<pdfrwt beam="1">  1        2 0.44869040E+00 0.27214860E+04</pdfrwt>
<pdfrwt beam="2">  1       -2 0.97673945E-01 0.27214860E+04</pdfrwt>
<totfact> 0.15003470E+00</totfact>
</mgrwt>
</event>
<event>
 6    1  0.8968082E-007  0.2908321E+04  0.7818608E-02  0.8270406E-01
          2   -1    0    0  501    0  0.00000000000E+00  0.00000000000E+00  0.16665081933E+04  0.16665081933E+04  0.00000000000E+00 0. -1.
         -2   -1    0    0    0  501 -0.00000000000E+00 -0.00000000000E+00 -0.12688705894E+04  0.12688705894E+04  0.00000000000E+00 0.  1.
         23    2    1    2    0    0  0.18289171847E+03 -0.12849531665E+04 -0.45947613771E+03  0.13800016623E+04  0.93446488388E+02 0.  0.
         11    1    3    3    0    0  0.17196742360E+02 -0.43223245531E+03 -0.14923367476E+03  0.45759295564E+03  0.00000000000E+00 0.  1.
        -11    1    3    3    0    0  0.16569497611E+03 -0.85272071117E+03 -0.31024246295E+03  0.92240870670E+03  0.00000000000E+00 0. -1.
         22    1    1    2    0    0 -0.18289171847E+03  0.12849531665E+04  0.85711374163E+03  0.15553771204E+04  0.00000000000E+00 0.  1.
<mgrwt>
<rscale>  0 0.29083213E+04</rscale>
<asrwt>0</asrwt>
<pdfrwt beam="1">  1        2 0.25638588E+00 0.29083213E+04</pdfrwt>
<pdfrwt beam="2">  1       -2 0.19521086E+00 0.29083213E+04</pdfrwt>
<totfact> 0.12632737E+00</totfact>
</mgrwt>
</event>
<event>
 6    1  0.8968082E-007  0.1328847E+04  0.7818608E-02  0.9006997E-01
         -1   -1    0    0    0  501 -0.00000000000E+00  0.00000000000E+00  0.37410586558E+03  0.37410586558E+03  0.00000000000E+00 0.  1.
          1   -1    0    0  501    0  0.00000000000E+00 -0.00000000000E+00 -0.11800365630E+04  0.11800365630E+04  0.00000000000E+00 0. -1.
         23    2    1    2    0    0  0.32136069094E+03 -0.26152654011E+03  0.19816256364E+03  0.46792325099E+03  0.89526210249E+02 0.  0.
         13    1    3    3    0    0  0.15660590399E+03 -0.18448671397E+03  0.11542851420E+03  0.26811284692E+03  0.00000000000E+00 0.  1.
        -13    1    3    3    0    0  0.16475478695E+03 -0.77039826145E+02  0.82734049443E+02  0.19981040406E+03  0.00000000000E+00 0. -1.
         22    1    1    2    0    0 -0.32136069094E+03  0.26152654011E+03 -0.10040932611E+04  0.10862191776E+04  0.00000000000E+00 0. -1.
<mgrwt>
<rscale>  0 0.13288470E+04</rscale>
<asrwt>0</asrwt>
<pdfrwt beam="1">  1        1 0.18154409E+00 0.13288470E+04</pdfrwt>
<pdfrwt beam="2">  1       -1 0.57554749E-01 0.13288470E+04</pdfrwt>
<totfact> 0.33128558E+01</totfact>
</mgrwt>
</event>
<event>
 6    1  0.8968082E-007  0.9096806E+03  0.7818608E-02  0.9413561E-01
         -2   -1    0    0    0  501 -0.00000000000E+00  0.00000000000E+00  0.10170463424E+03  0.10170463424E+03  0.00000000000E+00 0.  1.
          2   -1    0    0  501    0  0.00000000000E+00 -0.00000000000E+00 -0.20341224193E+04  0.20341224193E+04  0.00000000000E+00 0. -1.
         23    2    1    2    0    0 -0.42649356144E+03 -0.12695636858E+03 -0.11413007922E+04  0.12281482701E+04  0.88124897930E+02 0.  0.
         11    1    3    3    0    0 -0.14750850739E+03 -0.21975222445E+02 -0.28875948701E+03  0.32499801767E+03  0.00000000000E+00 0.  1.
        -11    1    3    3    0    0 -0.27898505405E+03 -0.10498114613E+03 -0.85254130520E+03  0.90315025245E+03  0.00000000000E+00 0. -1.
         22    1    1    2    0    0  0.42649356144E+03  0.12695636858E+03 -0.79111699281E+03  0.90767878338E+03  0.00000000000E+00 0.  1.
<mgrwt>
<rscale>  0 0.90968055E+03</rscale>
<asrwt>0</asrwt>
<pdfrwt beam="1">  1        2 0.31294188E+00 0.90968055E+03</pdfrwt>
<pdfrwt beam="2">  1       -2 0.15646868E-01 0.90968055E+03</pdfrwt>
<totfact> 0.21098376E+02</totfact>
</mgrwt>
</event>
<event>
 6    1  0.8968082E-007  0.2568295E+04  0.7818608E-02  0.8379051E-01
         -3   -1    0    0    0  501 -0.00000000000E+00  0.00000000000E+00  0.14294923402E+04  0.14294923402E+04  0.00000000000E+00 0.  1.
          3   -1    0    0  501    0  0.00000000000E+00 -0.00000000000E+00 -0.11535808085E+04  0.11535808085E+04  0.00000000000E+00 0. -1.
         23    2    1    2    0    0  0.53837241128E+03  0.75378316448E+03 -0.75407218120E+03  0.11978293576E+04  0.90202012573E+02 0.  0.
         13    1    3    3    0    0  0.32425294358E+03  0.51306804961E+03 -0.52536238156E+03  0.80273558966E+03  0.00000000000E+00 0. -1.
        -13    1    3    3    0    0  0.21411946769E+03  0.24071511487E+03 -0.22870979964E+03  0.39509376789E+03  0.00000000000E+00 0.  1.
         22    1    1    2    0    0 -0.53837241128E+03 -0.75378316448E+03  0.10299837129E+04  0.13852437912E+04  0.00000000000E+00 0. -1.
<mgrwt>
<rscale>  0 0.25682951E+04</rscale>
<asrwt>0</asrwt>
<pdfrwt beam="1">  1        3 0.17747397E+00 0.25682951E+04</pdfrwt>
<pdfrwt beam="2">  1       -3 0.21992190E+00 0.25682951E+04</pdfrwt>
<totfact> 0.52529390E-02</totfact>
</mgrwt>
</event>
<event>
 6    1  0.8968082E-007  0.3807577E+04  0.7818608E-02  0.8044531E-01
         -2   -1    0    0    0  501 -0.00000000000E+00  0.00000000000E+00  0.27061040945E+04  0.27061040945E+04  0.00000000000E+00 0.  1.
          2   -1    0    0  501    0  0.00000000000E+00 -0.00000000000E+00 -0.13393464667E+04  0.13393464667E+04  0.00000000000E+00 0. -1.
         23    2    1    2    0    0 -0.28864680926E+03 -0.15222830099E+04  0.18568841421E+04  0.24203700885E+04  0.97519771685E+02 0.  0.
         13    1    3    3    0    0 -0.11643115078E+03 -0.79853270802E+03  0.10199262019E+04  0.13005614772E+04  0.00000000000E+00 0. -1.
        -13    1    3    3    0    0 -0.17221565848E+03 -0.72375030184E+03  0.83695794012E+03  0.11198086113E+04  0.00000000000E+00 0.  1.
         22    1    1    2    0    0  0.28864680926E+03  0.15222830099E+04 -0.49012651422E+03  0.16250804726E+04  0.00000000000E+00 0. -1.
<mgrwt>
<rscale>  0 0.38075772E+04</rscale>
<asrwt>0</asrwt>
<pdfrwt beam="1">  1        2 0.20605330E+00 0.38075772E+04</pdfrwt>
<pdfrwt beam="2">  1       -2 0.41632371E+00 0.38075772E+04</pdfrwt>
<totfact> 0.72815106E-02</totfact>
</mgrwt>
</event>
<event>
 6    1  0.8968082E-007  0.2245503E+04  0.7818608E-02  0.8499724E-01
         -1   -1    0    0    0  501 -0.00000000000E+00  0.00000000000E+00  0.75923083946E+03  0.75923083946E+03  0.00000000000E+00 0.  1.
          1   -1    0    0  501    0  0.00000000000E+00 -0.00000000000E+00 -0.16603256180E+04  0.16603256180E+04  0.00000000000E+00 0. -1.
         23    2    1    2    0    0  0.94079860685E+03 -0.14548437356E+03 -0.10889570737E+04  0.14492163297E+04  0.90181707075E+02 0.  0.
         11    1    3    3    0    0  0.27273187986E+03 -0.78069369928E+02 -0.29220743259E+03  0.40726243194E+03  0.00000000000E+00 0.  1.
        -11    1    3    3    0    0  0.66806672700E+03 -0.67415003633E+02 -0.79674964115E+03  0.10419538978E+04  0.00000000000E+00 0. -1.
         22    1    1    2    0    0 -0.94079860685E+03  0.14548437356E+03  0.18786229517E+03  0.97034012777E+03  0.00000000000E+00 0.  1.
<mgrwt>
<rscale>  0 0.22455025E+04</rscale>
<asrwt>0</asrwt>
<pdfrwt beam="1">  1        1 0.25543470E+00 0.22455025E+04</pdfrwt>
<pdfrwt beam="2">  1       -1 0.11680475E+00 0.22455025E+04</pdfrwt>
<totfact> 0.30456754E+00</totfact>
</mgrwt>
</event>
<event>
 6    1  0.8968082E-007  0.1231155E+04  0.7818608E-02  0.9086015E-01
          2   -1    0    0  501    0  0.00000000000E+00  0.00000000000E+00  0.21124343362E+04  0.21124343362E+04  0.00000000000E+00 0. -1.
         -2   -1    0    0    0  501 -0.00000000000E+00 -0.00000000000E+00 -0.17938347950E+03  0.17938347950E+03  0.00000000000E+00 0.  1.
         23    2    1    2    0    0 -0.23207246542E+03  0.17007983627E+03  0.19777330922E+04  0.20006455607E+04  0.91486039642E+02 0.  0.
         13    1    3    3    0    0 -0.10871722568E+03  0.11670708256E+03  0.12969985329E+04  0.13067689821E+04  0.00000000000E+00 0. -1.
        -13    1    3    3    0    0 -0.12335523974E+03  0.53372753710E+02  0.68073455935E+03  0.69387657858E+03  0.00000000000E+00 0.  1.
         22    1    1    2    0    0  0.23207246542E+03 -0.17007983627E+03 -0.44682235553E+02  0.29117225501E+03  0.00000000000E+00 0.  1.
<mgrwt>
<rscale>  0 0.12311553E+04</rscale>
<asrwt>0</asrwt>
<pdfrwt beam="1">  1        2 0.32498988E+00 0.12311553E+04</pdfrwt>
<pdfrwt beam="2">  1       -2 0.27597460E-01 0.12311553E+04</pdfrwt>
<totfact> 0.68309873E+01</totfact>
</mgrwt>
</event>
<event>
 6    1  0.8968082E-007  0.4308100E+04  0.7818608E-02  0.7945122E-01
         -1   -1    0    0    0  501 -0.00000000000E+00  0.00000000000E+00  0.14018717638E+04  0.14018717638E+04  0.00000000000E+00 0.  1.
          1   -1    0    0  501    0  0.00000000000E+00 -0.00000000000E+00 -0.33098123110E+04  0.33098123110E+04  0.00000000000E+00 0. -1.
         23    2    1    2    0    0 -0.20537423258E+04  0.59353647621E+03 -0.67302551996E+03  0.22428466533E+04  0.85174351410E+02 0.  0.
         11    1    3    3    0    0 -0.92863794969E+03  0.31220661319E+03 -0.31374223977E+03  0.10287252325E+04  0.00000000000E+00 0. -1.
        -11    1    3    3    0    0 -0.11251043761E+04  0.28132986302E+03 -0.35928328018E+03  0.12141214208E+04  0.00000000000E+00 0.  1.
         22    1    1    2    0    0  0.20537423258E+04 -0.59353647621E+03 -0.12349150273E+04  0.24688374215E+04  0.00000000000E+00 0. -1.
<mgrwt>
<rscale>  0 0.43081005E+04</rscale>
<asrwt>0</asrwt>
<pdfrwt beam="1">  1        1 0.50920189E+00 0.43081005E+04</pdfrwt>
<pdfrwt beam="2">  1       -1 0.21567258E+00 0.43081005E+04</pdfrwt>
<totfact> 0.31497719E-02</totfact>
</mgrwt>
</event>
<event>
 6    1  0.8968082E-007  0.2209096E+04  0.7818608E-02  0.8514651E-01
         -2   -1    0    0    0  501 -0.00000000000E+00  0.00000000000E+00  0.70292713729E+03  0.70292713729E+03  0.00000000000E+00 0.  1.
          2   -1    0    0  501    0  0.00000000000E+00 -0.00000000000E+00 -0.17356376492E+04  0.17356376492E+04  0.00000000000E+00 0. -1.
         23    2    1    2    0    0 -0.15266821503E+03 -0.10913872657E+04 -0.55272894916E+03  0.12365597747E+04  0.95587852613E+02 0.  0.
         11    1    3    3    0    0 -0.36678645073E+02 -0.57839320056E+03 -0.31096586544E+03  0.65771102083E+03  0.00000000000E+00 0. -1.
        -11    1    3    3    0    0 -0.11598956996E+03 -0.51299406516E+03 -0.24176308372E+03  0.57884875389E+03  0.00000000000E+00 0.  1.
         22    1    1    2    0    0  0.15266821503E+03  0.10913872657E+04 -0.47998156271E+03  0.12020050117E+04  0.00000000000E+00 0. -1.
<mgrwt>
<rscale>  0 0.22090965E+04</rscale>
<asrwt>0</asrwt>
<pdfrwt beam="1">  1        2 0.26702117E+00 0.22090965E+04</pdfrwt>
<pdfrwt beam="2">  1       -2 0.10814264E+00 0.22090965E+04</pdfrwt>
<totfact> 0.58593391E+00</totfact>
</mgrwt>
</event>
<event>
 6    1  0.8968082E-007  0.9604031E+03  0.7818608E-02  0.9353073E-01
         -1   -1    0    0    0  501 -0.00000000000E+00  0.00000000000E+00  0.62496148323E+03  0.62496148323E+03  0.00000000000E+00 0.  1.
          1   -1    0    0  501    0  0.00000000000E+00 -0.00000000000E+00 -0.36897236149E+03  0.36897236149E+03  0.00000000000E+00 0. -1.
         23    2    1    2    0    0  0.22336629179E+03 -0.22808170344E+03  0.49458787599E+03  0.59538255657E+03  0.89159732137E+02 0.  0.
         11    1    3    3    0    0  0.83405914846E+02 -0.13264204274E+03  0.18464605960E+03  0.24216652423E+03  0.00000000000E+00 0.  1.
        -11    1    3    3    0    0  0.13996037695E+03 -0.95439660699E+02  0.30994181640E+03  0.35321603234E+03  0.00000000000E+00 0. -1.
         22    1    1    2    0    0 -0.22336629179E+03  0.22808170344E+03 -0.23859875426E+03  0.39855128815E+03  0.00000000000E+00 0. -1.
<mgrwt>
<rscale>  0 0.96040307E+03</rscale>
<asrwt>0</asrwt>
<pdfrwt beam="1">  1        1 0.56764979E-01 0.96040307E+03</pdfrwt>
<pdfrwt beam="2">  1       -1 0.96147921E-01 0.96040307E+03</pdfrwt>
<totfact> 0.69988486E+01</totfact>
</mgrwt>
</event>
<event>
 6    1  0.8968082E-007  0.2140789E+04  0.7818608E-02  0.8543485E-01
          1   -1    0    0  501    0  0.00000000000E+00  0.00000000000E+00  0.19738439659E+04  0.19738439659E+04  0.00000000000E+00 0. -1.
         -1   -1    0    0    0  501 -0.00000000000E+00 -0.00000000000E+00 -0.58046374957E+03  0.58046374957E+03  0.00000000000E+00 0.  1.
         23    2    1    2    0    0  0.67857602426E+02 -0.10258050970E+04  0.10458314667E+04  0.14691022582E+04  0.87276784345E+02 0.  0.
         13    1    3    3    0    0  0.45376178298E+01 -0.45563334960E+03  0.41336870035E+03  0.61522030336E+03  0.00000000000E+00 0.  1.
        -13    1    3    3    0    0  0.63319984597E+02 -0.57017174738E+03  0.63246276635E+03  0.85388195483E+03  0.00000000000E+00 0. -1.
         22    1    1    2    0    0 -0.67857602426E+02  0.10258050970E+04  0.34754874966E+03  0.10852054573E+04  0.00000000000E+00 0. -1.
<mgrwt>
<rscale>  0 0.21407895E+04</rscale>
<asrwt>0</asrwt>
<pdfrwt beam="1">  1        1 0.30366830E+00 0.21407895E+04</pdfrwt>
<pdfrwt beam="2">  1       -1 0.89302116E-01 0.21407895E+04</pdfrwt>
<totfact> 0.34955494E+00</totfact>
</mgrwt>
</event>
<event>
 6    1  0.8968082E-007  0.2998748E+04  0.7818608E-02  0.8244088E-01
         -2   -1    0    0    0  501 -0.00000000000E+00  0.00000000000E+00  0.43392653450E+03  0.43392653450E+03  0.00000000000E+00 0.  1.
          2   -1    0    0  501    0  0.00000000000E+00 -0.00000000000E+00 -0.51808838681E+04  0.51808838681E+04  0.00000000000E+00 0. -1.
         23    2    1    2    0    0 -0.17803378837E+03  0.28560830822E+03 -0.51088327993E+04  0.51206221913E+04  0.85620792481E+02 0.  0.
         13    1    3    3    0    0 -0.25034845049E+02  0.10616508324E+03 -0.19073017674E+04  0.19104182266E+04  0.00000000000E+00 0.  1.
        -13    1    3    3    0    0 -0.15299894332E+03  0.17944322497E+03 -0.32015310318E+04  0.32102039648E+04  0.00000000000E+00 0. -1.
         22    1    1    2    0    0  0.17803378837E+03 -0.28560830822E+03  0.36187546565E+03  0.49418821128E+03  0.00000000000E+00 0.  1.
<mgrwt>
<rscale>  0 0.29987484E+04</rscale>
<asrwt>0</asrwt>
<pdfrwt beam="1">  1        2 0.79705906E+00 0.29987484E+04</pdfrwt>
<pdfrwt beam="2">  1       -2 0.66757928E-01 0.29987484E+04</pdfrwt>
<totfact> 0.34640837E-02</totfact>
</mgrwt>
</event>
<event>
 6    1  0.8968082E-007  0.2530507E+04  0.7818608E-02  0.8392197E-01
          2   -1    0    0  501    0  0.00000000000E+00  0.00000000000E+00  0.83902147307E+03  0.83902147307E+03  0.00000000000E+00 0. -1.
         -2   -1    0    0    0  501 -0.00000000000E+00 -0.00000000000E+00 -0.19080158991E+04  0.19080158991E+04  0.00000000000E+00 0.  1.
         23    2    1    2    0    0 -0.10994166893E+04  0.29783042129E+03  0.58304639434E+02  0.11444696826E+04  0.94823029424E+02 0.  0.
         13    1    3    3    0    0 -0.42728148098E+03  0.69081130589E+02  0.31354691733E+02  0.43396403456E+03  0.00000000000E+00 0. -1.
        -13    1    3    3    0    0 -0.67213520833E+03  0.22874929070E+03  0.26949947701E+02  0.71050564808E+03  0.00000000000E+00 0.  1.
         22    1    1    2    0    0  0.10994166893E+04 -0.29783042129E+03 -0.11272990655E+04  0.16025676896E+04  0.00000000000E+00 0.  1.
<mgrwt>
<rscale>  0 0.25305069E+04</rscale>
<asrwt>0</asrwt>
<pdfrwt beam="1">  1        2 0.12908023E+00 0.25305069E+04</pdfrwt>
<pdfrwt beam="2">  1       -2 0.29354091E+00 0.25305069E+04</pdfrwt>
<totfact> 0.10006238E+00</totfact>
</mgrwt>
</event>
<event>
 6    1  0.8968082E-007  0.1363024E+04  0.7818608E-02  0.8981028E-01
         -1   -1    0    0    0  501 -0.00000000000E+00  0.00000000000E+00  0.20190253654E+03  0.20190253654E+03  0.00000000000E+00 0.  1.
          1   -1    0    0  501    0  0.00000000000E+00 -0.00000000000E+00 -0.23004087319E+04  0.23004087319E+04  0.00000000000E+00 0. -1.
         23    2    1    2    0    0 -0.50737260635E+03 -0.24172550914E+03 -0.35622786574E+03  0.67163053131E+03  0.91274831206E+02 0.  0.
         11    1    3    3    0    0 -0.28044332429E+03 -0.10751528141E+03 -0.14351124626E+03  0.33287155432E+03  0.00000000000E+00 0. -1.
        -11    1    3    3    0    0 -0.22692928206E+03 -0.13421022774E+03 -0.21271661948E+03  0.33875897699E+03  0.00000000000E+00 0.  1.
         22    1    1    2    0    0  0.50737260635E+03  0.24172550914E+03 -0.17422783296E+04  0.18306807372E+04  0.00000000000E+00 0. -1.
<mgrwt>
<rscale>  0 0.13630236E+04</rscale>
<asrwt>0</asrwt>
<pdfrwt beam="1">  1        1 0.35390905E+00 0.13630236E+04</pdfrwt>
<pdfrwt beam="2">  1       -1 0.31061927E-01 0.13630236E+04</pdfrwt>
<totfact> 0.17499626E+01</totfact>
</mgrwt>
</event>
<event>
 6    1  0.8968082E-007  0.3180076E+04  0.7818608E-02  0.8194099E-01
          2   -1    0    0  501    0  0.00000000000E+00  0.00000000000E+00  0.16365918055E+04  0.16365918055E+04  0.00000000000E+00 0. -1.
         -2   -1    0    0    0  501 -0.00000000000E+00 -0.00000000000E+00 -0.15448082092E+04  0.15448082092E+04  0.00000000000E+00 0.  1.
         23    2    1    2    0    0  0.96540767002E+03  0.16961878526E+03 -0.12050469998E+04  0.15558071700E+04  0.87264981906E+02 0.  0.
         11    1    3    3    0    0  0.28894004710E+03  0.73113815814E+02 -0.31421073301E+03  0.43308240049E+03  0.00000000000E+00 0. -1.
        -11    1    3    3    0    0  0.67646762292E+03  0.96504969450E+02 -0.89083626675E+03  0.11227247695E+04  0.00000000000E+00 0.  1.
         22    1    1    2    0    0 -0.96540767002E+03 -0.16961878526E+03  0.12968305961E+04  0.16255928446E+04  0.00000000000E+00 0. -1.
<mgrwt>
<rscale>  0 0.31800758E+04</rscale>
<asrwt>0</asrwt>
<pdfrwt beam="1">  1        2 0.25178335E+00 0.31800758E+04</pdfrwt>
<pdfrwt beam="2">  1       -2 0.23766280E+00 0.31800758E+04</pdfrwt>
<totfact> 0.68728852E-01</totfact>
</mgrwt>
</event>
<event>
 6    1  0.8968082E-007  0.2437158E+04  0.7818608E-02  0.8425722E-01
          2   -1    0    0  501    0  0.00000000000E+00  0.00000000000E+00  0.38163553637E+04  0.38163553637E+04  0.00000000000E+00 0. -1.
         -2   -1    0    0    0  501 -0.00000000000E+00 -0.00000000000E+00 -0.38909751888E+03  0.38909751888E+03  0.00000000000E+00 0.  1.
         23    2    1    2    0    0 -0.32407311354E+02 -0.24728871248E+03  0.37712498785E+04  0.37805617666E+04  0.90109288157E+02 0.  0.
         11    1    3    3    0    0 -0.55679723476E+02 -0.11444737447E+03  0.21177697570E+04  0.21215907185E+04  0.00000000000E+00 0.  1.
        -11    1    3    3    0    0  0.23272412122E+02 -0.13284133801E+03  0.16534801215E+04  0.16589710481E+04  0.00000000000E+00 0. -1.
         22    1    1    2    0    0  0.32407311354E+02  0.24728871248E+03 -0.34399203372E+03  0.42489111595E+03  0.00000000000E+00 0.  1.
<mgrwt>
<rscale>  0 0.24371577E+04</rscale>
<asrwt>0</asrwt>
<pdfrwt beam="1">  1        2 0.58713157E+00 0.24371577E+04</pdfrwt>
<pdfrwt beam="2">  1       -2 0.59861159E-01 0.24371577E+04</pdfrwt>
<totfact> 0.11169670E+00</totfact>
</mgrwt>
</event>
<event>
 6    1  0.8968082E-007  0.2432152E+04  0.7818608E-02  0.8427564E-01
          1   -1    0    0  501    0  0.00000000000E+00  0.00000000000E+00  0.21533831914E+04  0.21533831914E+04  0.00000000000E+00 0. -1.
         -1   -1    0    0    0  501 -0.00000000000E+00 -0.00000000000E+00 -0.68675225094E+03  0.68675225094E+03  0.00000000000E+00 0.  1.
         23    2    1    2    0    0  0.56091836308E+03  0.10350955377E+02 -0.52336245047E+03  0.77257401682E+03  0.90696221490E+02 0.  0.
         13    1    3    3    0    0  0.40557903322E+03 -0.10641348917E+02 -0.32554427482E+03  0.52017945496E+03  0.00000000000E+00 0. -1.
        -13    1    3    3    0    0  0.15533932986E+03  0.20992304294E+02 -0.19781817565E+03  0.25239456187E+03  0.00000000000E+00 0.  1.
         22    1    1    2    0    0 -0.56091836308E+03 -0.10350955377E+02  0.19899933909E+04  0.20675614255E+04  0.00000000000E+00 0. -1.
<mgrwt>
<rscale>  0 0.24321519E+04</rscale>
<asrwt>0</asrwt>
<pdfrwt beam="1">  1        1 0.33128972E+00 0.24321519E+04</pdfrwt>
<pdfrwt beam="2">  1       -1 0.10565419E+00 0.24321519E+04</pdfrwt>
<totfact> 0.17571634E+00</totfact>
</mgrwt>
</event>
<event>
 6    1  0.8968082E-007  0.2081691E+04  0.7818608E-02  0.8569352E-01
         -2   -1    0    0    0  501 -0.00000000000E+00  0.00000000000E+00  0.59054825940E+03  0.59054825940E+03  0.00000000000E+00 0.  1.
          2   -1    0    0  501    0  0.00000000000E+00 -0.00000000000E+00 -0.18344984645E+04  0.18344984645E+04  0.00000000000E+00 0. -1.
         23    2    1    2    0    0 -0.15337032856E+02 -0.35967261270E+03  0.51211057932E+03  0.63246504056E+03  0.90305975298E+02 0.  0.
         11    1    3    3    0    0 -0.47060082445E+02 -0.29798245132E+03  0.41030092426E+03  0.50926912444E+03  0.00000000000E+00 0. -1.
        -11    1    3    3    0    0  0.31723049589E+02 -0.61690161388E+02  0.10180965505E+03  0.12319591612E+03  0.00000000000E+00 0.  1.
         22    1    1    2    0    0  0.15337032856E+02  0.35967261270E+03 -0.17560607844E+04  0.17925816833E+04  0.00000000000E+00 0. -1.
<mgrwt>
<rscale>  0 0.20816915E+04</rscale>
<asrwt>0</asrwt>
<pdfrwt beam="1">  1        2 0.28223053E+00 0.20816915E+04</pdfrwt>
<pdfrwt beam="2">  1       -2 0.90853579E-01 0.20816915E+04</pdfrwt>
<totfact> 0.78788923E+00</totfact>
</mgrwt>
</event>
<event>
 6    1  0.8968082E-007  0.2839665E+04  0.7818608E-02  0.8291059E-01
          1   -1    0    0  501    0  0.00000000000E+00  0.00000000000E+00  0.13449734934E+04  0.13449734934E+04  0.00000000000E+00 0. -1.
         -1   -1    0    0    0  501 -0.00000000000E+00 -0.00000000000E+00 -0.14988578885E+04  0.14988578885E+04  0.00000000000E+00 0.  1.
         23    2    1    2    0    0  0.13822950606E+04 -0.27530087515E+03  0.81849726525E+02  0.14148104645E+04  0.91973183258E+02 0.  0.
         11    1    3    3    0    0  0.10752511543E+04 -0.22706519586E+03  0.99771899400E+02  0.11034845172E+04  0.00000000000E+00 0.  1.
        -11    1    3    3    0    0  0.30704390630E+03 -0.48235679290E+02 -0.17922172875E+02  0.31132594725E+03  0.00000000000E+00 0. -1.
         22    1    1    2    0    0 -0.13822950606E+04  0.27530087515E+03 -0.23573412169E+03  0.14290209174E+04  0.00000000000E+00 0. -1.
<mgrwt>
<rscale>  0 0.28396649E+04</rscale>
<asrwt>0</asrwt>
<pdfrwt beam="1">  1        1 0.20691900E+00 0.28396649E+04</pdfrwt>
<pdfrwt beam="2">  1       -1 0.23059352E+00 0.28396649E+04</pdfrwt>
<totfact> 0.67810942E-01</totfact>
</mgrwt>
</event>
<event>
 6    1  0.8968082E-007  0.5340621E+04  0.7818608E-02  0.7778009E-01
          2   -1    0    0  501    0  0.00000000000E+00  0.00000000000E+00  0.26524364450E+04  0.26524364450E+04  0.00000000000E+00 0. -1.
         -2   -1    0    0    0  501 -0.00000000000E+00 -0.00000000000E+00 -0.26883049190E+04  0.26883049190E+04  0.00000000000E+00 0.  1.
         23    2    1    2    0    0  0.60504836507E+03  0.20633457852E+04 -0.15999509929E+04  0.26818255174E+04  0.94157170273E+02 0.  0.
         13    1    3    3    0    0  0.51496408110E+03  0.16198640223E+04 -0.12628866332E+04  0.21175528574E+04  0.00000000000E+00 0.  1.
        -13    1    3    3    0    0  0.90084283968E+02  0.44348176287E+03 -0.33706435972E+03  0.56427265999E+03  0.00000000000E+00 0. -1.
         22    1    1    2    0    0 -0.60504836507E+03 -0.20633457852E+04  0.15640825189E+04  0.26589158466E+04  0.00000000000E+00 0. -1.
<mgrwt>
<rscale>  0 0.53406209E+04</rscale>
<asrwt>0</asrwt>
<pdfrwt beam="1">  1        2 0.40806715E+00 0.53406209E+04</pdfrwt>
<pdfrwt beam="2">  1       -2 0.41358537E+00 0.53406209E+04</pdfrwt>
<totfact> 0.12156196E-02</totfact>
</mgrwt>
</event>
<event>
 6    1  0.8968082E-007  0.1875571E+04  0.7818608E-02  0.8667113E-01
         -2   -1    0    0    0  501 -0.00000000000E+00  0.00000000000E+00  0.42699578687E+03  0.42699578687E+03  0.00000000000E+00 0.  1.
          2   -1    0    0  501    0  0.00000000000E+00 -0.00000000000E+00 -0.20596018115E+04  0.20596018115E+04  0.00000000000E+00 0. -1.
         23    2    1    2    0    0 -0.91934440273E+03 -0.11198536210E+03 -0.99391544992E+03  0.13615818196E+04  0.91116836149E+02 0.  0.
         13    1    3    3    0    0 -0.32726430585E+03 -0.81910079266E+02 -0.37998189448E+03  0.50813130892E+03  0.00000000000E+00 0. -1.
        -13    1    3    3    0    0 -0.59208009688E+03 -0.30075282838E+02 -0.61393355544E+03  0.85345051072E+03  0.00000000000E+00 0.  1.
         22    1    1    2    0    0  0.91934440273E+03  0.11198536210E+03 -0.63869057469E+03  0.11250157787E+04  0.00000000000E+00 0. -1.
<mgrwt>
<rscale>  0 0.18755706E+04</rscale>
<asrwt>0</asrwt>
<pdfrwt beam="1">  1        2 0.31686181E+00 0.18755706E+04</pdfrwt>
<pdfrwt beam="2">  1       -2 0.65691660E-01 0.18755706E+04</pdfrwt>
<totfact> 0.12393627E+01</totfact>
</mgrwt>
</event>
<event>
 6    1  0.8968082E-007  0.3476204E+04  0.7818608E-02  0.8119452E-01
          2   -1    0    0  501    0  0.00000000000E+00  0.00000000000E+00  0.25563014949E+04  0.25563014949E+04  0.00000000000E+00 0. -1.
         -2   -1    0    0    0  501 -0.00000000000E+00 -0.00000000000E+00 -0.11817851117E+04  0.11817851117E+04  0.00000000000E+00 0.  1.
         23    2    1    2    0    0  0.12325471792E+04  0.45412328426E+03 -0.53423977117E+03  0.14210301630E+04  0.92271798372E+02 0.  0.
         11    1    3    3    0    0  0.12058470257E+04  0.44570634573E+03 -0.50692452612E+03  0.13819166658E+04  0.00000000000E+00 0. -1.
        -11    1    3    3    0    0  0.26700153516E+02  0.84169385266E+01 -0.27315245057E+02  0.39113497216E+02  0.00000000000E+00 0.  1.
         22    1    1    2    0    0 -0.12325471792E+04 -0.45412328426E+03  0.19087561543E+04  0.23170564436E+04  0.00000000000E+00 0. -1.
<mgrwt>
<rscale>  0 0.34762043E+04</rscale>
<asrwt>0</asrwt>
<pdfrwt beam="1">  1        2 0.39327715E+00 0.34762043E+04</pdfrwt>
<pdfrwt beam="2">  1       -2 0.18181309E+00 0.34762043E+04</pdfrwt>
<totfact> 0.46815596E-01</totfact>
</mgrwt>
</event>
<event>
 6    1  0.8968082E-007  0.2682730E+04  0.7818608E-02  0.8340630E-01
         -1   -1    0    0    0  501 -0.00000000000E+00  0.00000000000E+00  0.92607708560E+03  0.92607708560E+03  0.00000000000E+00 0.  1.
          1   -1    0    0  501    0  0.00000000000E+00 -0.00000000000E+00 -0.19428833139E+04  0.19428833139E+04  0.00000000000E+00 0. -1.
         23    2    1    2    0    0  0.32449162435E+03 -0.75370885813E+03 -0.16413239591E+04  0.18377503077E+04  0.10004997521E+03 0.  0.
         11    1    3    3    0    0  0.59186325639E+02 -0.18919095900E+03 -0.31688621882E+03  0.37378217692E+03  0.00000000000E+00 0. -1.
        -11    1    3    3    0    0  0.26530529871E+03 -0.56451789914E+03 -0.13244377403E+04  0.14639681308E+04  0.00000000000E+00 0.  1.
         22    1    1    2    0    0 -0.32449162435E+03  0.75370885813E+03  0.62451773089E+03  0.10312100917E+04  0.00000000000E+00 0.  1.
<mgrwt>
<rscale>  0 0.26827297E+04</rscale>
<asrwt>0</asrwt>
<pdfrwt beam="1">  1        1 0.29890512E+00 0.26827297E+04</pdfrwt>
<pdfrwt beam="2">  1       -1 0.14247340E+00 0.26827297E+04</pdfrwt>
<totfact> 0.11403899E+00</totfact>
</mgrwt>
</event>
<event>
 6    1  0.8968082E-007  0.1357806E+04  0.7818608E-02  0.8984940E-01
          2   -1    0    0  501    0  0.00000000000E+00  0.00000000000E+00  0.68441592285E+03  0.68441592285E+03  0.00000000000E+00 0. -1.
         -2   -1    0    0    0  501 -0.00000000000E+00 -0.00000000000E+00 -0.67343446274E+03  0.67343446274E+03  0.00000000000E+00 0.  1.
         23    2    1    2    0    0  0.16506370868E+02 -0.63613534930E+03  0.23265413899E+03  0.68399623262E+03  0.93713685986E+02 0.  0.
         13    1    3    3    0    0  0.39464439047E+01 -0.46451753990E+03  0.12514634400E+03  0.48109637986E+03  0.00000000000E+00 0.  1.
        -13    1    3    3    0    0  0.12559926963E+02 -0.17161780940E+03  0.10750779499E+03  0.20289985277E+03  0.00000000000E+00 0. -1.
         22    1    1    2    0    0 -0.16506370868E+02  0.63613534930E+03 -0.22167267889E+03  0.67385415297E+03  0.00000000000E+00 0.  1.
<mgrwt>
<rscale>  0 0.13578060E+04</rscale>
<asrwt>0</asrwt>
<pdfrwt beam="1">  1        2 0.10529476E+00 0.13578060E+04</pdfrwt>
<pdfrwt beam="2">  1       -2 0.10360530E+00 0.13578060E+04</pdfrwt>
<totfact> 0.31243566E+01</totfact>
</mgrwt>
</event>
<event>
 6    1  0.8968082E-007  0.2149331E+04  0.7818608E-02  0.8539819E-01
          2   -1    0    0  501    0  0.00000000000E+00  0.00000000000E+00  0.26532212847E+04  0.26532212847E+04  0.00000000000E+00 0. -1.
         -2   -1    0    0    0  501 -0.00000000000E+00 -0.00000000000E+00 -0.43528453941E+03  0.43528453941E+03  0.00000000000E+00 0.  1.
         23    2    1    2    0    0 -0.11845649101E+03 -0.84277104592E+03  0.20490435921E+04  0.22208538931E+04  0.96526660876E+02 0.  0.
         13    1    3    3    0    0 -0.13005264125E+03 -0.75989537277E+03  0.18008457558E+04  0.19589283048E+04  0.00000000000E+00 0. -1.
        -13    1    3    3    0    0  0.11596150231E+02 -0.82875673145E+02  0.24819783627E+03  0.26192558834E+03  0.00000000000E+00 0.  1.
         22    1    1    2    0    0  0.11845649101E+03  0.84277104592E+03  0.16889315319E+03  0.86765193096E+03  0.00000000000E+00 0.  1.
<mgrwt>
<rscale>  0 0.21493312E+04</rscale>
<asrwt>0</asrwt>
<pdfrwt beam="1">  1        2 0.40818788E+00 0.21493312E+04</pdfrwt>
<pdfrwt beam="2">  1       -2 0.66966854E-01 0.21493312E+04</pdfrwt>
<totfact> 0.53216821E+00</totfact>
</mgrwt>
</event>
<event>
 6    1  0.9512290E-007  0.2542256E+04  0.7818608E-02  0.8388084E-01
         -2   -1    0    0    0  501 -0.00000000000E+00  0.00000000000E+00  0.80562169737E+03  0.80562169737E+03  0.00000000000E+00 0.  1.
          2   -1    0    0  501    0  0.00000000000E+00 -0.00000000000E+00 -0.20056143731E+04  0.20056143731E+04  0.00000000000E+00 0. -1.
         23    2    1    2    0    0  0.86595567985E+03  0.33897568001E+03  0.35605051854E+03  0.99848838436E+03  0.73643267456E+02 0.  0.
         13    1    3    3    0    0  0.43711637331E+03  0.13721218215E+03  0.19530084188E+03  0.49803647013E+03  0.00000000000E+00 0. -1.
        -13    1    3    3    0    0  0.42883930654E+03  0.20176349786E+03  0.16074967667E+03  0.50045191422E+03  0.00000000000E+00 0.  1.
         22    1    1    2    0    0 -0.86595567985E+03 -0.33897568001E+03 -0.15560431943E+04  0.18127476861E+04  0.00000000000E+00 0. -1.
<mgrwt>
<rscale>  0 0.25422560E+04</rscale>
<asrwt>0</asrwt>
<pdfrwt beam="1">  1        2 0.30855606E+00 0.25422560E+04</pdfrwt>
<pdfrwt beam="2">  1       -2 0.12394180E+00 0.25422560E+04</pdfrwt>
<totfact> 0.28878065E+00</totfact>
</mgrwt>
</event>
<event>
 6    1  0.8968082E-007  0.3901416E+04  0.7818608E-02  0.8024735E-01
          2   -1    0    0  501    0  0.00000000000E+00  0.00000000000E+00  0.34346128776E+04  0.34346128776E+04  0.00000000000E+00 0. -1.
         -2   -1    0    0    0  501 -0.00000000000E+00 -0.00000000000E+00 -0.11079156938E+04  0.11079156938E+04  0.00000000000E+00 0.  1.
         23    2    1    2    0    0 -0.13282221714E+04 -0.13811388230E+04  0.15829158153E+04  0.24870652880E+04  0.90292211881E+02 0.  0.
         11    1    3    3    0    0 -0.11959778586E+04 -0.12430683341E+04  0.13884279412E+04  0.22143428076E+04  0.00000000000E+00 0.  1.
        -11    1    3    3    0    0 -0.13224431276E+03 -0.13807048890E+03  0.19448787404E+03  0.27272248039E+03  0.00000000000E+00 0. -1.
         22    1    1    2    0    0  0.13282221714E+04  0.13811388230E+04  0.74378136856E+03  0.20554632834E+04  0.00000000000E+00 0. -1.
<mgrwt>
<rscale>  0 0.39014159E+04</rscale>
<asrwt>0</asrwt>
<pdfrwt beam="1">  1        2 0.52840198E+00 0.39014159E+04</pdfrwt>
<pdfrwt beam="2">  1       -2 0.17044857E+00 0.39014159E+04</pdfrwt>
<totfact> 0.15161369E-01</totfact>
</mgrwt>
</event>
<event>
 6    1  0.8968082E-007  0.9326021E+03  0.7818608E-02  0.9385720E-01
          1   -1    0    0  501    0  0.00000000000E+00  0.00000000000E+00  0.34405932380E+03  0.34405932380E+03  0.00000000000E+00 0. -1.
         -1   -1    0    0    0  501 -0.00000000000E+00 -0.00000000000E+00 -0.63197439128E+03  0.63197439128E+03  0.00000000000E+00 0.  1.
         23    2    1    2    0    0  0.22956879571E+03  0.63432408134E+02  0.26890811521E+03  0.37041208473E+03  0.90377185838E+02 0.  0.
         11    1    3    3    0    0  0.36836449836E+02  0.15288280080E+02  0.10681592643E+03  0.11401884793E+03  0.00000000000E+00 0. -1.
        -11    1    3    3    0    0  0.19273234587E+03  0.48144128054E+02  0.16209218879E+03  0.25639323680E+03  0.00000000000E+00 0.  1.
         22    1    1    2    0    0 -0.22956879571E+03 -0.63432408134E+02 -0.55682318269E+03  0.60562163035E+03  0.00000000000E+00 0.  1.
<mgrwt>
<rscale>  0 0.93260213E+03</rscale>
<asrwt>0</asrwt>
<pdfrwt beam="1">  1        1 0.52932204E-01 0.93260213E+03</pdfrwt>
<pdfrwt beam="2">  1       -1 0.97226828E-01 0.93260213E+03</pdfrwt>
<totfact> 0.74951660E+01</totfact>
</mgrwt>
</event>
<event>
 6    1  0.8968082E-007  0.1335848E+04  0.7818608E-02  0.9001611E-01
         -2   -1    0    0    0  501 -0.00000000000E+00  0.00000000000E+00  0.22587528884E+03  0.22587528884E+03  0.00000000000E+00 0.  1.
          2   -1    0    0  501    0  0.00000000000E+00 -0.00000000000E+00 -0.19750824024E+04  0.19750824024E+04  0.00000000000E+00 0. -1.
         23    2    1    2    0    0 -0.50753054393E+03  0.16787984021E+03 -0.15297305670E+04  0.16230815382E+04  0.92450950552E+02 0.  0.
         13    1    3    3    0    0 -0.14830182992E+03  0.90075623546E+02 -0.54718187936E+03  0.57403402322E+03  0.00000000000E+00 0.  1.
        -13    1    3    3    0    0 -0.35922871401E+03  0.77804216664E+02 -0.98254868767E+03  0.10490475150E+04  0.00000000000E+00 0. -1.
         22    1    1    2    0    0  0.50753054393E+03 -0.16787984021E+03 -0.21947654658E+03  0.57787615306E+03  0.00000000000E+00 0.  1.
<mgrwt>
<rscale>  0 0.13358478E+04</rscale>
<asrwt>0</asrwt>
<pdfrwt beam="1">  1        2 0.30385884E+00 0.13358478E+04</pdfrwt>
<pdfrwt beam="2">  1       -2 0.34750044E-01 0.13358478E+04</pdfrwt>
<totfact> 0.52416896E+01</totfact>
</mgrwt>
</event>
<event>
 6    1  0.8968082E-007  0.7201933E+03  0.7818608E-02  0.9683309E-01
         -3   -1    0    0    0  501 -0.00000000000E+00  0.00000000000E+00  0.51217151875E+03  0.51217151875E+03  0.00000000000E+00 0.  1.
          3   -1    0    0  501    0  0.00000000000E+00 -0.00000000000E+00 -0.25317612446E+03  0.25317612446E+03  0.00000000000E+00 0. -1.
         23    2    1    2    0    0 -0.65354212157E+01  0.14354993561E+03 -0.21246358464E+03  0.27247558622E+03  0.91939515699E+02 0.  0.
         13    1    3    3    0    0 -0.99850228838E+01 -0.53998317227E+00 -0.66845151794E+02  0.67588953108E+02  0.00000000000E+00 0. -1.
        -13    1    3    3    0    0  0.34496016681E+01  0.14408991878E+03 -0.14561843285E+03  0.20488663312E+03  0.00000000000E+00 0.  1.
         22    1    1    2    0    0  0.65354212157E+01 -0.14354993561E+03  0.47145897893E+03  0.49287205698E+03  0.00000000000E+00 0.  1.
<mgrwt>
<rscale>  0 0.72019331E+03</rscale>
<asrwt>0</asrwt>
<pdfrwt beam="1">  1        3 0.38950173E-01 0.72019331E+03</pdfrwt>
<pdfrwt beam="2">  1       -3 0.78795618E-01 0.72019331E+03</pdfrwt>
<totfact> 0.25960797E+01</totfact>
</mgrwt>
</event>
<event>
 6    1  0.8968082E-007  0.1460851E+04  0.7818608E-02  0.8910912E-01
          2   -1    0    0  501    0  0.00000000000E+00  0.00000000000E+00  0.68643419686E+03  0.68643419686E+03  0.00000000000E+00 0. -1.
         -2   -1    0    0    0  501 -0.00000000000E+00 -0.00000000000E+00 -0.77723587707E+03  0.77723587707E+03  0.00000000000E+00 0.  1.
         23    2    1    2    0    0 -0.47125211956E+03 -0.41020547143E+03  0.33040405729E+03  0.71017066300E+03  0.69486980960E+02 0.  0.
         11    1    3    3    0    0 -0.23645830942E+03 -0.19526571599E+03  0.20035366952E+03  0.36630973892E+03  0.00000000000E+00 0. -1.
        -11    1    3    3    0    0 -0.23479381014E+03 -0.21493975544E+03  0.13005038777E+03  0.34386092408E+03  0.00000000000E+00 0.  1.
         22    1    1    2    0    0  0.47125211956E+03  0.41020547143E+03 -0.42120573749E+03  0.75349941094E+03  0.00000000000E+00 0.  1.
<mgrwt>
<rscale>  0 0.14608508E+04</rscale>
<asrwt>0</asrwt>
<pdfrwt beam="1">  1        2 0.10560526E+00 0.14608508E+04</pdfrwt>
<pdfrwt beam="2">  1       -2 0.11957475E+00 0.14608508E+04</pdfrwt>
<totfact> 0.21799344E+01</totfact>
</mgrwt>
</event>
<event>
 6    1  0.8968082E-007  0.1006847E+04  0.7818608E-02  0.9301067E-01
         -2   -1    0    0    0  501 -0.00000000000E+00  0.00000000000E+00  0.38513422236E+03  0.38513422236E+03  0.00000000000E+00 0.  1.
          2   -1    0    0  501    0  0.00000000000E+00 -0.00000000000E+00 -0.65804399574E+03  0.65804399574E+03  0.00000000000E+00 0. -1.
         23    2    1    2    0    0  0.17952510816E+03  0.26756891406E+03 -0.53297206476E+03  0.62910722947E+03  0.88849851569E+02 0.  0.
         13    1    3    3    0    0  0.76729018578E+02  0.18361124135E+03 -0.35669174230E+03  0.40844758448E+03  0.00000000000E+00 0. -1.
        -13    1    3    3    0    0  0.10279608958E+03  0.83957672707E+02 -0.17628032246E+03  0.22065964499E+03  0.00000000000E+00 0.  1.
         22    1    1    2    0    0 -0.17952510816E+03 -0.26756891406E+03  0.26006229138E+03  0.41407098864E+03  0.00000000000E+00 0.  1.
<mgrwt>
<rscale>  0 0.10068471E+04</rscale>
<asrwt>0</asrwt>
<pdfrwt beam="1">  1        2 0.10123754E+00 0.10068471E+04</pdfrwt>
<pdfrwt beam="2">  1       -2 0.59251420E-01 0.10068471E+04</pdfrwt>
<totfact> 0.11760174E+02</totfact>
</mgrwt>
</event>
<event>
 6    1  0.1235829E-006  0.4440773E+04  0.7818608E-02  0.7921088E-01
          2   -1    0    0  501    0  0.00000000000E+00  0.00000000000E+00  0.27032761839E+04  0.27032761839E+04  0.00000000000E+00 0. -1.
         -2   -1    0    0    0  501 -0.00000000000E+00 -0.00000000000E+00 -0.18237560969E+04  0.18237560969E+04  0.00000000000E+00 0.  1.
         23    2    1    2    0    0  0.20950885477E+04 -0.70867093132E+03  0.62921600760E+03  0.23012149829E+04  0.89817047051E+02 0.  0.
         11    1    3    3    0    0  0.12972415031E+04 -0.39945966103E+03  0.36208571113E+03  0.14048165718E+04  0.00000000000E+00 0.  1.
        -11    1    3    3    0    0  0.79784704458E+03 -0.30921127029E+03  0.26713029647E+03  0.89639841115E+03  0.00000000000E+00 0. -1.
         22    1    1    2    0    0 -0.20950885477E+04  0.70867093132E+03  0.25030407946E+03  0.22258172979E+04  0.00000000000E+00 0. -1.
<mgrwt>
<rscale>  0 0.44407731E+04</rscale>
<asrwt>0</asrwt>
<pdfrwt beam="1">  1        2 0.41588864E+00 0.44407731E+04</pdfrwt>
<pdfrwt beam="2">  1       -2 0.28057786E+00 0.44407731E+04</pdfrwt>
<totfact> 0.84063229E-02</totfact>
</mgrwt>
</event>
<event>
 6    1  0.8968082E-007  0.1837980E+04  0.7818608E-02  0.8686359E-01
          2   -1    0    0  501    0  0.00000000000E+00  0.00000000000E+00  0.13782087334E+04  0.13782087334E+04  0.00000000000E+00 0. -1.
         -2   -1    0    0    0  501 -0.00000000000E+00 -0.00000000000E+00 -0.61278269075E+03  0.61278269075E+03  0.00000000000E+00 0.  1.
         23    2    1    2    0    0  0.45101686914E+03 -0.79192495761E+03  0.49019128798E+03  0.10389853712E+04  0.92961002192E+02 0.  0.
         11    1    3    3    0    0  0.25791238611E+03 -0.42251364455E+03  0.31559987207E+03  0.58706035294E+03  0.00000000000E+00 0. -1.
        -11    1    3    3    0    0  0.19310448303E+03 -0.36941131305E+03  0.17459141592E+03  0.45192501821E+03  0.00000000000E+00 0.  1.
         22    1    1    2    0    0 -0.45101686914E+03  0.79192495761E+03  0.27523475464E+03  0.95200605297E+03  0.00000000000E+00 0.  1.
<mgrwt>
<rscale>  0 0.18379798E+04</rscale>
<asrwt>0</asrwt>
<pdfrwt beam="1">  1        2 0.21203211E+00 0.18379798E+04</pdfrwt>
<pdfrwt beam="2">  1       -2 0.94274260E-01 0.18379798E+04</pdfrwt>
<totfact> 0.13302594E+01</totfact>
</mgrwt>
</event>
<event>
 6    1  0.8968082E-007  0.1891525E+04  0.7818608E-02  0.8659087E-01
          2   -1    0    0  501    0  0.00000000000E+00  0.00000000000E+00  0.21873653417E+04  0.21873653417E+04  0.00000000000E+00 0. -1.
         -2   -1    0    0    0  501 -0.00000000000E+00 -0.00000000000E+00 -0.40892410019E+03  0.40892410019E+03  0.00000000000E+00 0.  1.
         23    2    1    2    0    0 -0.38808083202E+03 -0.49387841498E+03 -0.75675683264E+02  0.63867043103E+03  0.87467076476E+02 0.  0.
         13    1    3    3    0    0 -0.14432046696E+03 -0.14713538809E+03  0.96099570303E+01  0.20632394647E+03  0.00000000000E+00 0.  1.
        -13    1    3    3    0    0 -0.24376036506E+03 -0.34674302689E+03 -0.85285640294E+02  0.43234648456E+03  0.00000000000E+00 0. -1.
         22    1    1    2    0    0  0.38808083202E+03  0.49387841498E+03  0.18541169248E+04  0.19576190109E+04  0.00000000000E+00 0. -1.
<mgrwt>
<rscale>  0 0.18915247E+04</rscale>
<asrwt>0</asrwt>
<pdfrwt beam="1">  1        2 0.33651774E+00 0.18915247E+04</pdfrwt>
<pdfrwt beam="2">  1       -2 0.62911401E-01 0.18915247E+04</pdfrwt>
<totfact> 0.11520676E+01</totfact>
</mgrwt>
</event>
<event>
 6    1  0.8968082E-007  0.3898153E+04  0.7818608E-02  0.8025413E-01
          1   -1    0    0  501    0  0.00000000000E+00  0.00000000000E+00  0.18845007078E+04  0.18845007078E+04  0.00000000000E+00 0. -1.
         -1   -1    0    0    0  501 -0.00000000000E+00 -0.00000000000E+00 -0.20158655289E+04  0.20158655289E+04  0.00000000000E+00 0.  1.
         23    2    1    2    0    0 -0.35888784453E+03  0.12824650501E+04  0.13571135129E+04  0.19030968907E+04  0.80644893539E+02 0.  0.
         11    1    3    3    0    0 -0.34779551872E+03  0.12566502665E+04  0.13104272815E+04  0.18486079290E+04  0.00000000000E+00 0. -1.
        -11    1    3    3    0    0 -0.11092325811E+02  0.25814783593E+02  0.46686231358E+02  0.54488961655E+02  0.00000000000E+00 0.  1.
         22    1    1    2    0    0  0.35888784453E+03 -0.12824650501E+04 -0.14884783340E+04  0.19972693460E+04  0.00000000000E+00 0.  1.
<mgrwt>
<rscale>  0 0.38981534E+04</rscale>
<asrwt>0</asrwt>
<pdfrwt beam="1">  1        1 0.28992319E+00 0.38981534E+04</pdfrwt>
<pdfrwt beam="2">  1       -1 0.31013316E+00 0.38981534E+04</pdfrwt>
<totfact> 0.79940603E-02</totfact>
</mgrwt>
</event>
<event>
 6    1  0.8968082E-007  0.1390830E+04  0.7818608E-02  0.8960483E-01
         -2   -1    0    0    0  501 -0.00000000000E+00  0.00000000000E+00  0.60027021037E+03  0.60027021037E+03  0.00000000000E+00 0.  1.
          2   -1    0    0  501    0  0.00000000000E+00 -0.00000000000E+00 -0.80564111960E+03  0.80564111960E+03  0.00000000000E+00 0. -1.
         23    2    1    2    0    0 -0.42208714969E+03 -0.52210494760E+03 -0.27485642267E+03  0.73094512725E+03  0.89350924597E+02 0.  0.
         13    1    3    3    0    0 -0.14333578403E+03 -0.23756058692E+03 -0.13699713924E+03  0.30943237646E+03  0.00000000000E+00 0. -1.
        -13    1    3    3    0    0 -0.27875136566E+03 -0.28454436069E+03 -0.13785928343E+03  0.42151275080E+03  0.00000000000E+00 0.  1.
         22    1    1    2    0    0  0.42208714969E+03  0.52210494760E+03  0.69485513442E+02  0.67496620273E+03  0.00000000000E+00 0. -1.
<mgrwt>
<rscale>  0 0.13908305E+04</rscale>
<asrwt>0</asrwt>
<pdfrwt beam="1">  1        2 0.12394479E+00 0.13908305E+04</pdfrwt>
<pdfrwt beam="2">  1       -2 0.92349263E-01 0.13908305E+04</pdfrwt>
<totfact> 0.33098587E+01</totfact>
</mgrwt>
</event>
<event>
 6    1  0.8968082E-007  0.1820678E+04  0.7818608E-02  0.8695380E-01
         -2   -1    0    0    0  501 -0.00000000000E+00  0.00000000000E+00  0.14242291403E+04  0.14242291403E+04  0.00000000000E+00 0.  1.
          2   -1    0    0  501    0  0.00000000000E+00 -0.00000000000E+00 -0.58187091210E+03  0.58187091210E+03  0.00000000000E+00 0. -1.
         23    2    1    2    0    0 -0.30257753258E+03  0.36447438247E+03  0.12761649619E+04  0.13637737950E+04  0.82989247507E+02 0.  0.
         13    1    3    3    0    0 -0.93117389523E+02  0.68548976029E+02  0.24999761238E+03  0.27544258303E+03  0.00000000000E+00 0. -1.
        -13    1    3    3    0    0 -0.20946014306E+03  0.29592540644E+03  0.10261673496E+04  0.10883312120E+04  0.00000000000E+00 0.  1.
         22    1    1    2    0    0  0.30257753258E+03 -0.36447438247E+03 -0.43380673374E+03  0.64232625739E+03  0.00000000000E+00 0. -1.
<mgrwt>
<rscale>  0 0.18206785E+04</rscale>
<asrwt>0</asrwt>
<pdfrwt beam="1">  1        2 0.89518603E-01 0.18206785E+04</pdfrwt>
<pdfrwt beam="2">  1       -2 0.21911217E+00 0.18206785E+04</pdfrwt>
<totfact> 0.48537212E+00</totfact>
</mgrwt>
</event>
<event>
 6    1  0.8968082E-007  0.8857269E+03  0.7818608E-02  0.9443602E-01
         -2   -1    0    0    0  501 -0.00000000000E+00  0.00000000000E+00  0.25148849224E+03  0.25148849224E+03  0.00000000000E+00 0.  1.
          2   -1    0    0  501    0  0.00000000000E+00 -0.00000000000E+00 -0.77986879718E+03  0.77986879718E+03  0.00000000000E+00 0. -1.
         23    2    1    2    0    0 -0.12757291815E+03 -0.23145606905E+03  0.14036541486E+03  0.31228316314E+03  0.89283609609E+02 0.  0.
         13    1    3    3    0    0 -0.10900505461E+03 -0.17929187663E+03  0.14745919673E+03  0.25646031595E+03  0.00000000000E+00 0. -1.
        -13    1    3    3    0    0 -0.18567863534E+02 -0.52164192421E+02 -0.70937818666E+01  0.55822847189E+02  0.00000000000E+00 0.  1.
         22    1    1    2    0    0  0.12757291815E+03  0.23145606905E+03 -0.66874571980E+03  0.71907412628E+03  0.00000000000E+00 0. -1.
<mgrwt>
<rscale>  0 0.88572688E+03</rscale>
<asrwt>0</asrwt>
<pdfrwt beam="1">  1        2 0.11997981E+00 0.88572688E+03</pdfrwt>
<pdfrwt beam="2">  1       -2 0.38690537E-01 0.88572688E+03</pdfrwt>
<totfact> 0.22550109E+02</totfact>
</mgrwt>
</event>
<event>
 6    1  0.8968082E-007  0.2214187E+04  0.7818608E-02  0.8512546E-01
         -2   -1    0    0    0  501 -0.00000000000E+00  0.00000000000E+00  0.94401987586E+03  0.94401987586E+03  0.00000000000E+00 0.  1.
          2   -1    0    0  501    0  0.00000000000E+00 -0.00000000000E+00 -0.12983365149E+04  0.12983365149E+04  0.00000000000E+00 0. -1.
         23    2    1    2    0    0 -0.36019987278E+03 -0.10332572017E+04 -0.33384005529E+03  0.11479233487E+04  0.94416305528E+02 0.  0.
         13    1    3    3    0    0 -0.24846640677E+03 -0.69642003264E+03 -0.27102274800E+03  0.78752126770E+03  0.00000000000E+00 0. -1.
        -13    1    3    3    0    0 -0.11173346601E+03 -0.33683716905E+03 -0.62817307290E+02  0.36040208098E+03  0.00000000000E+00 0.  1.
         22    1    1    2    0    0  0.36019987278E+03  0.10332572017E+04 -0.20476583786E+02  0.10944330421E+04  0.00000000000E+00 0. -1.
<mgrwt>
<rscale>  0 0.22141865E+04</rscale>
<asrwt>0</asrwt>
<pdfrwt beam="1">  1        2 0.19974408E+00 0.22141865E+04</pdfrwt>
<pdfrwt beam="2">  1       -2 0.14523383E+00 0.22141865E+04</pdfrwt>
<totfact> 0.49364140E+00</totfact>
</mgrwt>
</event>
<event>
 6    1  0.8968082E-007  0.1494218E+04  0.7818608E-02  0.8888307E-01
          1   -1    0    0  501    0  0.00000000000E+00  0.00000000000E+00  0.17673811128E+04  0.17673811128E+04  0.00000000000E+00 0. -1.
         -1   -1    0    0    0  501 -0.00000000000E+00 -0.00000000000E+00 -0.31581875488E+03  0.31581875488E+03  0.00000000000E+00 0.  1.
         23    2    1    2    0    0  0.29616852955E+03 -0.39422368531E+03 -0.49264104702E+02  0.50345046261E+03  0.88923024778E+02 0.  0.
         11    1    3    3    0    0  0.28706149476E+02 -0.41586819254E+02 -0.33400114360E+02  0.60572883311E+02  0.00000000000E+00 0.  1.
        -11    1    3    3    0    0  0.26746238007E+03 -0.35263686605E+03 -0.15863990343E+02  0.44287757930E+03  0.00000000000E+00 0. -1.
         22    1    1    2    0    0 -0.29616852955E+03  0.39422368531E+03  0.15008264626E+04  0.15797494051E+04  0.00000000000E+00 0. -1.
<mgrwt>
<rscale>  0 0.14942183E+04</rscale>
<asrwt>0</asrwt>
<pdfrwt beam="1">  1        1 0.27190478E+00 0.14942183E+04</pdfrwt>
<pdfrwt beam="2">  1       -1 0.48587502E-01 0.14942183E+04</pdfrwt>
<totfact> 0.17591604E+01</totfact>
</mgrwt>
</event>
<event>
 6    1  0.8968082E-007  0.4283482E+04  0.7818608E-02  0.7949680E-01
          2   -1    0    0  501    0  0.00000000000E+00  0.00000000000E+00  0.29045513377E+04  0.29045513377E+04  0.00000000000E+00 0. -1.
         -2   -1    0    0    0  501 -0.00000000000E+00 -0.00000000000E+00 -0.15792640843E+04  0.15792640843E+04  0.00000000000E+00 0.  1.
         23    2    1    2    0    0  0.49417950562E+03 -0.18673949821E+04  0.16289355926E+04  0.25284178367E+04  0.89934360846E+02 0.  0.
         13    1    3    3    0    0  0.93615245847E+02 -0.44699104826E+03  0.42454682912E+03  0.62354215703E+03  0.00000000000E+00 0. -1.
        -13    1    3    3    0    0  0.40056425977E+03 -0.14204039338E+04  0.12043887635E+04  0.19048756797E+04  0.00000000000E+00 0.  1.
         22    1    1    2    0    0 -0.49417950562E+03  0.18673949821E+04 -0.30364833916E+03  0.19553975853E+04  0.00000000000E+00 0.  1.
<mgrwt>
<rscale>  0 0.42834816E+04</rscale>
<asrwt>0</asrwt>
<pdfrwt beam="1">  1        2 0.44685405E+00 0.42834816E+04</pdfrwt>
<pdfrwt beam="2">  1       -2 0.24296370E+00 0.42834816E+04</pdfrwt>
<totfact> 0.10925543E-01</totfact>
</mgrwt>
</event>
<event>
 6    1  0.8968082E-007  0.7172555E+03  0.7818608E-02  0.9688170E-01
         -1   -1    0    0    0  501 -0.00000000000E+00  0.00000000000E+00  0.32371140515E+03  0.32371140515E+03  0.00000000000E+00 0.  1.
          1   -1    0    0  501    0  0.00000000000E+00 -0.00000000000E+00 -0.39731023531E+03  0.39731023531E+03  0.00000000000E+00 0. -1.
         23    2    1    2    0    0 -0.17027998413E+03 -0.17804099779E+03 -0.29132987785E+03  0.39223496340E+03  0.91001642252E+02 0.  0.
         13    1    3    3    0    0 -0.12544535669E+02 -0.61238323598E+02 -0.10134540819E+03  0.11907304235E+03  0.00000000000E+00 0. -1.
        -13    1    3    3    0    0 -0.15773544846E+03 -0.11680267419E+03 -0.18998446966E+03  0.27316192105E+03  0.00000000000E+00 0.  1.
         22    1    1    2    0    0  0.17027998413E+03  0.17804099779E+03  0.21773104769E+03  0.32878667707E+03  0.00000000000E+00 0.  1.
<mgrwt>
<rscale>  0 0.71725548E+03</rscale>
<asrwt>0</asrwt>
<pdfrwt beam="1">  1        1 0.61124651E-01 0.71725548E+03</pdfrwt>
<pdfrwt beam="2">  1       -1 0.49801755E-01 0.71725548E+03</pdfrwt>
<totfact> 0.24813685E+02</totfact>
</mgrwt>
</event>
<event>
 6    1  0.8968082E-007  0.9511911E+03  0.7818608E-02  0.9363759E-01
         -1   -1    0    0    0  501 -0.00000000000E+00  0.00000000000E+00  0.43511386886E+03  0.43511386886E+03  0.00000000000E+00 0.  1.
          1   -1    0    0  501    0  0.00000000000E+00 -0.00000000000E+00 -0.51984355594E+03  0.51984355594E+03  0.00000000000E+00 0. -1.
         23    2    1    2    0    0 -0.23040724179E+03 -0.30340333878E+03  0.23481876411E+03  0.45771272075E+03  0.96020829526E+02 0.  0.
         13    1    3    3    0    0 -0.13660172755E+03 -0.22236683781E+03  0.11458492111E+03  0.28502060745E+03  0.00000000000E+00 0. -1.
        -13    1    3    3    0    0 -0.93805514245E+02 -0.81036500975E+02  0.12023384300E+03  0.17269211330E+03  0.00000000000E+00 0.  1.
         22    1    1    2    0    0  0.23040724179E+03  0.30340333878E+03 -0.31954845118E+03  0.49724470405E+03  0.00000000000E+00 0. -1.
<mgrwt>
<rscale>  0 0.95119113E+03</rscale>
<asrwt>0</asrwt>
<pdfrwt beam="1">  1        1 0.79975932E-01 0.95119113E+03</pdfrwt>
<pdfrwt beam="2">  1       -1 0.66940595E-01 0.95119113E+03</pdfrwt>
<totfact> 0.95470796E+01</totfact>
</mgrwt>
</event>
<event>
 6    1  0.8968082E-007  0.2325380E+04  0.7818608E-02  0.8467981E-01
         -1   -1    0    0    0  501 -0.00000000000E+00  0.00000000000E+00  0.16030977110E+04  0.16030977110E+04  0.00000000000E+00 0.  1.
          1   -1    0    0  501    0  0.00000000000E+00 -0.00000000000E+00 -0.84327254192E+03  0.84327254192E+03  0.00000000000E+00 0. -1.
         23    2    1    2    0    0 -0.11331752774E+04  0.50148239742E+02  0.12051223148E+03  0.11443249052E+04  0.91406977689E+02 0.  0.
         11    1    3    3    0    0 -0.86348616445E+03  0.30226814065E+02  0.53210621045E+02  0.86565200091E+03  0.00000000000E+00 0.  1.
        -11    1    3    3    0    0 -0.26968911295E+03  0.19921425678E+02  0.67301610434E+02  0.27867290434E+03  0.00000000000E+00 0. -1.
         22    1    1    2    0    0  0.11331752774E+04 -0.50148239742E+02  0.63931293765E+03  0.13020453477E+04  0.00000000000E+00 0.  1.
<mgrwt>
<rscale>  0 0.23253802E+04</rscale>
<asrwt>0</asrwt>
<pdfrwt beam="1">  1        1 0.12973424E+00 0.23253802E+04</pdfrwt>
<pdfrwt beam="2">  1       -1 0.24663042E+00 0.23253802E+04</pdfrwt>
<totfact> 0.13423617E+00</totfact>
</mgrwt>
</event>
<event>
 6    1  0.8968082E-007  0.1025886E+04  0.7818608E-02  0.9280600E-01
         -1   -1    0    0    0  501 -0.00000000000E+00  0.00000000000E+00  0.93956520276E+03  0.93956520276E+03  0.00000000000E+00 0.  1.
          1   -1    0    0  501    0  0.00000000000E+00 -0.00000000000E+00 -0.28003450995E+03  0.28003450995E+03  0.00000000000E+00 0. -1.
         23    2    1    2    0    0 -0.34116276696E+03  0.32324907063E+03  0.56685968417E+03  0.74056953510E+03  0.78938834229E+02 0.  0.
         13    1    3    3    0    0 -0.20432099802E+03  0.14122402788E+03  0.31197747977E+03  0.39877467844E+03  0.00000000000E+00 0. -1.
        -13    1    3    3    0    0 -0.13684176894E+03  0.18202504275E+03  0.25488220440E+03  0.34179485665E+03  0.00000000000E+00 0.  1.
         22    1    1    2    0    0  0.34116276696E+03 -0.32324907063E+03  0.92671008647E+02  0.47903017761E+03  0.00000000000E+00 0. -1.
<mgrwt>
<rscale>  0 0.10258863E+04</rscale>
<asrwt>0</asrwt>
<pdfrwt beam="1">  1        1 0.43082233E-01 0.10258863E+04</pdfrwt>
<pdfrwt beam="2">  1       -1 0.14454849E+00 0.10258863E+04</pdfrwt>
<totfact> 0.37004950E+01</totfact>
</mgrwt>
</event>
<event>
 6    1  0.8968082E-007  0.2337754E+04  0.7818608E-02  0.8463182E-01
         -2   -1    0    0    0  501 -0.00000000000E+00  0.00000000000E+00  0.11893985694E+04  0.11893985694E+04  0.00000000000E+00 0.  1.
          2   -1    0    0  501    0  0.00000000000E+00 -0.00000000000E+00 -0.11487099920E+04  0.11487099920E+04  0.00000000000E+00 0. -1.
         23    2    1    2    0    0 -0.89441478453E+03  0.20572654163E+03  0.74146957135E+03  0.11833812264E+04  0.91174476040E+02 0.  0.
         11    1    3    3    0    0 -0.32345057840E+03  0.10550690356E+03  0.31566597664E+03  0.46410881501E+03  0.00000000000E+00 0. -1.
        -11    1    3    3    0    0 -0.57096420613E+03  0.10021963807E+03  0.42580359471E+03  0.71927241140E+03  0.00000000000E+00 0.  1.
         22    1    1    2    0    0  0.89441478453E+03 -0.20572654163E+03 -0.70078099392E+03  0.11547273350E+04  0.00000000000E+00 0.  1.
<mgrwt>
<rscale>  0 0.23377545E+04</rscale>
<asrwt>0</asrwt>
<pdfrwt beam="1">  1        2 0.17672461E+00 0.23377545E+04</pdfrwt>
<pdfrwt beam="2">  1       -2 0.18298440E+00 0.23377545E+04</pdfrwt>
<totfact> 0.31791703E+00</totfact>
</mgrwt>
</event>
<event>
 6    1  0.8968082E-007  0.9480173E+03  0.7818608E-02  0.9367471E-01
         -4   -1    0    0    0  501 -0.00000000000E+00  0.00000000000E+00  0.38327300186E+03  0.38327300186E+03  0.00000000000E+00 0.  1.
          4   -1    0    0  501    0  0.00000000000E+00 -0.00000000000E+00 -0.58622499012E+03  0.58622499012E+03  0.00000000000E+00 0. -1.
         23    2    1    2    0    0  0.37081919026E+02  0.46625001938E+03 -0.61597147662E+02  0.48088225313E+03  0.93216862660E+02 0.  0.
         11    1    3    3    0    0 -0.12792752550E+02  0.13123478706E+03 -0.52872864487E+02  0.14206253430E+03  0.00000000000E+00 0. -1.
        -11    1    3    3    0    0  0.49874671576E+02  0.33501523231E+03 -0.87242831746E+01  0.33881971882E+03  0.00000000000E+00 0.  1.
         22    1    1    2    0    0 -0.37081919026E+02 -0.46625001938E+03 -0.14135484060E+03  0.48861573885E+03  0.00000000000E+00 0. -1.
<mgrwt>
<rscale>  0 0.94801732E+03</rscale>
<asrwt>0</asrwt>
<pdfrwt beam="1">  1        4 0.90188460E-01 0.94801732E+03</pdfrwt>
<pdfrwt beam="2">  1       -4 0.58965077E-01 0.94801732E+03</pdfrwt>
<totfact> 0.56941397E+00</totfact>
</mgrwt>
</event>
<event>
 6    1  0.8968082E-007  0.1375783E+04  0.7818608E-02  0.8971537E-01
          1   -1    0    0  501    0  0.00000000000E+00  0.00000000000E+00  0.81173511303E+03  0.81173511303E+03  0.00000000000E+00 0. -1.
         -1   -1    0    0    0  501 -0.00000000000E+00 -0.00000000000E+00 -0.58294245969E+03  0.58294245969E+03  0.00000000000E+00 0.  1.
         23    2    1    2    0    0 -0.22793836262E+03 -0.63711104693E+03  0.22461915664E+03  0.71800645516E+03  0.84930093919E+02 0.  0.
         11    1    3    3    0    0 -0.13107824281E+03 -0.32030577256E+03  0.73126602913E+02  0.35372983155E+03  0.00000000000E+00 0. -1.
        -11    1    3    3    0    0 -0.96860119810E+02 -0.31680527436E+03  0.15149255372E+03  0.36427662361E+03  0.00000000000E+00 0.  1.
         22    1    1    2    0    0  0.22793836262E+03  0.63711104693E+03  0.41734967074E+01  0.67667111756E+03  0.00000000000E+00 0.  1.
<mgrwt>
<rscale>  0 0.13757832E+04</rscale>
<asrwt>0</asrwt>
<pdfrwt beam="1">  1        1 0.12488233E+00 0.13757832E+04</pdfrwt>
<pdfrwt beam="2">  1       -1 0.89683455E-01 0.13757832E+04</pdfrwt>
<totfact> 0.25693465E+01</totfact>
</mgrwt>
</event>
<event>
 6    1  0.1040209E-006  0.3351700E+04  0.7818608E-02  0.8149864E-01
          2   -1    0    0  501    0  0.00000000000E+00  0.00000000000E+00  0.19463668153E+04  0.19463668153E+04  0.00000000000E+00 0. -1.
         -2   -1    0    0    0  501 -0.00000000000E+00 -0.00000000000E+00 -0.14429309843E+04  0.14429309843E+04  0.00000000000E+00 0.  1.
         23    2    1    2    0    0 -0.39729557136E+02  0.40633159381E+03 -0.13900489054E+04  0.14522979935E+04  0.10124080607E+03 0.  0.
         13    1    3    3    0    0 -0.35184706617E+02  0.34790076977E+03 -0.10357349450E+04  0.10931696051E+04  0.00000000000E+00 0.  1.
        -13    1    3    3    0    0 -0.45448505192E+01  0.58430824037E+02 -0.35431396037E+03  0.35912838843E+03  0.00000000000E+00 0. -1.
         22    1    1    2    0    0  0.39729557136E+02 -0.40633159381E+03  0.18934847364E+04  0.19369998061E+04  0.00000000000E+00 0. -1.
<mgrwt>
<rscale>  0 0.33516999E+04</rscale>
<asrwt>0</asrwt>
<pdfrwt beam="1">  1        2 0.29944105E+00 0.33516999E+04</pdfrwt>
<pdfrwt beam="2">  1       -2 0.22198938E+00 0.33516999E+04</pdfrwt>
<totfact> 0.57148165E-01</totfact>
</mgrwt>
</event>
<event>
 6    1  0.8968082E-007  0.3411750E+03  0.7818608E-02  0.1066297E+00
         -2   -1    0    0    0  501 -0.00000000000E+00  0.00000000000E+00  0.12196503032E+02  0.12196503032E+02  0.00000000000E+00 0.  1.
          2   -1    0    0  501    0  0.00000000000E+00 -0.00000000000E+00 -0.23859370228E+04  0.23859370228E+04  0.00000000000E+00 0. -1.
         23    2    1    2    0    0 -0.62047601637E+02  0.13331099726E+03 -0.16827324929E+04  0.16916536464E+04  0.92096090178E+02 0.  0.
         11    1    3    3    0    0 -0.85282145748E+02  0.11175221136E+03 -0.14439348109E+04  0.14507616411E+04  0.00000000000E+00 0. -1.
        -11    1    3    3    0    0  0.23234544111E+02  0.21558785900E+02 -0.23879768198E+03  0.24089200528E+03  0.00000000000E+00 0.  1.
         22    1    1    2    0    0  0.62047601637E+02 -0.13331099726E+03 -0.69100802687E+03  0.70647987944E+03  0.00000000000E+00 0.  1.
<mgrwt>
<rscale>  0 0.34117496E+03</rscale>
<asrwt>0</asrwt>
<pdfrwt beam="1">  1        2 0.36706727E+00 0.34117496E+03</pdfrwt>
<pdfrwt beam="2">  1       -2 0.18763849E-02 0.34117496E+03</pdfrwt>
<totfact> 0.39185773E+03</totfact>
</mgrwt>
</event>
<event>
 6    1  0.8968082E-007  0.2121042E+04  0.7818608E-02  0.8552030E-01
         -1   -1    0    0    0  501 -0.00000000000E+00  0.00000000000E+00  0.48546018848E+03  0.48546018848E+03  0.00000000000E+00 0.  1.
          1   -1    0    0  501    0  0.00000000000E+00 -0.00000000000E+00 -0.23167809532E+04  0.23167809532E+04  0.00000000000E+00 0. -1.
         23    2    1    2    0    0  0.31380372579E+03  0.85333629413E+03 -0.20109412352E+03  0.93561463623E+03  0.90996108788E+02 0.  0.
         11    1    3    3    0    0  0.61187261563E+02  0.12843100543E+03 -0.63196139022E+02  0.15566681124E+03  0.00000000000E+00 0. -1.
        -11    1    3    3    0    0  0.25261646423E+03  0.72490528869E+03 -0.13789798449E+03  0.77994782499E+03  0.00000000000E+00 0.  1.
         22    1    1    2    0    0 -0.31380372579E+03 -0.85333629413E+03 -0.16302266412E+04  0.18666265055E+04  0.00000000000E+00 0. -1.
<mgrwt>
<rscale>  0 0.21210421E+04</rscale>
<asrwt>0</asrwt>
<pdfrwt beam="1">  1        1 0.35642784E+00 0.21210421E+04</pdfrwt>
<pdfrwt beam="2">  1       -1 0.74686184E-01 0.21210421E+04</pdfrwt>
<totfact> 0.30010694E+00</totfact>
</mgrwt>
</event>
<event>
 6    1  0.8968082E-007  0.6023453E+03  0.7818608E-02  0.9900552E-01
          1   -1    0    0  501    0  0.00000000000E+00  0.00000000000E+00  0.32584887564E+03  0.32584887564E+03  0.00000000000E+00 0. -1.
         -1   -1    0    0    0  501 -0.00000000000E+00 -0.00000000000E+00 -0.27836510465E+03  0.27836510465E+03  0.00000000000E+00 0.  1.
         23    2    1    2    0    0 -0.15342485874E+03 -0.66965580661E+02  0.26718196523E+03  0.32800595574E+03  0.90433003856E+02 0.  0.
         11    1    3    3    0    0 -0.15878003922E+03 -0.69252149349E+02  0.21782563486E+03  0.27830732697E+03  0.00000000000E+00 0.  1.
        -11    1    3    3    0    0  0.53551804791E+01  0.22865686878E+01  0.49356330367E+02  0.49698628770E+02  0.00000000000E+00 0. -1.
         22    1    1    2    0    0  0.15342485874E+03  0.66965580661E+02 -0.21969819424E+03  0.27620802455E+03  0.00000000000E+00 0.  1.
<mgrwt>
<rscale>  0 0.60234527E+03</rscale>
<asrwt>0</asrwt>
<pdfrwt beam="1">  1        1 0.50130596E-01 0.60234527E+03</pdfrwt>
<pdfrwt beam="2">  1       -1 0.42825401E-01 0.60234527E+03</pdfrwt>
<totfact> 0.42777965E+02</totfact>
</mgrwt>
</event>
<event>
 6    1  0.8968082E-007  0.4795951E+04  0.7818608E-02  0.7860778E-01
         -2   -1    0    0    0  501 -0.00000000000E+00  0.00000000000E+00  0.13203543169E+04  0.13203543169E+04  0.00000000000E+00 0.  1.
          2   -1    0    0  501    0  0.00000000000E+00 -0.00000000000E+00 -0.43551093295E+04  0.43551093295E+04  0.00000000000E+00 0. -1.
         23    2    1    2    0    0  0.68929930518E+03 -0.22589321123E+04 -0.20043144205E+04  0.30986990794E+04  0.82169755564E+02 0.  0.
         11    1    3    3    0    0  0.11584202994E+03 -0.40956680341E+03 -0.32210263302E+03  0.53377378032E+03  0.00000000000E+00 0. -1.
        -11    1    3    3    0    0  0.57345727524E+03 -0.18493653089E+04 -0.16822117874E+04  0.25649252991E+04  0.00000000000E+00 0.  1.
         22    1    1    2    0    0 -0.68929930518E+03  0.22589321123E+04 -0.10304405921E+04  0.25767645670E+04  0.00000000000E+00 0.  1.
<mgrwt>
<rscale>  0 0.47959514E+04</rscale>
<asrwt>0</asrwt>
<pdfrwt beam="1">  1        2 0.67001682E+00 0.47959514E+04</pdfrwt>
<pdfrwt beam="2">  1       -2 0.20313143E+00 0.47959514E+04</pdfrwt>
<totfact> 0.15739192E-02</totfact>
</mgrwt>
</event>
<event>
 6    1  0.8968082E-007  0.3292024E+04  0.7818608E-02  0.8164928E-01
          1   -1    0    0  501    0  0.00000000000E+00  0.00000000000E+00  0.33400064750E+04  0.33400064750E+04  0.00000000000E+00 0. -1.
         -1   -1    0    0    0  501 -0.00000000000E+00 -0.00000000000E+00 -0.81118289405E+03  0.81118289405E+03  0.00000000000E+00 0.  1.
         23    2    1    2    0    0  0.14129182036E+04 -0.48174762104E+03  0.21360883994E+04  0.26076027847E+04  0.91104403547E+02 0.  0.
         11    1    3    3    0    0  0.13332383142E+04 -0.46663742025E+03  0.20477714833E+04  0.24876983202E+04  0.00000000000E+00 0. -1.
        -11    1    3    3    0    0  0.79679889421E+02 -0.15110200793E+02  0.88316916043E+02  0.11990446449E+03  0.00000000000E+00 0.  1.
         22    1    1    2    0    0 -0.14129182036E+04  0.48174762104E+03  0.39273518156E+03  0.15435865843E+04  0.00000000000E+00 0. -1.
<mgrwt>
<rscale>  0 0.32920244E+04</rscale>
<asrwt>0</asrwt>
<pdfrwt beam="1">  1        1 0.51384714E+00 0.32920244E+04</pdfrwt>
<pdfrwt beam="2">  1       -1 0.12479737E+00 0.32920244E+04</pdfrwt>
<totfact> 0.15506716E-01</totfact>
</mgrwt>
</event>
<event>
 6    1  0.9580856E-007  0.2697608E+04  0.7818608E-02  0.8335781E-01
         -1   -1    0    0    0  501 -0.00000000000E+00  0.00000000000E+00  0.95133185148E+03  0.95133185148E+03  0.00000000000E+00 0.  1.
          1   -1    0    0  501    0  0.00000000000E+00 -0.00000000000E+00 -0.19123430007E+04  0.19123430007E+04  0.00000000000E+00 0. -1.
         23    2    1    2    0    0  0.76882352517E+03  0.11030801794E+04 -0.39099667819E+03  0.14032666927E+04  0.91670679486E+02 0.  0.
         11    1    3    3    0    0  0.46620422445E+03  0.59963499669E+03 -0.24369710697E+03  0.79768213474E+03  0.00000000000E+00 0. -1.
        -11    1    3    3    0    0  0.30261930072E+03  0.50344518271E+03 -0.14729957122E+03  0.60558455797E+03  0.00000000000E+00 0.  1.
         22    1    1    2    0    0 -0.76882352517E+03 -0.11030801794E+04 -0.57001447101E+03  0.14604081595E+04  0.00000000000E+00 0.  1.
<mgrwt>
<rscale>  0 0.26976084E+04</rscale>
<asrwt>0</asrwt>
<pdfrwt beam="1">  1        1 0.29420662E+00 0.26976084E+04</pdfrwt>
<pdfrwt beam="2">  1       -1 0.14635875E+00 0.26976084E+04</pdfrwt>
<totfact> 0.11122869E+00</totfact>
</mgrwt>
</event>
<event>
 6    1  0.8968082E-007  0.2221058E+04  0.7818608E-02  0.8509714E-01
          1   -1    0    0  501    0  0.00000000000E+00  0.00000000000E+00  0.16009094109E+04  0.16009094109E+04  0.00000000000E+00 0. -1.
         -1   -1    0    0    0  501 -0.00000000000E+00 -0.00000000000E+00 -0.77035883718E+03  0.77035883718E+03  0.00000000000E+00 0.  1.
         23    2    1    2    0    0  0.88240101581E+03 -0.49229255937E+03 -0.71162452869E+02  0.10169898797E+04  0.90668649684E+02 0.  0.
         13    1    3    3    0    0  0.67670848109E+03 -0.34523479587E+03 -0.25972410116E+02  0.76012893561E+03  0.00000000000E+00 0. -1.
        -13    1    3    3    0    0  0.20569253471E+03 -0.14705776350E+03 -0.45190042753E+02  0.25686094411E+03  0.00000000000E+00 0.  1.
         22    1    1    2    0    0 -0.88240101581E+03  0.49229255937E+03  0.90171302661E+03  0.13542783684E+04  0.00000000000E+00 0. -1.
<mgrwt>
<rscale>  0 0.22210580E+04</rscale>
<asrwt>0</asrwt>
<pdfrwt beam="1">  1        1 0.24629376E+00 0.22210580E+04</pdfrwt>
<pdfrwt beam="2">  1       -1 0.11851674E+00 0.22210580E+04</pdfrwt>
<totfact> 0.32362358E+00</totfact>
</mgrwt>
</event>
<event>
 6    1  0.8968082E-007  0.5328497E+03  0.7818608E-02  0.1005543E+00
         -2   -1    0    0    0  501 -0.00000000000E+00  0.00000000000E+00  0.25403737841E+03  0.25403737841E+03  0.00000000000E+00 0.  1.
          2   -1    0    0  501    0  0.00000000000E+00 -0.00000000000E+00 -0.27941634423E+03  0.27941634423E+03  0.00000000000E+00 0. -1.
         23    2    1    2    0    0  0.17172002060E+03  0.19257306851E+03  0.81473189405E+01  0.27326885766E+03  0.89651199504E+02 0.  0.
         11    1    3    3    0    0  0.89825102755E+02  0.13889560574E+03  0.40223028741E+02  0.17023052141E+03  0.00000000000E+00 0.  1.
        -11    1    3    3    0    0  0.81894917845E+02  0.53677462766E+02 -0.32075709800E+02  0.10303833625E+03  0.00000000000E+00 0. -1.
         22    1    1    2    0    0 -0.17172002060E+03 -0.19257306851E+03 -0.33526284757E+02  0.26018486497E+03  0.00000000000E+00 0. -1.
<mgrwt>
<rscale>  0 0.53284968E+03</rscale>
<asrwt>0</asrwt>
<pdfrwt beam="1">  1        2 0.42987130E-01 0.53284968E+03</pdfrwt>
<pdfrwt beam="2">  1       -2 0.39082674E-01 0.53284968E+03</pdfrwt>
<totfact> 0.73927630E+02</totfact>
</mgrwt>
</event>
<event>
 6    1  0.8968082E-007  0.2088101E+04  0.7818608E-02  0.8566503E-01
         -1   -1    0    0    0  501 -0.00000000000E+00  0.00000000000E+00  0.53963920345E+03  0.53963920345E+03  0.00000000000E+00 0.  1.
          1   -1    0    0  501    0  0.00000000000E+00 -0.00000000000E+00 -0.20199442048E+04  0.20199442048E+04  0.00000000000E+00 0. -1.
         23    2    1    2    0    0  0.71852410758E+03 -0.91114796745E+02 -0.16605497736E+04  0.18132142119E+04  0.75772211613E+02 0.  0.
         13    1    3    3    0    0  0.28783051109E+03 -0.64964622184E+02 -0.61476443329E+03  0.68191063468E+03  0.00000000000E+00 0.  1.
        -13    1    3    3    0    0  0.43069359649E+03 -0.26150174562E+02 -0.10457853404E+04  0.11313035772E+04  0.00000000000E+00 0. -1.
         22    1    1    2    0    0 -0.71852410758E+03  0.91114796745E+02  0.18024477230E+03  0.74636919638E+03  0.00000000000E+00 0.  1.
<mgrwt>
<rscale>  0 0.20881007E+04</rscale>
<asrwt>0</asrwt>
<pdfrwt beam="1">  1        1 0.31076065E+00 0.20881007E+04</pdfrwt>
<pdfrwt beam="2">  1       -1 0.83021416E-01 0.20881007E+04</pdfrwt>
<totfact> 0.38306840E+00</totfact>
</mgrwt>
</event>
<event>
 6    1  0.8968082E-007  0.1321152E+04  0.7818608E-02  0.9012957E-01
          1   -1    0    0  501    0  0.00000000000E+00  0.00000000000E+00  0.31750062650E+03  0.31750062650E+03  0.00000000000E+00 0. -1.
         -1   -1    0    0    0  501 -0.00000000000E+00 -0.00000000000E+00 -0.13743621700E+04  0.13743621700E+04  0.00000000000E+00 0.  1.
         23    2    1    2    0    0  0.16938826549E+03 -0.63363540675E+03 -0.48026828139E+03  0.81856673954E+03  0.95956614149E+02 0.  0.
         11    1    3    3    0    0  0.93742457874E+02 -0.42739255117E+03 -0.26808482599E+03  0.51314862869E+03  0.00000000000E+00 0. -1.
        -11    1    3    3    0    0  0.75645807614E+02 -0.20624285558E+03 -0.21218345540E+03  0.30541811084E+03  0.00000000000E+00 0.  1.
         22    1    1    2    0    0 -0.16938826549E+03  0.63363540675E+03 -0.57659326209E+03  0.87329605694E+03  0.00000000000E+00 0.  1.
<mgrwt>
<rscale>  0 0.13211523E+04</rscale>
<asrwt>0</asrwt>
<pdfrwt beam="1">  1        1 0.48846252E-01 0.13211523E+04</pdfrwt>
<pdfrwt beam="2">  1       -1 0.21144033E+00 0.13211523E+04</pdfrwt>
<totfact> 0.10039582E+01</totfact>
</mgrwt>
</event>
<event>
 6    1  0.8968082E-007  0.1767663E+04  0.7818608E-02  0.8723687E-01
         -1   -1    0    0    0  501 -0.00000000000E+00  0.00000000000E+00  0.70933929748E+03  0.70933929748E+03  0.00000000000E+00 0.  1.
          1   -1    0    0  501    0  0.00000000000E+00 -0.00000000000E+00 -0.11012475399E+04  0.11012475399E+04  0.00000000000E+00 0. -1.
         23    2    1    2    0    0  0.40501905464E+03 -0.48519199563E+03  0.43291545406E+03  0.77145939693E+03  0.91006063013E+02 0.  0.
         13    1    3    3    0    0  0.96178674387E+02 -0.66916670041E+02  0.60181004884E+02  0.13171913864E+03  0.00000000000E+00 0.  1.
        -13    1    3    3    0    0  0.30884038025E+03 -0.41827532559E+03  0.37273444917E+03  0.63974025828E+03  0.00000000000E+00 0. -1.
         22    1    1    2    0    0 -0.40501905464E+03  0.48519199563E+03 -0.82482369646E+03  0.10391274404E+04  0.00000000000E+00 0. -1.
<mgrwt>
<rscale>  0 0.17676630E+04</rscale>
<asrwt>0</asrwt>
<pdfrwt beam="1">  1        1 0.16942270E+00 0.17676630E+04</pdfrwt>
<pdfrwt beam="2">  1       -1 0.10912912E+00 0.17676630E+04</pdfrwt>
<totfact> 0.93106314E+00</totfact>
</mgrwt>
</event>
<event>
 6    1  0.8968082E-007  0.2770332E+04  0.7818608E-02  0.8312539E-01
         -2   -1    0    0    0  501 -0.00000000000E+00  0.00000000000E+00  0.13988095000E+04  0.13988095000E+04  0.00000000000E+00 0.  1.
          2   -1    0    0  501    0  0.00000000000E+00 -0.00000000000E+00 -0.13716554965E+04  0.13716554965E+04  0.00000000000E+00 0. -1.
         23    2    1    2    0    0  0.25227409734E+03  0.13361790283E+04  0.27317316161E+03  0.13886031938E+04  0.67665632125E+02 0.  0.
         13    1    3    3    0    0  0.23199732653E+03  0.11913713523E+04  0.26377404567E+03  0.12420809980E+04  0.00000000000E+00 0. -1.
        -13    1    3    3    0    0  0.20276770810E+02  0.14480767599E+03  0.93991159339E+01  0.14652219572E+03  0.00000000000E+00 0.  1.
         22    1    1    2    0    0 -0.25227409734E+03 -0.13361790283E+04 -0.24601915806E+03  0.13818618027E+04  0.00000000000E+00 0. -1.
<mgrwt>
<rscale>  0 0.27703319E+04</rscale>
<asrwt>0</asrwt>
<pdfrwt beam="1">  1        2 0.21102392E+00 0.27703319E+04</pdfrwt>
<pdfrwt beam="2">  1       -2 0.21520146E+00 0.27703319E+04</pdfrwt>
<totfact> 0.13896194E+00</totfact>
</mgrwt>
</event>
<event>
 6    1  0.8968082E-007  0.2820183E+04  0.7818608E-02  0.8297030E-01
          2   -1    0    0  501    0  0.00000000000E+00  0.00000000000E+00  0.22752089725E+04  0.22752089725E+04  0.00000000000E+00 0. -1.
         -2   -1    0    0    0  501 -0.00000000000E+00 -0.00000000000E+00 -0.87392330858E+03  0.87392330858E+03  0.00000000000E+00 0.  1.
         23    2    1    2    0    0 -0.15236507711E+03 -0.10896999651E+04 -0.28006134943E+03  0.11397570275E+04  0.99752652276E+02 0.  0.
         13    1    3    3    0    0  0.56693017653E+01 -0.11336953093E+03 -0.51528113139E+02  0.12465928754E+03  0.00000000000E+00 0.  1.
        -13    1    3    3    0    0 -0.15803437888E+03 -0.97633043412E+03 -0.22853323629E+03  0.10150977399E+04  0.00000000000E+00 0. -1.
         22    1    1    2    0    0  0.15236507711E+03  0.10896999651E+04  0.16813470134E+04  0.20093752537E+04  0.00000000000E+00 0. -1.
<mgrwt>
<rscale>  0 0.28201831E+04</rscale>
<asrwt>0</asrwt>
<pdfrwt beam="1">  1        2 0.35003215E+00 0.28201831E+04</pdfrwt>
<pdfrwt beam="2">  1       -2 0.13444974E+00 0.28201831E+04</pdfrwt>
<totfact> 0.16215885E+00</totfact>
</mgrwt>
</event>
<event>
 6    1  0.8968082E-007  0.3076123E+04  0.7818608E-02  0.8222321E-01
         -2   -1    0    0    0  501 -0.00000000000E+00  0.00000000000E+00  0.13045578625E+04  0.13045578625E+04  0.00000000000E+00 0.  1.
          2   -1    0    0  501    0  0.00000000000E+00 -0.00000000000E+00 -0.18133602518E+04  0.18133602518E+04  0.00000000000E+00 0. -1.
         23    2    1    2    0    0 -0.10182118877E+04  0.10165360286E+04  0.29264448915E+03  0.14709760860E+04  0.89604146551E+02 0.  0.
         11    1    3    3    0    0 -0.23477925834E+03  0.18336944582E+03  0.63680384185E+02  0.30463231139E+03  0.00000000000E+00 0.  1.
        -11    1    3    3    0    0 -0.78343262933E+03  0.83316658273E+03  0.22896410497E+03  0.11663437746E+04  0.00000000000E+00 0. -1.
         22    1    1    2    0    0  0.10182118877E+04 -0.10165360286E+04 -0.80144687849E+03  0.16469420283E+04  0.00000000000E+00 0. -1.
<mgrwt>
<rscale>  0 0.30761231E+04</rscale>
<asrwt>0</asrwt>
<pdfrwt beam="1">  1        2 0.27897850E+00 0.30761231E+04</pdfrwt>
<pdfrwt beam="2">  1       -2 0.20070121E+00 0.30761231E+04</pdfrwt>
<totfact> 0.94971614E-01</totfact>
</mgrwt>
</event>
<event>
 6    1  0.8968082E-007  0.2735205E+04  0.7818608E-02  0.8323672E-01
          1   -1    0    0  501    0  0.00000000000E+00  0.00000000000E+00  0.30781933804E+04  0.30781933804E+04  0.00000000000E+00 0. -1.
         -1   -1    0    0    0  501 -0.00000000000E+00 -0.00000000000E+00 -0.60760857458E+03  0.60760857458E+03  0.00000000000E+00 0.  1.
         23    2    1    2    0    0 -0.41538979313E+03  0.60177439022E+03  0.27915891678E+04  0.28872251600E+04  0.91749365262E+02 0.  0.
         11    1    3    3    0    0 -0.37692048087E+03  0.49131043432E+03  0.22986649866E+04  0.23806124659E+04  0.00000000000E+00 0. -1.
        -11    1    3    3    0    0 -0.38469312263E+02  0.11046395590E+03  0.49292418113E+03  0.50661269416E+03  0.00000000000E+00 0.  1.
         22    1    1    2    0    0  0.41538979313E+03 -0.60177439022E+03 -0.32100436199E+03  0.79857679492E+03  0.00000000000E+00 0.  1.
<mgrwt>
<rscale>  0 0.27352051E+04</rscale>
<asrwt>0</asrwt>
<pdfrwt beam="1">  1        1 0.47356820E+00 0.27352051E+04</pdfrwt>
<pdfrwt beam="2">  1       -1 0.93478244E-01 0.27352051E+04</pdfrwt>
<totfact> 0.50595790E-01</totfact>
</mgrwt>
</event>
<event>
 6    1  0.8968082E-007  0.3135038E+04  0.7818608E-02  0.8206187E-01
         -2   -1    0    0    0  501 -0.00000000000E+00  0.00000000000E+00  0.85531312191E+03  0.85531312191E+03  0.00000000000E+00 0.  1.
          2   -1    0    0  501    0  0.00000000000E+00 -0.00000000000E+00 -0.28727675717E+04  0.28727675717E+04  0.00000000000E+00 0. -1.
         23    2    1    2    0    0  0.91645220737E+03 -0.52182997389E+03  0.36737190051E+03  0.11204787510E+04  0.91210460417E+02 0.  0.
         13    1    3    3    0    0  0.68052541132E+03 -0.42147057451E+03  0.25083416200E+03  0.83885043807E+03  0.00000000000E+00 0. -1.
        -13    1    3    3    0    0  0.23592679605E+03 -0.10035939939E+03  0.11653773852E+03  0.28162831292E+03  0.00000000000E+00 0.  1.
         22    1    1    2    0    0 -0.91645220737E+03  0.52182997389E+03 -0.23848263503E+04  0.26076019426E+04  0.00000000000E+00 0. -1.
<mgrwt>
<rscale>  0 0.31350380E+04</rscale>
<asrwt>0</asrwt>
<pdfrwt beam="1">  1        2 0.44196424E+00 0.31350380E+04</pdfrwt>
<pdfrwt beam="2">  1       -2 0.13158663E+00 0.31350380E+04</pdfrwt>
<totfact> 0.74400082E-01</totfact>
</mgrwt>
</event>
<event>
 6    1  0.8968082E-007  0.1380324E+04  0.7818608E-02  0.8968186E-01
          2   -1    0    0  501    0  0.00000000000E+00  0.00000000000E+00  0.17454199110E+04  0.17454199110E+04  0.00000000000E+00 0. -1.
         -2   -1    0    0    0  501 -0.00000000000E+00 -0.00000000000E+00 -0.27289901789E+03  0.27289901789E+03  0.00000000000E+00 0.  1.
         23    2    1    2    0    0 -0.22160887321E+03  0.29008011088E+03  0.15908827533E+04  0.16345657617E+04  0.87408987279E+02 0.  0.
         11    1    3    3    0    0 -0.40726182595E+02  0.10260253598E+03  0.59624173083E+03  0.60637455745E+03  0.00000000000E+00 0.  1.
        -11    1    3    3    0    0 -0.18088269061E+03  0.18747757490E+03  0.99464102250E+03  0.10281912043E+04  0.00000000000E+00 0. -1.
         22    1    1    2    0    0  0.22160887321E+03 -0.29008011088E+03 -0.11836186019E+03  0.38375316723E+03  0.00000000000E+00 0.  1.
<mgrwt>
<rscale>  0 0.13803237E+04</rscale>
<asrwt>0</asrwt>
<pdfrwt beam="1">  1        2 0.26852613E+00 0.13803237E+04</pdfrwt>
<pdfrwt beam="2">  1       -2 0.41984465E-01 0.13803237E+04</pdfrwt>
<totfact> 0.48483877E+01</totfact>
</mgrwt>
</event>
<event>
 6    1  0.8968082E-007  0.2317641E+04  0.7818608E-02  0.8470998E-01
         -1   -1    0    0    0  501 -0.00000000000E+00  0.00000000000E+00  0.97888042014E+03  0.97888042014E+03  0.00000000000E+00 0.  1.
          1   -1    0    0  501    0  0.00000000000E+00 -0.00000000000E+00 -0.13718371777E+04  0.13718371777E+04  0.00000000000E+00 0. -1.
         23    2    1    2    0    0  0.26165691760E+03  0.29655865296E+02  0.94605322327E+03  0.98605956681E+03  0.89179342777E+02 0.  0.
         13    1    3    3    0    0  0.13669850675E+03  0.11444879210E+02  0.33321893614E+03  0.36035028294E+03  0.00000000000E+00 0. -1.
        -13    1    3    3    0    0  0.12495841085E+03  0.18210986086E+02  0.61283428712E+03  0.62570928387E+03  0.00000000000E+00 0.  1.
         22    1    1    2    0    0 -0.26165691760E+03 -0.29655865296E+02 -0.13390099808E+04  0.13646580310E+04  0.00000000000E+00 0. -1.
<mgrwt>
<rscale>  0 0.23176407E+04</rscale>
<asrwt>0</asrwt>
<pdfrwt beam="1">  1        1 0.21105187E+00 0.23176407E+04</pdfrwt>
<pdfrwt beam="2">  1       -1 0.15059699E+00 0.23176407E+04</pdfrwt>
<totfact> 0.25054869E+00</totfact>
</mgrwt>
</event>
<event>
 6    1  0.8968082E-007  0.9438967E+03  0.7818608E-02  0.9372313E-01
          2   -1    0    0  501    0  0.00000000000E+00  0.00000000000E+00  0.47681278315E+03  0.47681278315E+03  0.00000000000E+00 0. -1.
         -2   -1    0    0    0  501 -0.00000000000E+00 -0.00000000000E+00 -0.46713356786E+03  0.46713356786E+03  0.00000000000E+00 0.  1.
         23    2    1    2    0    0  0.66042745119E+02  0.42923058242E+03  0.17767538763E+03  0.47830351471E+03  0.92764064945E+02 0.  0.
         11    1    3    3    0    0  0.25740756826E+02  0.36947811885E+03  0.13312240371E+03  0.39357113873E+03  0.00000000000E+00 0. -1.
        -11    1    3    3    0    0  0.40301988293E+02  0.59752463574E+02  0.44552983920E+02  0.84732375983E+02  0.00000000000E+00 0.  1.
         22    1    1    2    0    0 -0.66042745119E+02 -0.42923058242E+03 -0.16799617235E+03  0.46564283629E+03  0.00000000000E+00 0.  1.
<mgrwt>
<rscale>  0 0.94389672E+03</rscale>
<asrwt>0</asrwt>
<pdfrwt beam="1">  1        2 0.73355812E-01 0.94389672E+03</pdfrwt>
<pdfrwt beam="2">  1       -2 0.71866703E-01 0.94389672E+03</pdfrwt>
<totfact> 0.11440398E+02</totfact>
</mgrwt>
</event>
<event>
 6    1  0.9167062E-007  0.2872105E+04  0.7818608E-02  0.8281226E-01
          2   -1    0    0  501    0  0.00000000000E+00  0.00000000000E+00  0.24535291674E+04  0.24535291674E+04  0.00000000000E+00 0. -1.
         -2   -1    0    0    0  501 -0.00000000000E+00 -0.00000000000E+00 -0.84052246646E+03  0.84052246646E+03  0.00000000000E+00 0.  1.
         23    2    1    2    0    0  0.34632735095E+03 -0.47358083717E+03 -0.69403826064E+03  0.91357313193E+03  0.93302287234E+02 0.  0.
         11    1    3    3    0    0  0.92939443876E+02 -0.92433110162E+02 -0.20883691297E+03  0.24656535909E+03  0.00000000000E+00 0.  1.
        -11    1    3    3    0    0  0.25338790707E+03 -0.38114772701E+03 -0.48520134767E+03  0.66700777284E+03  0.00000000000E+00 0. -1.
         22    1    1    2    0    0 -0.34632735095E+03  0.47358083717E+03  0.23070449616E+04  0.23804785020E+04  0.00000000000E+00 0. -1.
<mgrwt>
<rscale>  0 0.28721047E+04</rscale>
<asrwt>0</asrwt>
<pdfrwt beam="1">  1        2 0.37746602E+00 0.28721047E+04</pdfrwt>
<pdfrwt beam="2">  1       -2 0.12931115E+00 0.28721047E+04</pdfrwt>
<totfact> 0.14098979E+00</totfact>
</mgrwt>
</event>
<event>
 6    1  0.8968082E-007  0.1550151E+04  0.7818608E-02  0.8851771E-01
          1   -1    0    0  501    0  0.00000000000E+00  0.00000000000E+00  0.12136383842E+04  0.12136383842E+04  0.00000000000E+00 0. -1.
         -1   -1    0    0    0  501 -0.00000000000E+00 -0.00000000000E+00 -0.49499253087E+03  0.49499253087E+03  0.00000000000E+00 0.  1.
         23    2    1    2    0    0  0.44742942362E+03 -0.59668266090E+03  0.58185453067E+03  0.95038613076E+03  0.91955509561E+02 0.  0.
         13    1    3    3    0    0  0.27361469948E+03 -0.29068547275E+03  0.29515254969E+03  0.49646558332E+03  0.00000000000E+00 0.  1.
        -13    1    3    3    0    0  0.17381472414E+03 -0.30599718816E+03  0.28670198098E+03  0.45392054744E+03  0.00000000000E+00 0. -1.
         22    1    1    2    0    0 -0.44742942362E+03  0.59668266090E+03  0.13679132262E+03  0.75824478428E+03  0.00000000000E+00 0.  1.
<mgrwt>
<rscale>  0 0.15501509E+04</rscale>
<asrwt>0</asrwt>
<pdfrwt beam="1">  1        1 0.18671360E+00 0.15501509E+04</pdfrwt>
<pdfrwt beam="2">  1       -1 0.76152697E-01 0.15501509E+04</pdfrwt>
<totfact> 0.17422975E+01</totfact>
</mgrwt>
</event>
<event>
 6    1  0.8968082E-007  0.4069270E+04  0.7818608E-02  0.7990717E-01
         -2   -1    0    0    0  501 -0.00000000000E+00  0.00000000000E+00  0.13588004126E+04  0.13588004126E+04  0.00000000000E+00 0.  1.
          2   -1    0    0  501    0  0.00000000000E+00 -0.00000000000E+00 -0.30466133012E+04  0.30466133012E+04  0.00000000000E+00 0. -1.
         23    2    1    2    0    0 -0.58066237042E+03 -0.55124876839E+03 -0.28681383556E+04  0.29791556021E+04  0.90036000103E+02 0.  0.
         13    1    3    3    0    0 -0.50155763217E+03 -0.43442203321E+03 -0.23042652526E+04  0.23978992714E+04  0.00000000000E+00 0. -1.
        -13    1    3    3    0    0 -0.79104738250E+02 -0.11682673518E+03 -0.56387310303E+03  0.58125633071E+03  0.00000000000E+00 0.  1.
         22    1    1    2    0    0  0.58066237042E+03  0.55124876839E+03  0.11803254671E+04  0.14262581117E+04  0.00000000000E+00 0.  1.
<mgrwt>
<rscale>  0 0.40692699E+04</rscale>
<asrwt>0</asrwt>
<pdfrwt beam="1">  1        2 0.46870974E+00 0.40692699E+04</pdfrwt>
<pdfrwt beam="2">  1       -2 0.20904622E+00 0.40692699E+04</pdfrwt>
<totfact> 0.14816408E-01</totfact>
</mgrwt>
</event>
<event>
 6    1  0.8968082E-007  0.8616148E+03  0.7818608E-02  0.9474879E-01
         -1   -1    0    0    0  501 -0.00000000000E+00  0.00000000000E+00  0.25559449466E+03  0.25559449466E+03  0.00000000000E+00 0.  1.
          1   -1    0    0  501    0  0.00000000000E+00 -0.00000000000E+00 -0.72613067154E+03  0.72613067154E+03  0.00000000000E+00 0. -1.
         23    2    1    2    0    0 -0.31262015128E+03 -0.19958644907E+03  0.40130616371E+00  0.38226856012E+03  0.92536378640E+02 0.  0.
         13    1    3    3    0    0 -0.23604430285E+03 -0.15066643696E+03 -0.39909273009E+02  0.28286045713E+03  0.00000000000E+00 0.  1.
        -13    1    3    3    0    0 -0.76575848431E+02 -0.48920012112E+02  0.40310579173E+02  0.99408102996E+02  0.00000000000E+00 0. -1.
         22    1    1    2    0    0  0.31262015128E+03  0.19958644907E+03 -0.47093748303E+03  0.59945660608E+03  0.00000000000E+00 0. -1.
<mgrwt>
<rscale>  0 0.86161477E+03</rscale>
<asrwt>0</asrwt>
<pdfrwt beam="1">  1        1 0.11171241E+00 0.86161477E+03</pdfrwt>
<pdfrwt beam="2">  1       -1 0.39322230E-01 0.86161477E+03</pdfrwt>
<totfact> 0.16320795E+02</totfact>
</mgrwt>
</event>
<event>
 6    1  0.8968082E-007  0.2220700E+04  0.7818608E-02  0.8509861E-01
         -2   -1    0    0    0  501 -0.00000000000E+00  0.00000000000E+00  0.85388642719E+03  0.85388642719E+03  0.00000000000E+00 0.  1.
          2   -1    0    0  501    0  0.00000000000E+00 -0.00000000000E+00 -0.14438421618E+04  0.14438421618E+04  0.00000000000E+00 0. -1.
         23    2    1    2    0    0 -0.25673899786E+03 -0.37719066889E+03  0.74979171665E+03  0.88241556818E+03  0.91004960860E+02 0.  0.
         13    1    3    3    0    0 -0.23824930025E+03 -0.32387499212E+03  0.69953447896E+03  0.80684956891E+03  0.00000000000E+00 0.  1.
        -13    1    3    3    0    0 -0.18489697608E+02 -0.53315676766E+02  0.50257237690E+02  0.75565999278E+02  0.00000000000E+00 0. -1.
         22    1    1    2    0    0  0.25673899786E+03  0.37719066889E+03 -0.13397474513E+04  0.14153130208E+04  0.00000000000E+00 0. -1.
<mgrwt>
<rscale>  0 0.22207001E+04</rscale>
<asrwt>0</asrwt>
<pdfrwt beam="1">  1        2 0.22212956E+00 0.22207001E+04</pdfrwt>
<pdfrwt beam="2">  1       -2 0.13136714E+00 0.22207001E+04</pdfrwt>
<totfact> 0.52724832E+00</totfact>
</mgrwt>
</event>
<event>
 6    1  0.8968082E-007  0.2526122E+04  0.7818608E-02  0.8393738E-01
         -1   -1    0    0    0  501 -0.00000000000E+00  0.00000000000E+00  0.64971033375E+03  0.64971033375E+03  0.00000000000E+00 0.  1.
          1   -1    0    0  501    0  0.00000000000E+00 -0.00000000000E+00 -0.24554384073E+04  0.24554384073E+04  0.00000000000E+00 0. -1.
         23    2    1    2    0    0  0.69457225716E+03 -0.69821232614E+03  0.64923420092E+02  0.99108438926E+03  0.90011906841E+02 0.  0.
         13    1    3    3    0    0  0.59913852085E+03 -0.62453355212E+03  0.81939976863E+02  0.86932346379E+03  0.00000000000E+00 0.  1.
        -13    1    3    3    0    0  0.95433736312E+02 -0.73678774020E+02 -0.17016556771E+02  0.12176092547E+03  0.00000000000E+00 0. -1.
         22    1    1    2    0    0 -0.69457225716E+03  0.69821232614E+03 -0.18706514936E+04  0.21140643518E+04  0.00000000000E+00 0. -1.
<mgrwt>
<rscale>  0 0.25261225E+04</rscale>
<asrwt>0</asrwt>
<pdfrwt beam="1">  1        1 0.37775975E+00 0.25261225E+04</pdfrwt>
<pdfrwt beam="2">  1       -1 0.99955438E-01 0.25261225E+04</pdfrwt>
<totfact> 0.12297710E+00</totfact>
</mgrwt>
</event>
<event>
 6    1  0.8968082E-007  0.1379783E+04  0.7818608E-02  0.8968584E-01
         -1   -1    0    0    0  501 -0.00000000000E+00  0.00000000000E+00  0.12686345793E+04  0.12686345793E+04  0.00000000000E+00 0.  1.
          1   -1    0    0  501    0  0.00000000000E+00 -0.00000000000E+00 -0.37516726533E+03  0.37516726533E+03  0.00000000000E+00 0. -1.
         23    2    1    2    0    0 -0.30070644153E+03 -0.57975048019E+03  0.19491752511E+03  0.68750336048E+03  0.90183401012E+02 0.  0.
         13    1    3    3    0    0 -0.51792725422E+01 -0.33514676548E+02 -0.66466886330E+01  0.34557732535E+02  0.00000000000E+00 0. -1.
        -13    1    3    3    0    0 -0.29552716899E+03 -0.54623580365E+03  0.20156421375E+03  0.65294562795E+03  0.00000000000E+00 0.  1.
         22    1    1    2    0    0  0.30070644153E+03  0.57975048019E+03  0.69854978885E+03  0.95629848414E+03  0.00000000000E+00 0.  1.
<mgrwt>
<rscale>  0 0.13797828E+04</rscale>
<asrwt>0</asrwt>
<pdfrwt beam="1">  1        1 0.57718041E-01 0.13797828E+04</pdfrwt>
<pdfrwt beam="2">  1       -1 0.19517455E+00 0.13797828E+04</pdfrwt>
<totfact> 0.10371651E+01</totfact>
</mgrwt>
</event>
<event>
 6    1  0.8968082E-007  0.1162733E+04  0.7818608E-02  0.9146116E-01
         -2   -1    0    0    0  501 -0.00000000000E+00  0.00000000000E+00  0.16014217628E+04  0.16014217628E+04  0.00000000000E+00 0.  1.
          2   -1    0    0  501    0  0.00000000000E+00 -0.00000000000E+00 -0.21105435929E+03  0.21105435929E+03  0.00000000000E+00 0. -1.
         23    2    1    2    0    0 -0.31624339367E+03 -0.35023521293E+03  0.17896884966E+03  0.51241418330E+03  0.88678394687E+02 0.  0.
         13    1    3    3    0    0 -0.18795432575E+03 -0.26340047897E+03  0.14065783956E+03  0.35283320240E+03  0.00000000000E+00 0.  1.
        -13    1    3    3    0    0 -0.12828906792E+03 -0.86834733963E+02  0.38311010107E+02  0.15958098090E+03  0.00000000000E+00 0. -1.
         22    1    1    2    0    0  0.31624339367E+03  0.35023521293E+03  0.12113985538E+04  0.13000619388E+04  0.00000000000E+00 0.  1.
<mgrwt>
<rscale>  0 0.11627331E+04</rscale>
<asrwt>0</asrwt>
<pdfrwt beam="1">  1        2 0.32469902E-01 0.11627331E+04</pdfrwt>
<pdfrwt beam="2">  1       -2 0.24637257E+00 0.11627331E+04</pdfrwt>
<totfact> 0.10928471E+01</totfact>
</mgrwt>
</event>
<event>
 6    1  0.8968082E-007  0.1385434E+04  0.7818608E-02  0.8964430E-01
          2   -1    0    0  501    0  0.00000000000E+00  0.00000000000E+00  0.10839279799E+04  0.10839279799E+04  0.00000000000E+00 0. -1.
         -2   -1    0    0    0  501 -0.00000000000E+00 -0.00000000000E+00 -0.44270182113E+03  0.44270182113E+03  0.00000000000E+00 0.  1.
         23    2    1    2    0    0 -0.27161776518E+03 -0.43966842101E+03 -0.18132559043E+03  0.55519997293E+03  0.91013786869E+02 0.  0.
         13    1    3    3    0    0 -0.19748648551E+03 -0.27722993870E+03 -0.79082529249E+02  0.34944441232E+03  0.00000000000E+00 0. -1.
        -13    1    3    3    0    0 -0.74131279665E+02 -0.16243848231E+03 -0.10224306118E+03  0.20575556060E+03  0.00000000000E+00 0.  1.
         22    1    1    2    0    0  0.27161776518E+03  0.43966842101E+03  0.82255174918E+03  0.97142982808E+03  0.00000000000E+00 0. -1.
<mgrwt>
<rscale>  0 0.13854341E+04</rscale>
<asrwt>0</asrwt>
<pdfrwt beam="1">  1        2 0.16675815E+00 0.13854341E+04</pdfrwt>
<pdfrwt beam="2">  1       -2 0.68107973E-01 0.13854341E+04</pdfrwt>
<totfact> 0.42866626E+01</totfact>
</mgrwt>
</event>
<event>
 6    1  0.8968082E-007  0.1152400E+04  0.7818608E-02  0.9155572E-01
         -2   -1    0    0    0  501 -0.00000000000E+00  0.00000000000E+00  0.95044693043E+03  0.95044693043E+03  0.00000000000E+00 0.  1.
          2   -1    0    0  501    0  0.00000000000E+00 -0.00000000000E+00 -0.34931615461E+03  0.34931615461E+03  0.00000000000E+00 0. -1.
         23    2    1    2    0    0 -0.52360327185E+03  0.22971281669E+03  0.35885156671E+03  0.67877389061E+03  0.70930833987E+02 0.  0.
         11    1    3    3    0    0 -0.81330484670E+02  0.59084631972E+02  0.82591876241E+02  0.13010403335E+03  0.00000000000E+00 0. -1.
        -11    1    3    3    0    0 -0.44227278718E+03  0.17062818472E+03  0.27625969046E+03  0.54866985726E+03  0.00000000000E+00 0.  1.
         22    1    1    2    0    0  0.52360327185E+03 -0.22971281669E+03  0.24227920911E+03  0.62098919444E+03  0.00000000000E+00 0.  1.
<mgrwt>
<rscale>  0 0.11524000E+04</rscale>
<asrwt>0</asrwt>
<pdfrwt beam="1">  1        2 0.53740947E-01 0.11524000E+04</pdfrwt>
<pdfrwt beam="2">  1       -2 0.14622260E+00 0.11524000E+04</pdfrwt>
<totfact> 0.29348652E+01</totfact>
</mgrwt>
</event>
<event>
 6    1  0.8968082E-007  0.1163699E+04  0.7818608E-02  0.9145238E-01
         -1   -1    0    0    0  501 -0.00000000000E+00  0.00000000000E+00  0.76525365749E+03  0.76525365749E+03  0.00000000000E+00 0.  1.
          1   -1    0    0  501    0  0.00000000000E+00 -0.00000000000E+00 -0.44240094096E+03  0.44240094096E+03  0.00000000000E+00 0. -1.
         23    2    1    2    0    0 -0.44133099893E+03 -0.11523540396E+03  0.53117859861E+03  0.70620477834E+03  0.92315959550E+02 0.  0.
         13    1    3    3    0    0 -0.33251941391E+03 -0.47138585059E+02  0.40608306715E+03  0.52696742238E+03  0.00000000000E+00 0.  1.
        -13    1    3    3    0    0 -0.10881158502E+03 -0.68096818902E+02  0.12509553146E+03  0.17923735596E+03  0.00000000000E+00 0. -1.
         22    1    1    2    0    0  0.44133099893E+03  0.11523540396E+03 -0.20832588208E+03  0.50144982011E+03  0.00000000000E+00 0. -1.
<mgrwt>
<rscale>  0 0.11636992E+04</rscale>
<asrwt>0</asrwt>
<pdfrwt beam="1">  1        1 0.68061683E-01 0.11636992E+04</pdfrwt>
<pdfrwt beam="2">  1       -1 0.11773133E+00 0.11636992E+04</pdfrwt>
<totfact> 0.33736959E+01</totfact>
</mgrwt>
</event>
<event>
 6    1  0.8968082E-007  0.1644876E+04  0.7818608E-02  0.8793444E-01
          1   -1    0    0  501    0  0.00000000000E+00  0.00000000000E+00  0.13218369221E+04  0.13218369221E+04  0.00000000000E+00 0. -1.
         -1   -1    0    0    0  501 -0.00000000000E+00 -0.00000000000E+00 -0.51171527101E+03  0.51171527101E+03  0.00000000000E+00 0.  1.
         23    2    1    2    0    0 -0.11719568982E+03  0.18361517656E+03 -0.47460254721E+03  0.53049209147E+03  0.93407272275E+02 0.  0.
         11    1    3    3    0    0 -0.11318399621E+03  0.12086994681E+03 -0.40005199540E+03  0.43296854396E+03  0.00000000000E+00 0.  1.
        -11    1    3    3    0    0 -0.40116936077E+01  0.62745229750E+02 -0.74550551819E+02  0.97523547508E+02  0.00000000000E+00 0. -1.
         22    1    1    2    0    0  0.11719568982E+03 -0.18361517656E+03  0.12847241983E+04  0.13030601017E+04  0.00000000000E+00 0. -1.
<mgrwt>
<rscale>  0 0.16448758E+04</rscale>
<asrwt>0</asrwt>
<pdfrwt beam="1">  1        1 0.20335952E+00 0.16448758E+04</pdfrwt>
<pdfrwt beam="2">  1       -1 0.78725427E-01 0.16448758E+04</pdfrwt>
<totfact> 0.13466287E+01</totfact>
</mgrwt>
</event>
<event>
 6    1  0.8968082E-007  0.6266983E+04  0.7818608E-02  0.7658153E-01
          2   -1    0    0  501    0  0.00000000000E+00  0.00000000000E+00  0.22011205168E+04  0.22011205168E+04  0.00000000000E+00 0. -1.
         -2   -1    0    0    0  501 -0.00000000000E+00 -0.00000000000E+00 -0.44608047289E+04  0.44608047289E+04  0.00000000000E+00 0.  1.
         23    2    1    2    0    0 -0.10998507826E+04  0.16229682324E+04 -0.37276039067E+04  0.42127445955E+04  0.92133130555E+02 0.  0.
         13    1    3    3    0    0 -0.73156114981E+03  0.11532310209E+04 -0.26136619612E+04  0.29489578415E+04  0.00000000000E+00 0. -1.
        -13    1    3    3    0    0 -0.36828963282E+03  0.46973721147E+03 -0.11139419455E+04  0.12637867539E+04  0.00000000000E+00 0.  1.
         22    1    1    2    0    0  0.10998507826E+04 -0.16229682324E+04  0.14679196946E+04  0.24491806502E+04  0.00000000000E+00 0. -1.
<mgrwt>
<rscale>  0 0.62669829E+04</rscale>
<asrwt>0</asrwt>
<pdfrwt beam="1">  1        2 0.33863393E+00 0.62669829E+04</pdfrwt>
<pdfrwt beam="2">  1       -2 0.68627765E+00 0.62669829E+04</pdfrwt>
<totfact> 0.88238581E-04</totfact>
</mgrwt>
</event>
<event>
 6    1  0.8968082E-007  0.3286248E+04  0.7818608E-02  0.8166403E-01
         -2   -1    0    0    0  501 -0.00000000000E+00  0.00000000000E+00  0.89073078082E+03  0.89073078082E+03  0.00000000000E+00 0.  1.
          2   -1    0    0  501    0  0.00000000000E+00 -0.00000000000E+00 -0.30310576591E+04  0.30310576591E+04  0.00000000000E+00 0. -1.
         23    2    1    2    0    0 -0.10743016691E+03 -0.99304182863E+03 -0.26260862979E+04  0.28110969761E+04  0.90904622600E+02 0.  0.
         11    1    3    3    0    0 -0.65476409685E+02 -0.31579635015E+03 -0.76682280502E+03  0.83188443265E+03  0.00000000000E+00 0. -1.
        -11    1    3    3    0    0 -0.41953757222E+02 -0.67724547848E+03 -0.18592634929E+04  0.19792125434E+04  0.00000000000E+00 0.  1.
         22    1    1    2    0    0  0.10743016691E+03  0.99304182863E+03  0.48575941965E+03  0.11106914639E+04  0.00000000000E+00 0.  1.
<mgrwt>
<rscale>  0 0.32862479E+04</rscale>
<asrwt>0</asrwt>
<pdfrwt beam="1">  1        2 0.46631658E+00 0.32862479E+04</pdfrwt>
<pdfrwt beam="2">  1       -2 0.13703550E+00 0.32862479E+04</pdfrwt>
<totfact> 0.52799976E-01</totfact>
</mgrwt>
</event>
<event>
 6    1  0.8968082E-007  0.2611576E+04  0.7818608E-02  0.8364280E-01
         -1   -1    0    0    0  501 -0.00000000000E+00  0.00000000000E+00  0.19042799461E+04  0.19042799461E+04  0.00000000000E+00 0.  1.
          1   -1    0    0  501    0  0.00000000000E+00 -0.00000000000E+00 -0.89539451971E+03  0.89539451971E+03  0.00000000000E+00 0. -1.
         23    2    1    2    0    0  0.99936896827E+03  0.38230314486E+03 -0.29422976128E+03  0.11135537045E+04  0.92394107624E+02 0.  0.
         11    1    3    3    0    0  0.72106284232E+03  0.23084601003E+03 -0.21015453043E+03  0.78573941583E+03  0.00000000000E+00 0.  1.
        -11    1    3    3    0    0  0.27830612595E+03  0.15145713483E+03 -0.84075230852E+02  0.32781428870E+03  0.00000000000E+00 0. -1.
         22    1    1    2    0    0 -0.99936896827E+03 -0.38230314486E+03  0.13031151877E+04  0.16861207613E+04  0.00000000000E+00 0.  1.
<mgrwt>
<rscale>  0 0.26115756E+04</rscale>
<asrwt>0</asrwt>
<pdfrwt beam="1">  1        1 0.13775300E+00 0.26115756E+04</pdfrwt>
<pdfrwt beam="2">  1       -1 0.29296615E+00 0.26115756E+04</pdfrwt>
<totfact> 0.59241848E-01</totfact>
</mgrwt>
</event>
<event>
 6    1  0.8968082E-007  0.1504503E+04  0.7818608E-02  0.8881464E-01
         -2   -1    0    0    0  501 -0.00000000000E+00  0.00000000000E+00  0.43659487352E+03  0.43659487352E+03  0.00000000000E+00 0.  1.
          2   -1    0    0  501    0  0.00000000000E+00 -0.00000000000E+00 -0.12961273390E+04  0.12961273390E+04  0.00000000000E+00 0. -1.
         23    2    1    2    0    0 -0.40217802060E+03  0.42764191161E+03 -0.96807449112E+03  0.11357246110E+04  0.89874395327E+02 0.  0.
         11    1    3    3    0    0 -0.72865319257E+02  0.12589050044E+03 -0.27709686462E+03  0.31295438203E+03  0.00000000000E+00 0.  1.
        -11    1    3    3    0    0 -0.32931270135E+03  0.30175141117E+03 -0.69097762649E+03  0.82277022900E+03  0.00000000000E+00 0. -1.
         22    1    1    2    0    0  0.40217802060E+03 -0.42764191161E+03  0.10854202566E+03  0.59699760146E+03  0.00000000000E+00 0.  1.
<mgrwt>
<rscale>  0 0.15045033E+04</rscale>
<asrwt>0</asrwt>
<pdfrwt beam="1">  1        2 0.19940421E+00 0.15045033E+04</pdfrwt>
<pdfrwt beam="2">  1       -2 0.67168441E-01 0.15045033E+04</pdfrwt>
<totfact> 0.32643176E+01</totfact>
</mgrwt>
</event>
<event>
 6    1  0.8968082E-007  0.2559955E+04  0.7818608E-02  0.8381932E-01
         -1   -1    0    0    0  501 -0.00000000000E+00  0.00000000000E+00  0.92061186297E+03  0.92061186297E+03  0.00000000000E+00 0.  1.
          1   -1    0    0  501    0  0.00000000000E+00 -0.00000000000E+00 -0.17796230593E+04  0.17796230593E+04  0.00000000000E+00 0. -1.
         23    2    1    2    0    0 -0.52375162639E+03  0.96818319737E+03  0.25539226245E+03  0.11338411216E+04  0.93145109988E+02 0.  0.
         11    1    3    3    0    0 -0.34903298598E+03  0.57159369286E+03  0.12518681702E+03  0.68133333558E+03  0.00000000000E+00 0. -1.
        -11    1    3    3    0    0 -0.17471864040E+03  0.39658950451E+03  0.13020544543E+03  0.45250778602E+03  0.00000000000E+00 0.  1.
         22    1    1    2    0    0  0.52375162639E+03 -0.96818319737E+03 -0.11144034587E+04  0.15663938006E+04  0.00000000000E+00 0. -1.
<mgrwt>
<rscale>  0 0.25599548E+04</rscale>
<asrwt>0</asrwt>
<pdfrwt beam="1">  1        1 0.27378816E+00 0.25599548E+04</pdfrwt>
<pdfrwt beam="2">  1       -1 0.14163260E+00 0.25599548E+04</pdfrwt>
<totfact> 0.15113972E+00</totfact>
</mgrwt>
</event>
<event>
 6    1  0.8968082E-007  0.4733075E+04  0.7818608E-02  0.7871056E-01
          2   -1    0    0  501    0  0.00000000000E+00  0.00000000000E+00  0.30389251378E+04  0.30389251378E+04  0.00000000000E+00 0. -1.
         -2   -1    0    0    0  501 -0.00000000000E+00 -0.00000000000E+00 -0.18429212540E+04  0.18429212540E+04  0.00000000000E+00 0.  1.
         23    2    1    2    0    0  0.14172295265E+04  0.15081091222E+04  0.17802039782E+04  0.27314458698E+04  0.93475558986E+02 0.  0.
         11    1    3    3    0    0  0.64710554197E+02  0.96368587093E+02  0.11368037652E+03  0.16247334676E+03  0.00000000000E+00 0. -1.
        -11    1    3    3    0    0  0.13525189723E+04  0.14117405351E+04  0.16665236017E+04  0.25689725230E+04  0.00000000000E+00 0.  1.
         22    1    1    2    0    0 -0.14172295265E+04 -0.15081091222E+04 -0.58420009441E+03  0.21504005221E+04  0.00000000000E+00 0.  1.
<mgrwt>
<rscale>  0 0.47330750E+04</rscale>
<asrwt>0</asrwt>
<pdfrwt beam="1">  1        2 0.46752694E+00 0.47330750E+04</pdfrwt>
<pdfrwt beam="2">  1       -2 0.28352635E+00 0.47330750E+04</pdfrwt>
<totfact> 0.49013100E-02</totfact>
</mgrwt>
</event>
<event>
 6    1  0.8968082E-007  0.2353641E+04  0.7818608E-02  0.8457066E-01
          2   -1    0    0  501    0  0.00000000000E+00  0.00000000000E+00  0.24110786247E+04  0.24110786247E+04  0.00000000000E+00 0. -1.
         -2   -1    0    0    0  501 -0.00000000000E+00 -0.00000000000E+00 -0.57439297366E+03  0.57439297366E+03  0.00000000000E+00 0.  1.
         23    2    1    2    0    0  0.74103961562E+03 -0.70914653352E+03  0.16467266030E+04  0.19423450682E+04  0.94696045768E+02 0.  0.
         13    1    3    3    0    0  0.44115367774E+02 -0.32503689746E+02  0.13192620418E+03  0.14285369743E+03  0.00000000000E+00 0.  1.
        -13    1    3    3    0    0  0.69692424784E+03 -0.67664284377E+03  0.15148003988E+04  0.17994913708E+04  0.00000000000E+00 0. -1.
         22    1    1    2    0    0 -0.74103961562E+03  0.70914653352E+03  0.18995904803E+03  0.10431265301E+04  0.00000000000E+00 0.  1.
<mgrwt>
<rscale>  0 0.23536411E+04</rscale>
<asrwt>0</asrwt>
<pdfrwt beam="1">  1        2 0.37093517E+00 0.23536411E+04</pdfrwt>
<pdfrwt beam="2">  1       -2 0.88368151E-01 0.23536411E+04</pdfrwt>
<totfact> 0.38977550E+00</totfact>
</mgrwt>
</event>
<event>
 6    1  0.8968082E-007  0.2785143E+04  0.7818608E-02  0.8307896E-01
         -4   -1    0    0    0  501 -0.00000000000E+00  0.00000000000E+00  0.74373439890E+03  0.74373439890E+03  0.00000000000E+00 0.  1.
          4   -1    0    0  501    0  0.00000000000E+00 -0.00000000000E+00 -0.26074578038E+04  0.26074578038E+04  0.00000000000E+00 0. -1.
         23    2    1    2    0    0 -0.78967266093E+03  0.10349542564E+04 -0.15224651291E+04  0.20053948795E+04  0.94843707783E+02 0.  0.
         11    1    3    3    0    0 -0.60359378589E+03  0.84682632282E+03 -0.11861617347E+04  0.15774726432E+04  0.00000000000E+00 0. -1.
        -11    1    3    3    0    0 -0.18607887504E+03  0.18812793361E+03 -0.33630339448E+03  0.42792223625E+03  0.00000000000E+00 0.  1.
         22    1    1    2    0    0  0.78967266093E+03 -0.10349542564E+04 -0.34125827573E+03  0.13457973232E+04  0.00000000000E+00 0.  1.
<mgrwt>
<rscale>  0 0.27851435E+04</rscale>
<asrwt>0</asrwt>
<pdfrwt beam="1">  1        4 0.40114736E+00 0.27851435E+04</pdfrwt>
<pdfrwt beam="2">  1       -4 0.11442067E+00 0.27851435E+04</pdfrwt>
<totfact> 0.69058781E-03</totfact>
</mgrwt>
</event>
<event>
 6    1  0.8968082E-007  0.2343702E+04  0.7818608E-02  0.8460887E-01
         -1   -1    0    0    0  501 -0.00000000000E+00  0.00000000000E+00  0.93295256145E+03  0.93295256145E+03  0.00000000000E+00 0.  1.
          1   -1    0    0  501    0  0.00000000000E+00 -0.00000000000E+00 -0.14719233792E+04  0.14719233792E+04  0.00000000000E+00 0. -1.
         23    2    1    2    0    0  0.12312740053E+02  0.11404885880E+04 -0.18178873577E+01  0.11441622168E+04  0.90763708148E+02 0.  0.
         11    1    3    3    0    0  0.27924331401E+02  0.76414842147E+03 -0.39102043496E+02  0.76565759196E+03  0.00000000000E+00 0. -1.
        -11    1    3    3    0    0 -0.15611591348E+02  0.37634016651E+03  0.37284156139E+02  0.37850462482E+03  0.00000000000E+00 0.  1.
         22    1    1    2    0    0 -0.12312740053E+02 -0.11404885880E+04 -0.53715293036E+03  0.12607137238E+04  0.00000000000E+00 0. -1.
<mgrwt>
<rscale>  0 0.23437019E+04</rscale>
<asrwt>0</asrwt>
<pdfrwt beam="1">  1        1 0.22644975E+00 0.23437019E+04</pdfrwt>
<pdfrwt beam="2">  1       -1 0.14353116E+00 0.23437019E+04</pdfrwt>
<totfact> 0.24187311E+00</totfact>
</mgrwt>
</event>
<event>
 6    1  0.8968082E-007  0.2716823E+04  0.7818608E-02  0.8329567E-01
          2   -1    0    0  501    0  0.00000000000E+00  0.00000000000E+00  0.26539492748E+04  0.26539492748E+04  0.00000000000E+00 0. -1.
         -2   -1    0    0    0  501 -0.00000000000E+00 -0.00000000000E+00 -0.69529654971E+03  0.69529654971E+03  0.00000000000E+00 0.  1.
         23    2    1    2    0    0  0.91437412063E+03 -0.11532656663E+03 -0.24589003157E+03  0.95981304342E+03  0.10676573061E+03 0.  0.
         13    1    3    3    0    0  0.33673083549E+03 -0.93484349898E+02 -0.10365239388E+03  0.36451446885E+03  0.00000000000E+00 0. -1.
        -13    1    3    3    0    0  0.57764328514E+03 -0.21842216733E+02 -0.14223763769E+03  0.59529857456E+03  0.00000000000E+00 0.  1.
         22    1    1    2    0    0 -0.91437412063E+03  0.11532656663E+03  0.22045427566E+04  0.23894327811E+04  0.00000000000E+00 0. -1.
<mgrwt>
<rscale>  0 0.27168230E+04</rscale>
<asrwt>0</asrwt>
<pdfrwt beam="1">  1        2 0.40829988E+00 0.27168230E+04</pdfrwt>
<pdfrwt beam="2">  1       -2 0.10696870E+00 0.27168230E+04</pdfrwt>
<totfact> 0.17411922E+00</totfact>
</mgrwt>
</event>
<event>
 6    1  0.8968082E-007  0.3821832E+04  0.7818608E-02  0.8041486E-01
         -2   -1    0    0    0  501 -0.00000000000E+00  0.00000000000E+00  0.27209380206E+04  0.27209380206E+04  0.00000000000E+00 0.  1.
          2   -1    0    0  501    0  0.00000000000E+00 -0.00000000000E+00 -0.13420369919E+04  0.13420369919E+04  0.00000000000E+00 0. -1.
         23    2    1    2    0    0  0.14538589954E+03 -0.19781245266E+03  0.27033750138E+04  0.27159419158E+04  0.88527952895E+02 0.  0.
         11    1    3    3    0    0  0.18620709570E+02 -0.54825833655E+01  0.53786750889E+03  0.53821765733E+03  0.00000000000E+00 0. -1.
        -11    1    3    3    0    0  0.12676518997E+03 -0.19232986929E+03  0.21655075049E+04  0.21777242585E+04  0.00000000000E+00 0.  1.
         22    1    1    2    0    0 -0.14538589954E+03  0.19781245266E+03 -0.13244739852E+04  0.13470330967E+04  0.00000000000E+00 0. -1.
<mgrwt>
<rscale>  0 0.38218317E+04</rscale>
<asrwt>0</asrwt>
<pdfrwt beam="1">  1        2 0.20646723E+00 0.38218317E+04</pdfrwt>
<pdfrwt beam="2">  1       -2 0.41860585E+00 0.38218317E+04</pdfrwt>
<totfact> 0.70000796E-02</totfact>
</mgrwt>
</event>
<event>
 6    1  0.8968082E-007  0.3025785E+04  0.7818608E-02  0.8236406E-01
         -1   -1    0    0    0  501 -0.00000000000E+00  0.00000000000E+00  0.68365638069E+03  0.68365638069E+03  0.00000000000E+00 0.  1.
          1   -1    0    0  501    0  0.00000000000E+00 -0.00000000000E+00 -0.33479440868E+04  0.33479440868E+04  0.00000000000E+00 0. -1.
         23    2    1    2    0    0 -0.76224547212E+03 -0.11546478773E+04 -0.52235664938E+03  0.14816791879E+04  0.91032227175E+02 0.  0.
         13    1    3    3    0    0 -0.73106377843E+03 -0.10985466547E+04 -0.51713819840E+03  0.14172829347E+04  0.00000000000E+00 0. -1.
        -13    1    3    3    0    0 -0.31181693689E+02 -0.56101222584E+02 -0.52184509784E+01  0.64396253209E+02  0.00000000000E+00 0.  1.
         22    1    1    2    0    0  0.76224547212E+03  0.11546478773E+04 -0.21419310568E+04  0.25499212796E+04  0.00000000000E+00 0.  1.
<mgrwt>
<rscale>  0 0.30257847E+04</rscale>
<asrwt>0</asrwt>
<pdfrwt beam="1">  1        1 0.51506830E+00 0.30257847E+04</pdfrwt>
<pdfrwt beam="2">  1       -1 0.10517791E+00 0.30257847E+04</pdfrwt>
<totfact> 0.23611875E-01</totfact>
</mgrwt>
</event>
<event>
 6    1  0.8968082E-007  0.3113315E+04  0.7818608E-02  0.8212093E-01
         -2   -1    0    0    0  501 -0.00000000000E+00  0.00000000000E+00  0.30275862629E+04  0.30275862629E+04  0.00000000000E+00 0.  1.
          2   -1    0    0  501    0  0.00000000000E+00 -0.00000000000E+00 -0.80036771322E+03  0.80036771322E+03  0.00000000000E+00 0. -1.
         23    2    1    2    0    0 -0.82135015740E+01 -0.54748987106E+03  0.29044775321E+04  0.29570393134E+04  0.90989813880E+02 0.  0.
         13    1    3    3    0    0 -0.49335279541E+02 -0.33609156478E+03  0.17707468826E+04  0.18030352276E+04  0.00000000000E+00 0. -1.
        -13    1    3    3    0    0  0.41121777967E+02 -0.21139830628E+03  0.11337306496E+04  0.11540040859E+04  0.00000000000E+00 0.  1.
         22    1    1    2    0    0  0.82135015740E+01  0.54748987106E+03 -0.67725898239E+03  0.87091466272E+03  0.00000000000E+00 0. -1.
<mgrwt>
<rscale>  0 0.31133148E+04</rscale>
<asrwt>0</asrwt>
<pdfrwt beam="1">  1        2 0.12313350E+00 0.31133148E+04</pdfrwt>
<pdfrwt beam="2">  1       -2 0.46578250E+00 0.31133148E+04</pdfrwt>
<totfact> 0.79622441E-02</totfact>
</mgrwt>
</event>
<event>
 6    1  0.8968082E-007  0.3638801E+04  0.7818608E-02  0.8081661E-01
          2   -1    0    0  501    0  0.00000000000E+00  0.00000000000E+00  0.23659096432E+04  0.23659096432E+04  0.00000000000E+00 0. -1.
         -2   -1    0    0    0  501 -0.00000000000E+00 -0.00000000000E+00 -0.13991313573E+04  0.13991313573E+04  0.00000000000E+00 0.  1.
         23    2    1    2    0    0  0.97430611129E+03 -0.37441345855E+03 -0.10567871978E+04  0.14881406725E+04  0.91135302299E+02 0.  0.
         13    1    3    3    0    0  0.39821470774E+03 -0.14874609488E+03 -0.36775991058E+03  0.56209225758E+03  0.00000000000E+00 0. -1.
        -13    1    3    3    0    0  0.57609140355E+03 -0.22566736367E+03 -0.68902728726E+03  0.92604841496E+03  0.00000000000E+00 0.  1.
         22    1    1    2    0    0 -0.97430611129E+03  0.37441345855E+03  0.20235654837E+04  0.22769003279E+04  0.00000000000E+00 0. -1.
<mgrwt>
<rscale>  0 0.36388011E+04</rscale>
<asrwt>0</asrwt>
<pdfrwt beam="1">  1        2 0.36398610E+00 0.36388011E+04</pdfrwt>
<pdfrwt beam="2">  1       -2 0.21525098E+00 0.36388011E+04</pdfrwt>
<totfact> 0.35796415E-01</totfact>
</mgrwt>
</event>
<event>
 6    1  0.8968082E-007  0.2096749E+04  0.7818608E-02  0.8562677E-01
          1   -1    0    0  501    0  0.00000000000E+00  0.00000000000E+00  0.93539033617E+03  0.93539033617E+03  0.00000000000E+00 0. -1.
         -1   -1    0    0    0  501 -0.00000000000E+00 -0.00000000000E+00 -0.11750054025E+04  0.11750054025E+04  0.00000000000E+00 0.  1.
         23    2    1    2    0    0 -0.59235319404E+03  0.28643737818E+02  0.74766223357E+03  0.95869298314E+03  0.91600492378E+02 0.  0.
         11    1    3    3    0    0 -0.37372792273E+03  0.94919987949E+01  0.53829203004E+03  0.65537849207E+03  0.00000000000E+00 0. -1.
        -11    1    3    3    0    0 -0.21862527131E+03  0.19151739023E+02  0.20937020354E+03  0.30331449106E+03  0.00000000000E+00 0.  1.
         22    1    1    2    0    0  0.59235319404E+03 -0.28643737818E+02 -0.98727729991E+03  0.11517027555E+04  0.00000000000E+00 0.  1.
<mgrwt>
<rscale>  0 0.20967486E+04</rscale>
<asrwt>0</asrwt>
<pdfrwt beam="1">  1        1 0.14390621E+00 0.20967486E+04</pdfrwt>
<pdfrwt beam="2">  1       -1 0.18077006E+00 0.20967486E+04</pdfrwt>
<totfact> 0.32188642E+00</totfact>
</mgrwt>
</event>
<event>
 6    1  0.8968082E-007  0.2431136E+04  0.7818608E-02  0.8427938E-01
          1   -1    0    0  501    0  0.00000000000E+00  0.00000000000E+00  0.27692562577E+04  0.27692562577E+04  0.00000000000E+00 0. -1.
         -1   -1    0    0    0  501 -0.00000000000E+00 -0.00000000000E+00 -0.53357503341E+03  0.53357503341E+03  0.00000000000E+00 0.  1.
         23    2    1    2    0    0  0.76660568226E+03 -0.72699845508E+03  0.19315145822E+04  0.22034094558E+04  0.89741981379E+02 0.  0.
         11    1    3    3    0    0  0.44777317535E+03 -0.41616307199E+03  0.10252411659E+04  0.11936548778E+04  0.00000000000E+00 0.  1.
        -11    1    3    3    0    0  0.31883250691E+03 -0.31083538309E+03  0.90627341623E+03  0.10097545780E+04  0.00000000000E+00 0. -1.
         22    1    1    2    0    0 -0.76660568226E+03  0.72699845508E+03  0.30416664219E+03  0.10994218353E+04  0.00000000000E+00 0.  1.
<mgrwt>
<rscale>  0 0.24311364E+04</rscale>
<asrwt>0</asrwt>
<pdfrwt beam="1">  1        1 0.42603942E+00 0.24311364E+04</pdfrwt>
<pdfrwt beam="2">  1       -1 0.82088468E-01 0.24311364E+04</pdfrwt>
<totfact> 0.11562128E+00</totfact>
</mgrwt>
</event>
<event>
 6    1  0.8968082E-007  0.3979716E+04  0.7818608E-02  0.8008651E-01
         -1   -1    0    0    0  501 -0.00000000000E+00  0.00000000000E+00  0.11848145068E+04  0.11848145068E+04  0.00000000000E+00 0.  1.
          1   -1    0    0  501    0  0.00000000000E+00 -0.00000000000E+00 -0.33419035866E+04  0.33419035866E+04  0.00000000000E+00 0. -1.
         23    2    1    2    0    0  0.76989041166E+03 -0.12038894418E+04 -0.26524771028E+04  0.30142729449E+04  0.90141952440E+02 0.  0.
         11    1    3    3    0    0  0.15450041351E+03 -0.18642577533E+03 -0.48324241412E+03  0.54050733416E+03  0.00000000000E+00 0. -1.
        -11    1    3    3    0    0  0.61538999816E+03 -0.10174636664E+04 -0.21692346887E+04  0.24737656107E+04  0.00000000000E+00 0.  1.
         22    1    1    2    0    0 -0.76989041166E+03  0.12038894418E+04  0.49538802294E+03  0.15124451485E+04  0.00000000000E+00 0.  1.
<mgrwt>
<rscale>  0 0.39797165E+04</rscale>
<asrwt>0</asrwt>
<pdfrwt beam="1">  1        1 0.51413901E+00 0.39797165E+04</pdfrwt>
<pdfrwt beam="2">  1       -1 0.18227916E+00 0.39797165E+04</pdfrwt>
<totfact> 0.52057365E-02</totfact>
</mgrwt>
</event>
<event>
 6    1  0.8968082E-007  0.1430099E+04  0.7818608E-02  0.8932315E-01
          2   -1    0    0  501    0  0.00000000000E+00  0.00000000000E+00  0.11264386070E+04  0.11264386070E+04  0.00000000000E+00 0. -1.
         -2   -1    0    0    0  501 -0.00000000000E+00 -0.00000000000E+00 -0.45390499573E+03  0.45390499573E+03  0.00000000000E+00 0.  1.
         23    2    1    2    0    0 -0.78577965915E+02  0.65272940515E+03  0.64037004008E+03  0.92211517092E+03  0.89400375511E+02 0.  0.
         13    1    3    3    0    0 -0.20458790416E+02  0.43404080180E+03  0.45965145790E+03  0.63252623858E+03  0.00000000000E+00 0. -1.
        -13    1    3    3    0    0 -0.58119175499E+02  0.21868860334E+03  0.18071858218E+03  0.28958893235E+03  0.00000000000E+00 0.  1.
         22    1    1    2    0    0  0.78577965915E+02 -0.65272940515E+03  0.32163571150E+02  0.65822843176E+03  0.00000000000E+00 0.  1.
<mgrwt>
<rscale>  0 0.14300995E+04</rscale>
<asrwt>0</asrwt>
<pdfrwt beam="1">  1        2 0.17329825E+00 0.14300995E+04</pdfrwt>
<pdfrwt beam="2">  1       -2 0.69831539E-01 0.14300995E+04</pdfrwt>
<totfact> 0.38091612E+01</totfact>
</mgrwt>
</event>
<event>
 6    1  0.9840073E-007  0.4878642E+04  0.7818608E-02  0.7847505E-01
          1   -1    0    0  501    0  0.00000000000E+00  0.00000000000E+00  0.24189295374E+04  0.24189295374E+04  0.00000000000E+00 0. -1.
         -1   -1    0    0    0  501 -0.00000000000E+00 -0.00000000000E+00 -0.24598844523E+04  0.24598844523E+04  0.00000000000E+00 0.  1.
         23    2    1    2    0    0  0.23610937276E+04 -0.22071244820E+03  0.54769913819E+03  0.24354574521E+04  0.89448753402E+02 0.  0.
         13    1    3    3    0    0  0.99375562715E+03 -0.13126615316E+03  0.20862770148E+03  0.10238684326E+04  0.00000000000E+00 0. -1.
        -13    1    3    3    0    0  0.13673381005E+04 -0.89446295045E+02  0.33907143671E+03  0.14115890195E+04  0.00000000000E+00 0.  1.
         22    1    1    2    0    0 -0.23610937276E+04  0.22071244820E+03 -0.58865405304E+03  0.24433565376E+04  0.00000000000E+00 0.  1.
<mgrwt>
<rscale>  0 0.48786421E+04</rscale>
<asrwt>0</asrwt>
<pdfrwt beam="1">  1        1 0.37214301E+00 0.48786421E+04</pdfrwt>
<pdfrwt beam="2">  1       -1 0.37844376E+00 0.48786421E+04</pdfrwt>
<totfact> 0.11265980E-02</totfact>
</mgrwt>
</event>
<event>
 6    1  0.8968082E-007  0.2524679E+04  0.7818608E-02  0.8394246E-01
         -2   -1    0    0    0  501 -0.00000000000E+00  0.00000000000E+00  0.13947167955E+04  0.13947167955E+04  0.00000000000E+00 0.  1.
          2   -1    0    0  501    0  0.00000000000E+00 -0.00000000000E+00 -0.11425264394E+04  0.11425264394E+04  0.00000000000E+00 0. -1.
         23    2    1    2    0    0  0.47547669193E+03 -0.66194460415E+03 -0.84038102097E+03  0.11741728194E+04  0.90514120343E+02 0.  0.
         13    1    3    3    0    0  0.18805729477E+03 -0.26956697123E+03 -0.27660903717E+03  0.42958637960E+03  0.00000000000E+00 0. -1.
        -13    1    3    3    0    0  0.28741939716E+03 -0.39237763292E+03 -0.56377198380E+03  0.74458643984E+03  0.00000000000E+00 0.  1.
         22    1    1    2    0    0 -0.47547669193E+03  0.66194460415E+03  0.10925713771E+04  0.13630704155E+04  0.00000000000E+00 0.  1.
<mgrwt>
<rscale>  0 0.25246788E+04</rscale>
<asrwt>0</asrwt>
<pdfrwt beam="1">  1        2 0.17577330E+00 0.25246788E+04</pdfrwt>
<pdfrwt beam="2">  1       -2 0.21457181E+00 0.25246788E+04</pdfrwt>
<totfact> 0.19541728E+00</totfact>
</mgrwt>
</event>
<event>
 6    1  0.8968082E-007  0.9735339E+03  0.7818608E-02  0.9338058E-01
         -2   -1    0    0    0  501 -0.00000000000E+00  0.00000000000E+00  0.17651878834E+03  0.17651878834E+03  0.00000000000E+00 0.  1.
          2   -1    0    0  501    0  0.00000000000E+00 -0.00000000000E+00 -0.13423050273E+04  0.13423050273E+04  0.00000000000E+00 0. -1.
         23    2    1    2    0    0 -0.43246724103E+03  0.20203893476E+03 -0.69676888864E+03  0.84962659462E+03  0.92362440359E+02 0.  0.
         13    1    3    3    0    0 -0.31692035030E+03  0.18007600194E+03 -0.47659877824E+03  0.60001022519E+03  0.00000000000E+00 0. -1.
        -13    1    3    3    0    0 -0.11554689072E+03  0.21962932813E+02 -0.22017011040E+03  0.24961636943E+03  0.00000000000E+00 0.  1.
         22    1    1    2    0    0  0.43246724103E+03 -0.20203893476E+03 -0.46901735032E+03  0.66919722102E+03  0.00000000000E+00 0. -1.
<mgrwt>
<rscale>  0 0.97353389E+03</rscale>
<asrwt>0</asrwt>
<pdfrwt beam="1">  1        2 0.20650846E+00 0.97353389E+03</pdfrwt>
<pdfrwt beam="2">  1       -2 0.27156738E-01 0.97353389E+03</pdfrwt>
<totfact> 0.19233173E+02</totfact>
</mgrwt>
</event>
<event>
 6    1  0.8968082E-007  0.9889256E+03  0.7818608E-02  0.9320775E-01
          2   -1    0    0  501    0  0.00000000000E+00  0.00000000000E+00  0.12805914160E+03  0.12805914160E+03  0.00000000000E+00 0. -1.
         -2   -1    0    0    0  501 -0.00000000000E+00 -0.00000000000E+00 -0.19092228752E+04  0.19092228752E+04  0.00000000000E+00 0.  1.
         23    2    1    2    0    0  0.58028356345E+02 -0.48070789029E+03 -0.75719600502E+03  0.90460497761E+03  0.10255247227E+03 0.  0.
         11    1    3    3    0    0  0.65450241422E+02 -0.35281977058E+03 -0.62388282299E+03  0.71971890446E+03  0.00000000000E+00 0.  1.
        -11    1    3    3    0    0 -0.74218850773E+01 -0.12788811972E+03 -0.13331318203E+03  0.18488607315E+03  0.00000000000E+00 0. -1.
         22    1    1    2    0    0 -0.58028356345E+02  0.48070789029E+03 -0.10239677286E+04  0.11326770392E+04  0.00000000000E+00 0.  1.
<mgrwt>
<rscale>  0 0.98892556E+03</rscale>
<asrwt>0</asrwt>
<pdfrwt beam="1">  1        2 0.19701407E-01 0.98892556E+03</pdfrwt>
<pdfrwt beam="2">  1       -2 0.29372658E+00 0.98892556E+03</pdfrwt>
<totfact> 0.10192464E+01</totfact>
</mgrwt>
</event>
<event>
 6    1  0.8968082E-007  0.1739861E+04  0.7818608E-02  0.8738951E-01
         -1   -1    0    0    0  501 -0.00000000000E+00  0.00000000000E+00  0.11793461189E+04  0.11793461189E+04  0.00000000000E+00 0.  1.
          1   -1    0    0  501    0  0.00000000000E+00 -0.00000000000E+00 -0.64169412424E+03  0.64169412424E+03  0.00000000000E+00 0. -1.
         23    2    1    2    0    0  0.36886732982E+03  0.11869403939E+03  0.10819172793E+04  0.11529264189E+04  0.92428059633E+02 0.  0.
         13    1    3    3    0    0  0.26941314032E+03  0.93394367763E+02  0.89963664239E+03  0.94374362855E+03  0.00000000000E+00 0.  1.
        -13    1    3    3    0    0  0.99454189499E+02  0.25299671629E+02  0.18228063689E+03  0.20918279035E+03  0.00000000000E+00 0. -1.
         22    1    1    2    0    0 -0.36886732982E+03 -0.11869403939E+03 -0.54426528466E+03  0.66811382419E+03  0.00000000000E+00 0. -1.
<mgrwt>
<rscale>  0 0.17398615E+04</rscale>
<asrwt>0</asrwt>
<pdfrwt beam="1">  1        1 0.98722173E-01 0.17398615E+04</pdfrwt>
<pdfrwt beam="2">  1       -1 0.18143786E+00 0.17398615E+04</pdfrwt>
<totfact> 0.59824739E+00</totfact>
</mgrwt>
</event>
<event>
 6    1  0.8968082E-007  0.3503394E+04  0.7818608E-02  0.8112986E-01
         -2   -1    0    0    0  501 -0.00000000000E+00  0.00000000000E+00  0.15597094395E+04  0.15597094395E+04  0.00000000000E+00 0.  1.
          2   -1    0    0  501    0  0.00000000000E+00 -0.00000000000E+00 -0.19673170041E+04  0.19673170041E+04  0.00000000000E+00 0. -1.
         23    2    1    2    0    0 -0.84832295730E+03  0.12819370311E+04 -0.10469770444E+04  0.18621517567E+04  0.91835950700E+02 0.  0.
         13    1    3    3    0    0 -0.61027849580E+03  0.85812434801E+03 -0.74499088803E+03  0.12898948261E+04  0.00000000000E+00 0.  1.
        -13    1    3    3    0    0 -0.23804446150E+03  0.42381268306E+03 -0.30198615642E+03  0.57225693062E+03  0.00000000000E+00 0. -1.
         22    1    1    2    0    0  0.84832295730E+03 -0.12819370311E+04  0.63936947988E+03  0.16648746870E+04  0.00000000000E+00 0. -1.
<mgrwt>
<rscale>  0 0.35033943E+04</rscale>
<asrwt>0</asrwt>
<pdfrwt beam="1">  1        2 0.30266416E+00 0.35033943E+04</pdfrwt>
<pdfrwt beam="2">  1       -2 0.23995530E+00 0.35033943E+04</pdfrwt>
<totfact> 0.42424514E-01</totfact>
</mgrwt>
</event>
<event>
 6    1  0.8968082E-007  0.2426401E+04  0.7818608E-02  0.8429685E-01
          2   -1    0    0  501    0  0.00000000000E+00  0.00000000000E+00  0.16143986879E+04  0.16143986879E+04  0.00000000000E+00 0. -1.
         -2   -1    0    0    0  501 -0.00000000000E+00 -0.00000000000E+00 -0.91170521474E+03  0.91170521474E+03  0.00000000000E+00 0.  1.
         23    2    1    2    0    0 -0.29982746731E+03  0.66263904681E+03 -0.65682922222E+03  0.98425793894E+03  0.91389532733E+02 0.  0.
         11    1    3    3    0    0 -0.60632268701E+02  0.23430670451E+03 -0.20153517965E+03  0.31494814244E+03  0.00000000000E+00 0.  1.
        -11    1    3    3    0    0 -0.23919519861E+03  0.42833234230E+03 -0.45529404257E+03  0.66930979651E+03  0.00000000000E+00 0. -1.
         22    1    1    2    0    0  0.29982746731E+03 -0.66263904681E+03  0.13595226954E+04  0.15418459637E+04  0.00000000000E+00 0. -1.
<mgrwt>
<rscale>  0 0.24264012E+04</rscale>
<asrwt>0</asrwt>
<pdfrwt beam="1">  1        2 0.24836903E+00 0.24264012E+04</pdfrwt>
<pdfrwt beam="2">  1       -2 0.14026234E+00 0.24264012E+04</pdfrwt>
<totfact> 0.35112960E+00</totfact>
</mgrwt>
</event>
<event>
 6    1  0.8968082E-007  0.2020652E+04  0.7818608E-02  0.8597026E-01
          2   -1    0    0  501    0  0.00000000000E+00  0.00000000000E+00  0.20582255337E+04  0.20582255337E+04  0.00000000000E+00 0. -1.
         -2   -1    0    0    0  501 -0.00000000000E+00 -0.00000000000E+00 -0.49594098842E+03  0.49594098842E+03  0.00000000000E+00 0.  1.
         23    2    1    2    0    0 -0.14332712592E+03  0.86370615008E+02  0.20395657573E+04  0.20483998729E+04  0.90061161881E+02 0.  0.
         13    1    3    3    0    0 -0.34233050263E+02 -0.18279543905E+02  0.43689343828E+03  0.43861363393E+03  0.00000000000E+00 0.  1.
        -13    1    3    3    0    0 -0.10909407565E+03  0.10465015891E+03  0.16026723190E+04  0.16097862389E+04  0.00000000000E+00 0. -1.
         22    1    1    2    0    0  0.14332712592E+03 -0.86370615008E+02 -0.47728121199E+03  0.50576664923E+03  0.00000000000E+00 0.  1.
<mgrwt>
<rscale>  0 0.20206518E+04</rscale>
<asrwt>0</asrwt>
<pdfrwt beam="1">  1        2 0.31665008E+00 0.20206518E+04</pdfrwt>
<pdfrwt beam="2">  1       -2 0.76298615E-01 0.20206518E+04</pdfrwt>
<totfact> 0.88382819E+00</totfact>
</mgrwt>
</event>
<event>
 6    1  0.8968082E-007  0.4751529E+04  0.7818608E-02  0.7868023E-01
          2   -1    0    0  501    0  0.00000000000E+00  0.00000000000E+00  0.21761310774E+04  0.21761310774E+04  0.00000000000E+00 0. -1.
         -2   -1    0    0    0  501 -0.00000000000E+00 -0.00000000000E+00 -0.25937113199E+04  0.25937113199E+04  0.00000000000E+00 0.  1.
         23    2    1    2    0    0 -0.10981380997E+04  0.80628454426E+03 -0.21616937801E+04  0.25567147272E+04  0.88702563695E+02 0.  0.
         11    1    3    3    0    0 -0.86254666174E+03  0.60154591821E+03 -0.17163408937E+04  0.20128761261E+04  0.00000000000E+00 0.  1.
        -11    1    3    3    0    0 -0.23559143800E+03  0.20473862605E+03 -0.44535288634E+03  0.54383860109E+03  0.00000000000E+00 0. -1.
         22    1    1    2    0    0  0.10981380997E+04 -0.80628454426E+03  0.17441135376E+04  0.22131276702E+04  0.00000000000E+00 0. -1.
<mgrwt>
<rscale>  0 0.47515285E+04</rscale>
<asrwt>0</asrwt>
<pdfrwt beam="1">  1        2 0.33478940E+00 0.47515285E+04</pdfrwt>
<pdfrwt beam="2">  1       -2 0.39903251E+00 0.47515285E+04</pdfrwt>
<totfact> 0.29795978E-02</totfact>
</mgrwt>
</event>
<event>
 6    1  0.8968082E-007  0.1987076E+04  0.7818608E-02  0.8612687E-01
         -2   -1    0    0    0  501 -0.00000000000E+00  0.00000000000E+00  0.96583290162E+03  0.96583290162E+03  0.00000000000E+00 0.  1.
          2   -1    0    0  501    0  0.00000000000E+00 -0.00000000000E+00 -0.10220379310E+04  0.10220379310E+04  0.00000000000E+00 0. -1.
         23    2    1    2    0    0  0.15310866073E+02  0.63682532282E+03  0.73201911392E+03  0.97442215878E+03  0.88688477092E+02 0.  0.
         13    1    3    3    0    0  0.26600292220E+02  0.62858223295E+02  0.63324266099E+02  0.93105823980E+02  0.00000000000E+00 0. -1.
        -13    1    3    3    0    0 -0.11289426147E+02  0.57396709953E+03  0.66869484782E+03  0.88131633480E+03  0.00000000000E+00 0.  1.
         22    1    1    2    0    0 -0.15310866073E+02 -0.63682532282E+03 -0.78822414331E+03  0.10134486738E+04  0.00000000000E+00 0. -1.
<mgrwt>
<rscale>  0 0.19870761E+04</rscale>
<asrwt>0</asrwt>
<pdfrwt beam="1">  1        2 0.15723660E+00 0.19870761E+04</pdfrwt>
<pdfrwt beam="2">  1       -2 0.14858968E+00 0.19870761E+04</pdfrwt>
<totfact> 0.69661500E+00</totfact>
</mgrwt>
</event>
<event>
 6    1  0.8968082E-007  0.2489925E+04  0.7818608E-02  0.8406584E-01
          1   -1    0    0  501    0  0.00000000000E+00  0.00000000000E+00  0.32220885807E+04  0.32220885807E+04  0.00000000000E+00 0. -1.
         -1   -1    0    0    0  501 -0.00000000000E+00 -0.00000000000E+00 -0.48103323234E+03  0.48103323234E+03  0.00000000000E+00 0.  1.
         23    2    1    2    0    0 -0.10068063771E+04 -0.44420096650E+03  0.22329403836E+04  0.24910350187E+04  0.90879742970E+02 0.  0.
         13    1    3    3    0    0 -0.48635057969E+03 -0.21336025917E+03  0.11803359828E+04  0.12943154634E+04  0.00000000000E+00 0. -1.
        -13    1    3    3    0    0 -0.52045579746E+03 -0.23084070733E+03  0.10526044009E+04  0.11967195553E+04  0.00000000000E+00 0.  1.
         22    1    1    2    0    0  0.10068063771E+04  0.44420096650E+03  0.50811496474E+03  0.12120867944E+04  0.00000000000E+00 0.  1.
<mgrwt>
<rscale>  0 0.24899250E+04</rscale>
<asrwt>0</asrwt>
<pdfrwt beam="1">  1        1 0.49570592E+00 0.24899250E+04</pdfrwt>
<pdfrwt beam="2">  1       -1 0.74005114E-01 0.24899250E+04</pdfrwt>
<totfact> 0.66906814E-01</totfact>
</mgrwt>
</event>
<event>
 6    1  0.8968082E-007  0.1526883E+04  0.7818608E-02  0.8866770E-01
         -1   -1    0    0    0  501 -0.00000000000E+00  0.00000000000E+00  0.48049844783E+03  0.48049844783E+03  0.00000000000E+00 0.  1.
          1   -1    0    0  501    0  0.00000000000E+00 -0.00000000000E+00 -0.12129963286E+04  0.12129963286E+04  0.00000000000E+00 0. -1.
         23    2    1    2    0    0  0.13786217714E+03 -0.72802755266E+02 -0.11933939639E+04  0.12069442441E+04  0.90658889315E+02 0.  0.
         13    1    3    3    0    0  0.77445312038E+01 -0.31396473644E+02 -0.10103073355E+03  0.10607980695E+03  0.00000000000E+00 0.  1.
        -13    1    3    3    0    0  0.13011764593E+03 -0.41406281621E+02 -0.10923632303E+04  0.11008644371E+04  0.00000000000E+00 0. -1.
         22    1    1    2    0    0 -0.13786217714E+03  0.72802755266E+02  0.46089608314E+03  0.48655053233E+03  0.00000000000E+00 0.  1.
<mgrwt>
<rscale>  0 0.15268829E+04</rscale>
<asrwt>0</asrwt>
<pdfrwt beam="1">  1        1 0.18661482E+00 0.15268829E+04</pdfrwt>
<pdfrwt beam="2">  1       -1 0.73922839E-01 0.15268829E+04</pdfrwt>
<totfact> 0.18597123E+01</totfact>
</mgrwt>
</event>
<event>
 6    1  0.8968082E-007  0.1162092E+04  0.7818608E-02  0.9146700E-01
         -2   -1    0    0    0  501 -0.00000000000E+00  0.00000000000E+00  0.13728164329E+03  0.13728164329E+03  0.00000000000E+00 0.  1.
          2   -1    0    0  501    0  0.00000000000E+00 -0.00000000000E+00 -0.24592848545E+04  0.24592848545E+04  0.00000000000E+00 0. -1.
         23    2    1    2    0    0 -0.18236366535E+03  0.50052869650E+03 -0.66963616751E+03  0.86044947133E+03  0.90416886764E+02 0.  0.
         11    1    3    3    0    0 -0.22789349159E+02  0.18054452818E+03 -0.20417676296E+03  0.27350289144E+03  0.00000000000E+00 0. -1.
        -11    1    3    3    0    0 -0.15957431619E+03  0.31998416832E+03 -0.46545940455E+03  0.58694657989E+03  0.00000000000E+00 0.  1.
         22    1    1    2    0    0  0.18236366535E+03 -0.50052869650E+03 -0.16523670437E+04  0.17361170265E+04  0.00000000000E+00 0. -1.
<mgrwt>
<rscale>  0 0.11620924E+04</rscale>
<asrwt>0</asrwt>
<pdfrwt beam="1">  1        2 0.37835153E+00 0.11620924E+04</pdfrwt>
<pdfrwt beam="2">  1       -2 0.21120252E-01 0.11620924E+04</pdfrwt>
<totfact> 0.71043735E+01</totfact>
</mgrwt>
</event>
<event>
 6    1  0.8968082E-007  0.2602172E+04  0.7818608E-02  0.8367464E-01
          2   -1    0    0  501    0  0.00000000000E+00  0.00000000000E+00  0.17013742281E+04  0.17013742281E+04  0.00000000000E+00 0. -1.
         -2   -1    0    0    0  501 -0.00000000000E+00 -0.00000000000E+00 -0.99497505596E+03  0.99497505596E+03  0.00000000000E+00 0.  1.
         23    2    1    2    0    0 -0.12215467594E+04 -0.21196001935E+03 -0.48911843138E+02  0.12445923261E+04  0.97540527242E+02 0.  0.
         13    1    3    3    0    0 -0.83140939896E+03 -0.11193039474E+03 -0.28038063021E+00  0.83891005511E+03  0.00000000000E+00 0. -1.
        -13    1    3    3    0    0 -0.39013736045E+03 -0.10002962461E+03 -0.48631462508E+02  0.40568227095E+03  0.00000000000E+00 0.  1.
         22    1    1    2    0    0  0.12215467594E+04  0.21196001935E+03  0.75531101524E+03  0.14517569580E+04  0.00000000000E+00 0. -1.
<mgrwt>
<rscale>  0 0.26021721E+04</rscale>
<asrwt>0</asrwt>
<pdfrwt beam="1">  1        2 0.26174988E+00 0.26021721E+04</pdfrwt>
<pdfrwt beam="2">  1       -2 0.15307309E+00 0.26021721E+04</pdfrwt>
<totfact> 0.24581444E+00</totfact>
</mgrwt>
</event>
<event>
 6    1  0.8968082E-007  0.9264325E+03  0.7818608E-02  0.9393130E-01
          2   -1    0    0  501    0  0.00000000000E+00  0.00000000000E+00  0.12099265338E+04  0.12099265338E+04  0.00000000000E+00 0. -1.
         -2   -1    0    0    0  501 -0.00000000000E+00 -0.00000000000E+00 -0.17734077823E+03  0.17734077823E+03  0.00000000000E+00 0.  1.
         23    2    1    2    0    0 -0.38778139772E+03 -0.50318701903E+02  0.16211724036E+03  0.43300224396E+03  0.91118381639E+02 0.  0.
         13    1    3    3    0    0 -0.28416536827E+03 -0.20778589873E+02  0.15658375839E+03  0.32511564052E+03  0.00000000000E+00 0. -1.
        -13    1    3    3    0    0 -0.10361602945E+03 -0.29540112030E+02  0.55334819651E+01  0.10788660344E+03  0.00000000000E+00 0.  1.
         22    1    1    2    0    0  0.38778139772E+03  0.50318701903E+02  0.87046851520E+03  0.95426506807E+03  0.00000000000E+00 0. -1.
<mgrwt>
<rscale>  0 0.92643254E+03</rscale>
<asrwt>0</asrwt>
<pdfrwt beam="1">  1        2 0.18614254E+00 0.92643254E+03</pdfrwt>
<pdfrwt beam="2">  1       -2 0.27283197E-01 0.92643254E+03</pdfrwt>
<totfact> 0.22848972E+02</totfact>
</mgrwt>
</event>
<event>
 6    1  0.8968082E-007  0.4249763E+04  0.7818608E-02  0.7955973E-01
         -2   -1    0    0    0  501 -0.00000000000E+00  0.00000000000E+00  0.13425581715E+04  0.13425581715E+04  0.00000000000E+00 0.  1.
          2   -1    0    0  501    0  0.00000000000E+00 -0.00000000000E+00 -0.33630726269E+04  0.33630726269E+04  0.00000000000E+00 0. -1.
         23    2    1    2    0    0 -0.95750675128E+02 -0.35061855358E+03 -0.33277567255E+04  0.33488021746E+04  0.91703969897E+02 0.  0.
         13    1    3    3    0    0 -0.14922116816E+02 -0.19826678259E+03 -0.20092802933E+04  0.20190937778E+04  0.00000000000E+00 0.  1.
        -13    1    3    3    0    0 -0.80828558312E+02 -0.15235177099E+03 -0.13184764323E+04  0.13297083968E+04  0.00000000000E+00 0. -1.
         22    1    1    2    0    0  0.95750675128E+02  0.35061855358E+03  0.13072422701E+04  0.13568286239E+04  0.00000000000E+00 0.  1.
<mgrwt>
<rscale>  0 0.42497626E+04</rscale>
<asrwt>0</asrwt>
<pdfrwt beam="1">  1        2 0.51739579E+00 0.42497626E+04</pdfrwt>
<pdfrwt beam="2">  1       -2 0.20654741E+00 0.42497626E+04</pdfrwt>
<totfact> 0.94012512E-02</totfact>
</mgrwt>
</event>
<event>
 6    1  0.8968082E-007  0.5948248E+04  0.7818608E-02  0.7696852E-01
          2   -1    0    0  501    0  0.00000000000E+00  0.00000000000E+00  0.29230552551E+04  0.29230552551E+04  0.00000000000E+00 0. -1.
         -2   -1    0    0    0  501 -0.00000000000E+00 -0.00000000000E+00 -0.30260845807E+04  0.30260845807E+04  0.00000000000E+00 0.  1.
         23    2    1    2    0    0 -0.15421051653E+04  0.23960859537E+04  0.79827622833E+03  0.29605502119E+04  0.91084476782E+02 0.  0.
         11    1    3    3    0    0 -0.13246236102E+04  0.20690865591E+04  0.72001333745E+03  0.25601105648E+04  0.00000000000E+00 0.  1.
        -11    1    3    3    0    0 -0.21748155511E+03  0.32699939464E+03  0.78262890879E+02  0.40043964713E+03  0.00000000000E+00 0. -1.
         22    1    1    2    0    0  0.15421051653E+04 -0.23960859537E+04 -0.90130555395E+03  0.29885896239E+04  0.00000000000E+00 0.  1.
<mgrwt>
<rscale>  0 0.59482476E+04</rscale>
<asrwt>0</asrwt>
<pdfrwt beam="1">  1        2 0.44970081E+00 0.59482476E+04</pdfrwt>
<pdfrwt beam="2">  1       -2 0.46555148E+00 0.59482476E+04</pdfrwt>
<totfact> 0.36245630E-03</totfact>
</mgrwt>
</event>
<event>
 6    1  0.8968082E-007  0.1790201E+04  0.7818608E-02  0.8711528E-01
          1   -1    0    0  501    0  0.00000000000E+00  0.00000000000E+00  0.18404231425E+04  0.18404231425E+04  0.00000000000E+00 0. -1.
         -1   -1    0    0    0  501 -0.00000000000E+00 -0.00000000000E+00 -0.43533750872E+03  0.43533750872E+03  0.00000000000E+00 0.  1.
         23    2    1    2    0    0  0.78636220984E+03 -0.39460214926E+03  0.89634491672E+03  0.12594469701E+04  0.93252772256E+02 0.  0.
         13    1    3    3    0    0  0.54672031741E+03 -0.26108859140E+03  0.55607539127E+03  0.82236865140E+03  0.00000000000E+00 0.  1.
        -13    1    3    3    0    0  0.23964189242E+03 -0.13351355786E+03  0.34026952544E+03  0.43707831870E+03  0.00000000000E+00 0. -1.
         22    1    1    2    0    0 -0.78636220984E+03  0.39460214926E+03  0.50874071710E+03  0.10163136811E+04  0.00000000000E+00 0.  1.
<mgrwt>
<rscale>  0 0.17902014E+04</rscale>
<asrwt>0</asrwt>
<pdfrwt beam="1">  1        1 0.28314202E+00 0.17902014E+04</pdfrwt>
<pdfrwt beam="2">  1       -1 0.66975002E-01 0.17902014E+04</pdfrwt>
<totfact> 0.81563929E+00</totfact>
</mgrwt>
</event>
<event>
 6    1  0.8968082E-007  0.2881398E+04  0.7818608E-02  0.8278434E-01
         -1   -1    0    0    0  501 -0.00000000000E+00  0.00000000000E+00  0.11796779832E+04  0.11796779832E+04  0.00000000000E+00 0.  1.
          1   -1    0    0  501    0  0.00000000000E+00 -0.00000000000E+00 -0.17594747954E+04  0.17594747954E+04  0.00000000000E+00 0. -1.
         23    2    1    2    0    0 -0.78491047376E+03  0.66992256639E+03 -0.13137125053E+04  0.16728538638E+04  0.87856737828E+02 0.  0.
         11    1    3    3    0    0 -0.19723465720E+03  0.12963450998E+03 -0.26489486505E+03  0.35478994589E+03  0.00000000000E+00 0.  1.
        -11    1    3    3    0    0 -0.58767581656E+03  0.54028805641E+03 -0.10488176402E+04  0.13180639179E+04  0.00000000000E+00 0. -1.
         22    1    1    2    0    0  0.78491047376E+03 -0.66992256639E+03  0.73391569314E+03  0.12662989147E+04  0.00000000000E+00 0.  1.
<mgrwt>
<rscale>  0 0.28813980E+04</rscale>
<asrwt>0</asrwt>
<pdfrwt beam="1">  1        1 0.27068843E+00 0.28813980E+04</pdfrwt>
<pdfrwt beam="2">  1       -1 0.18148892E+00 0.28813980E+04</pdfrwt>
<totfact> 0.75785138E-01</totfact>
</mgrwt>
</event>
<event>
 6    1  0.8968082E-007  0.1078746E+04  0.7818608E-02  0.9226158E-01
          1   -1    0    0  501    0  0.00000000000E+00  0.00000000000E+00  0.69346157932E+03  0.69346157932E+03  0.00000000000E+00 0. -1.
         -1   -1    0    0    0  501 -0.00000000000E+00 -0.00000000000E+00 -0.41952357113E+03  0.41952357113E+03  0.00000000000E+00 0.  1.
         23    2    1    2    0    0  0.30878745004E+03 -0.43727614193E+03  0.15589806029E+03  0.56481223712E+03  0.90269288175E+02 0.  0.
         11    1    3    3    0    0  0.19755040553E+03 -0.20157192047E+03  0.80822716993E+02  0.29358084649E+03  0.00000000000E+00 0.  1.
        -11    1    3    3    0    0  0.11123704451E+03 -0.23570422146E+03  0.75075343300E+02  0.27123139062E+03  0.00000000000E+00 0. -1.
         22    1    1    2    0    0 -0.30878745004E+03  0.43727614193E+03  0.11803994790E+03  0.54817291333E+03  0.00000000000E+00 0.  1.
<mgrwt>
<rscale>  0 0.10787465E+04</rscale>
<asrwt>0</asrwt>
<pdfrwt beam="1">  1        1 0.10668640E+00 0.10787465E+04</pdfrwt>
<pdfrwt beam="2">  1       -1 0.64542088E-01 0.10787465E+04</pdfrwt>
<totfact> 0.67142618E+01</totfact>
</mgrwt>
</event>
<event>
 6    1  0.8968082E-007  0.1312234E+04  0.7818608E-02  0.9019920E-01
          1   -1    0    0  501    0  0.00000000000E+00  0.00000000000E+00  0.18276586665E+04  0.18276586665E+04  0.00000000000E+00 0. -1.
         -1   -1    0    0    0  501 -0.00000000000E+00 -0.00000000000E+00 -0.23554144475E+03  0.23554144475E+03  0.00000000000E+00 0.  1.
         23    2    1    2    0    0  0.60659250129E+03  0.19679137415E+03  0.10173889620E+04  0.12047166344E+04  0.97880342932E+02 0.  0.
         13    1    3    3    0    0  0.20820629626E+03  0.58494443391E+02  0.26340689593E+03  0.34081469237E+03  0.00000000000E+00 0.  1.
        -13    1    3    3    0    0  0.39838620503E+03  0.13829693076E+03  0.75398206607E+03  0.86390194198E+03  0.00000000000E+00 0. -1.
         22    1    1    2    0    0 -0.60659250129E+03 -0.19679137415E+03  0.57472825979E+03  0.85848347693E+03  0.00000000000E+00 0.  1.
<mgrwt>
<rscale>  0 0.13122338E+04</rscale>
<asrwt>0</asrwt>
<pdfrwt beam="1">  1        1 0.28117825E+00 0.13122338E+04</pdfrwt>
<pdfrwt beam="2">  1       -1 0.36237147E-01 0.13122338E+04</pdfrwt>
<totfact> 0.27932255E+01</totfact>
</mgrwt>
</event>
<event>
 6    1  0.8968082E-007  0.1464197E+04  0.7818608E-02  0.8908617E-01
          2   -1    0    0  501    0  0.00000000000E+00  0.00000000000E+00  0.77792346057E+03  0.77792346057E+03  0.00000000000E+00 0. -1.
         -2   -1    0    0    0  501 -0.00000000000E+00 -0.00000000000E+00 -0.68897282841E+03  0.68897282841E+03  0.00000000000E+00 0.  1.
         23    2    1    2    0    0 -0.61224503387E+03  0.37956045237E+03 -0.69108699013E+02  0.72940535977E+03  0.91356707911E+02 0.  0.
         11    1    3    3    0    0 -0.56421553318E+03  0.31813517263E+03 -0.53924116225E+02  0.64996689628E+03  0.00000000000E+00 0.  1.
        -11    1    3    3    0    0 -0.48029500689E+02  0.61425279739E+02 -0.15184582788E+02  0.79438463491E+02  0.00000000000E+00 0. -1.
         22    1    1    2    0    0  0.61224503387E+03 -0.37956045237E+03  0.15805933118E+03  0.73749092921E+03  0.00000000000E+00 0. -1.
<mgrwt>
<rscale>  0 0.14641969E+04</rscale>
<asrwt>0</asrwt>
<pdfrwt beam="1">  1        2 0.11968053E+00 0.14641969E+04</pdfrwt>
<pdfrwt beam="2">  1       -2 0.10599582E+00 0.14641969E+04</pdfrwt>
<totfact> 0.24889244E+01</totfact>
</mgrwt>
</event>
<event>
 6    1  0.8968082E-007  0.1819838E+04  0.7818608E-02  0.8695821E-01
         -2   -1    0    0    0  501 -0.00000000000E+00  0.00000000000E+00  0.61439764942E+03  0.61439764942E+03  0.00000000000E+00 0.  1.
          2   -1    0    0  501    0  0.00000000000E+00 -0.00000000000E+00 -0.13475838429E+04  0.13475838429E+04  0.00000000000E+00 0. -1.
         23    2    1    2    0    0 -0.26028266197E+03 -0.74367333781E+03 -0.85270394538E+03  0.11650614270E+04  0.97298575280E+02 0.  0.
         13    1    3    3    0    0 -0.17635917257E+03 -0.40085219384E+03 -0.52225033078E+03  0.68156470497E+03  0.00000000000E+00 0.  1.
        -13    1    3    3    0    0 -0.83923489404E+02 -0.34282114397E+03 -0.33045361460E+03  0.48349672205E+03  0.00000000000E+00 0. -1.
         22    1    1    2    0    0  0.26028266197E+03  0.74367333781E+03  0.11951775190E+03  0.79692006532E+03  0.00000000000E+00 0.  1.
<mgrwt>
<rscale>  0 0.18198377E+04</rscale>
<asrwt>0</asrwt>
<pdfrwt beam="1">  1        2 0.20732059E+00 0.18198377E+04</pdfrwt>
<pdfrwt beam="2">  1       -2 0.94522716E-01 0.18198377E+04</pdfrwt>
<totfact> 0.13790002E+01</totfact>
</mgrwt>
</event>
<event>
 6    1  0.8968082E-007  0.1274235E+04  0.7818608E-02  0.9050250E-01
          1   -1    0    0  501    0  0.00000000000E+00  0.00000000000E+00  0.10215540135E+04  0.10215540135E+04  0.00000000000E+00 0. -1.
         -1   -1    0    0    0  501 -0.00000000000E+00 -0.00000000000E+00 -0.39735412092E+03  0.39735412092E+03  0.00000000000E+00 0.  1.
         23    2    1    2    0    0  0.43743830037E+03  0.40678211328E+03  0.77463417963E+02  0.60912746845E+03  0.90618637041E+02 0.  0.
         11    1    3    3    0    0  0.17170613767E+03  0.14480926153E+03  0.72205437338E+02  0.23593716349E+03  0.00000000000E+00 0.  1.
        -11    1    3    3    0    0  0.26573216270E+03  0.26197285176E+03  0.52579806252E+01  0.37319030496E+03  0.00000000000E+00 0. -1.
         22    1    1    2    0    0 -0.43743830037E+03 -0.40678211328E+03  0.54673647463E+03  0.80978066599E+03  0.00000000000E+00 0. -1.
<mgrwt>
<rscale>  0 0.12742350E+04</rscale>
<asrwt>0</asrwt>
<pdfrwt beam="1">  1        1 0.15716215E+00 0.12742350E+04</pdfrwt>
<pdfrwt beam="2">  1       -1 0.61131404E-01 0.12742350E+04</pdfrwt>
<totfact> 0.38890533E+01</totfact>
</mgrwt>
</event>
<event>
 6    1  0.8968082E-007  0.3548935E+04  0.7818608E-02  0.8102290E-01
          1   -1    0    0  501    0  0.00000000000E+00  0.00000000000E+00  0.38523235840E+04  0.38523235840E+04  0.00000000000E+00 0. -1.
         -1   -1    0    0    0  501 -0.00000000000E+00 -0.00000000000E+00 -0.81735988850E+03  0.81735988850E+03  0.00000000000E+00 0.  1.
         23    2    1    2    0    0  0.14338293244E+04  0.96079064572E+03  0.98298142384E+03  0.19883374598E+04  0.90819479935E+02 0.  0.
         13    1    3    3    0    0  0.93300481602E+03  0.58083348249E+03  0.65220215115E+03  0.12779801122E+04  0.00000000000E+00 0.  1.
        -13    1    3    3    0    0  0.50082450842E+03  0.37995716323E+03  0.33077927269E+03  0.71035734765E+03  0.00000000000E+00 0. -1.
         22    1    1    2    0    0 -0.14338293244E+04 -0.96079064572E+03  0.20519822716E+04  0.26813460127E+04  0.00000000000E+00 0. -1.
<mgrwt>
<rscale>  0 0.35489349E+04</rscale>
<asrwt>0</asrwt>
<pdfrwt beam="1">  1        1 0.59266516E+00 0.35489349E+04</pdfrwt>
<pdfrwt beam="2">  1       -1 0.12574768E+00 0.35489349E+04</pdfrwt>
<totfact> 0.57545836E-02</totfact>
</mgrwt>
</event>
<event>
 6    1  0.8968082E-007  0.3206323E+04  0.7818608E-02  0.8187149E-01
         -1   -1    0    0    0  501 -0.00000000000E+00  0.00000000000E+00  0.14453610889E+04  0.14453610889E+04  0.00000000000E+00 0.  1.
          1   -1    0    0  501    0  0.00000000000E+00 -0.00000000000E+00 -0.17781895888E+04  0.17781895888E+04  0.00000000000E+00 0. -1.
         23    2    1    2    0    0 -0.14780548868E+04  0.14266781529E+03 -0.77090509504E+03  0.16753544831E+04  0.86704235246E+02 0.  0.
         11    1    3    3    0    0 -0.38152337047E+03  0.64021809935E+02 -0.17086512520E+03  0.42291106082E+03  0.00000000000E+00 0.  1.
        -11    1    3    3    0    0 -0.10965315164E+04  0.78646005353E+02 -0.60003996984E+03  0.12524434223E+04  0.00000000000E+00 0. -1.
         22    1    1    2    0    0  0.14780548868E+04 -0.14266781529E+03  0.43807659516E+03  0.15481961947E+04  0.00000000000E+00 0.  1.
<mgrwt>
<rscale>  0 0.32063225E+04</rscale>
<asrwt>0</asrwt>
<pdfrwt beam="1">  1        1 0.27356763E+00 0.32063225E+04</pdfrwt>
<pdfrwt beam="2">  1       -1 0.22236325E+00 0.32063225E+04</pdfrwt>
<totfact> 0.37408522E-01</totfact>
</mgrwt>
</event>
<event>
 6    1  0.8968082E-007  0.2695941E+04  0.7818608E-02  0.8336323E-01
          1   -1    0    0  501    0  0.00000000000E+00  0.00000000000E+00  0.25858613170E+04  0.25858613170E+04  0.00000000000E+00 0. -1.
         -1   -1    0    0    0  501 -0.00000000000E+00 -0.00000000000E+00 -0.70267661021E+03  0.70267661021E+03  0.00000000000E+00 0.  1.
         23    2    1    2    0    0  0.10267447835E+04 -0.61829896728E+03  0.19429032737E+03  0.12175809774E+04  0.90863864029E+02 0.  0.
         13    1    3    3    0    0  0.45011122131E+03 -0.32361580460E+03  0.94584496975E+02  0.56238201216E+03  0.00000000000E+00 0.  1.
        -13    1    3    3    0    0  0.57663356215E+03 -0.29468316269E+03  0.99705830394E+02  0.65519896519E+03  0.00000000000E+00 0. -1.
         22    1    1    2    0    0 -0.10267447835E+04  0.61829896728E+03  0.16888943794E+04  0.20709569498E+04  0.00000000000E+00 0. -1.
<mgrwt>
<rscale>  0 0.26959408E+04</rscale>
<asrwt>0</asrwt>
<pdfrwt beam="1">  1        1 0.39782481E+00 0.26959408E+04</pdfrwt>
<pdfrwt beam="2">  1       -1 0.10810409E+00 0.26959408E+04</pdfrwt>
<totfact> 0.81946839E-01</totfact>
</mgrwt>
</event>
<event>
 6    1  0.8968082E-007  0.3735153E+04  0.7818608E-02  0.8060216E-01
          2   -1    0    0  501    0  0.00000000000E+00  0.00000000000E+00  0.48427925158E+04  0.48427925158E+04  0.00000000000E+00 0. -1.
         -2   -1    0    0    0  501 -0.00000000000E+00 -0.00000000000E+00 -0.72021280352E+03  0.72021280352E+03  0.00000000000E+00 0.  1.
         23    2    1    2    0    0  0.64186103329E+03 -0.17524696816E+04  0.20855340403E+04  0.28002728602E+04  0.94553090810E+02 0.  0.
         13    1    3    3    0    0  0.40501317937E+03 -0.10610666436E+04  0.13336493856E+04  0.17517188077E+04  0.00000000000E+00 0. -1.
        -13    1    3    3    0    0  0.23684785392E+03 -0.69140303801E+03  0.75188465476E+03  0.10485540525E+04  0.00000000000E+00 0.  1.
         22    1    1    2    0    0 -0.64186103329E+03  0.17524696816E+04  0.20370456720E+04  0.27627324592E+04  0.00000000000E+00 0.  1.
<mgrwt>
<rscale>  0 0.37351526E+04</rscale>
<asrwt>0</asrwt>
<pdfrwt beam="1">  1        2 0.74504498E+00 0.37351526E+04</pdfrwt>
<pdfrwt beam="2">  1       -2 0.11080197E+00 0.37351526E+04</pdfrwt>
<totfact> 0.27438497E-02</totfact>
</mgrwt>
</event>
<event>
 6    1  0.8968082E-007  0.5385833E+04  0.7818608E-02  0.7771597E-01
          1   -1    0    0  501    0  0.00000000000E+00  0.00000000000E+00  0.37090113039E+04  0.37090113039E+04  0.00000000000E+00 0. -1.
         -1   -1    0    0    0  501 -0.00000000000E+00 -0.00000000000E+00 -0.19551842333E+04  0.19551842333E+04  0.00000000000E+00 0.  1.
         23    2    1    2    0    0  0.26276798417E+04 -0.35060068735E+03  0.38386058100E+03  0.26801663189E+04  0.91216001424E+02 0.  0.
         11    1    3    3    0    0  0.49756468686E+03 -0.66388699294E+02  0.36703742305E+02  0.50331425740E+03  0.00000000000E+00 0. -1.
        -11    1    3    3    0    0  0.21301151549E+04 -0.28421198805E+03  0.34715683870E+03  0.21768520615E+04  0.00000000000E+00 0.  1.
         22    1    1    2    0    0 -0.26276798417E+04  0.35060068735E+03  0.13699664897E+04  0.29840292182E+04  0.00000000000E+00 0. -1.
<mgrwt>
<rscale>  0 0.53858334E+04</rscale>
<asrwt>0</asrwt>
<pdfrwt beam="1">  1        1 0.57061712E+00 0.53858334E+04</pdfrwt>
<pdfrwt beam="2">  1       -1 0.30079757E+00 0.53858334E+04</pdfrwt>
<totfact> 0.38693752E-03</totfact>
</mgrwt>
</event>
<event>
 6    1  0.8968082E-007  0.4664850E+04  0.7818608E-02  0.7882395E-01
         -1   -1    0    0    0  501 -0.00000000000E+00  0.00000000000E+00  0.28513643034E+04  0.28513643034E+04  0.00000000000E+00 0.  1.
          1   -1    0    0  501    0  0.00000000000E+00 -0.00000000000E+00 -0.19079307817E+04  0.19079307817E+04  0.00000000000E+00 0. -1.
         23    2    1    2    0    0 -0.57249565769E+03 -0.28417815961E+03 -0.18157051858E+04  0.19270954255E+04  0.91667620566E+02 0.  0.
         11    1    3    3    0    0 -0.49532783353E+03 -0.24256777266E+03 -0.14587689741E+04  0.15595498411E+04  0.00000000000E+00 0. -1.
        -11    1    3    3    0    0 -0.77167824163E+02 -0.41610386955E+02 -0.35693621166E+03  0.36754558436E+03  0.00000000000E+00 0.  1.
         22    1    1    2    0    0  0.57249565769E+03  0.28417815961E+03  0.27591387075E+04  0.28321996596E+04  0.00000000000E+00 0.  1.
<mgrwt>
<rscale>  0 0.46648497E+04</rscale>
<asrwt>0</asrwt>
<pdfrwt beam="1">  1        1 0.29352781E+00 0.46648497E+04</pdfrwt>
<pdfrwt beam="2">  1       -1 0.43867143E+00 0.46648497E+04</pdfrwt>
<totfact> 0.98943303E-03</totfact>
</mgrwt>
</event>
<event>
 6    1  0.8968082E-007  0.4015135E+04  0.7818608E-02  0.8001500E-01
         -2   -1    0    0    0  501 -0.00000000000E+00  0.00000000000E+00  0.22584648101E+04  0.22584648101E+04  0.00000000000E+00 0.  1.
          2   -1    0    0  501    0  0.00000000000E+00 -0.00000000000E+00 -0.17845429454E+04  0.17845429454E+04  0.00000000000E+00 0. -1.
         23    2    1    2    0    0  0.79140958560E+03  0.16002113873E+04  0.11595460529E+04  0.21306568086E+04  0.90253924721E+02 0.  0.
         11    1    3    3    0    0  0.56995703467E+03  0.10623701838E+04  0.76554683148E+03  0.14281258278E+04  0.00000000000E+00 0. -1.
        -11    1    3    3    0    0  0.22145255093E+03  0.53784120355E+03  0.39399922142E+03  0.70253098084E+03  0.00000000000E+00 0.  1.
         22    1    1    2    0    0 -0.79140958560E+03 -0.16002113873E+04 -0.68562418825E+03  0.19123509468E+04  0.00000000000E+00 0. -1.
<mgrwt>
<rscale>  0 0.40151351E+04</rscale>
<asrwt>0</asrwt>
<pdfrwt beam="1">  1        2 0.27454507E+00 0.40151351E+04</pdfrwt>
<pdfrwt beam="2">  1       -2 0.34745613E+00 0.40151351E+04</pdfrwt>
<totfact> 0.11191946E-01</totfact>
</mgrwt>
</event>
<event>
 6    1  0.8968082E-007  0.3142909E+04  0.7818608E-02  0.8204060E-01
         -2   -1    0    0    0  501 -0.00000000000E+00  0.00000000000E+00  0.25236437563E+04  0.25236437563E+04  0.00000000000E+00 0.  1.
          2   -1    0    0  501    0  0.00000000000E+00 -0.00000000000E+00 -0.97853322920E+03  0.97853322920E+03  0.00000000000E+00 0. -1.
         23    2    1    2    0    0 -0.77910032579E+03 -0.42917500931E+03  0.22149860039E+04  0.23886592889E+04  0.91332877958E+02 0.  0.
         13    1    3    3    0    0 -0.42309003738E+03 -0.24148304759E+03  0.13316984380E+04  0.14180056318E+04  0.00000000000E+00 0.  1.
        -13    1    3    3    0    0 -0.35601028841E+03 -0.18769196171E+03  0.88328756589E+03  0.97065365707E+03  0.00000000000E+00 0. -1.
         22    1    1    2    0    0  0.77910032579E+03  0.42917500931E+03 -0.66987547680E+03  0.11135176966E+04  0.00000000000E+00 0. -1.
<mgrwt>
<rscale>  0 0.31429090E+04</rscale>
<asrwt>0</asrwt>
<pdfrwt beam="1">  1        2 0.15054358E+00 0.31429090E+04</pdfrwt>
<pdfrwt beam="2">  1       -2 0.38825288E+00 0.31429090E+04</pdfrwt>
<totfact> 0.19465495E-01</totfact>
</mgrwt>
</event>
<event>
 6    1  0.8968082E-007  0.1475492E+04  0.7818608E-02  0.8900916E-01
          2   -1    0    0  501    0  0.00000000000E+00  0.00000000000E+00  0.16432967449E+04  0.16432967449E+04  0.00000000000E+00 0. -1.
         -2   -1    0    0    0  501 -0.00000000000E+00 -0.00000000000E+00 -0.33120572256E+03  0.33120572256E+03  0.00000000000E+00 0.  1.
         23    2    1    2    0    0  0.15626365042E+03 -0.35796413513E+03  0.14924819754E+04  0.15442728237E+04  0.68698301745E+02 0.  0.
         11    1    3    3    0    0  0.14693064998E+03 -0.26508661712E+03  0.11226168627E+04  0.11628104535E+04  0.00000000000E+00 0. -1.
        -11    1    3    3    0    0  0.93330004437E+01 -0.92877518008E+02  0.36986511270E+03  0.38146237015E+03  0.00000000000E+00 0.  1.
         22    1    1    2    0    0 -0.15626365042E+03  0.35796413513E+03 -0.18039095301E+03  0.43022964381E+03  0.00000000000E+00 0. -1.
<mgrwt>
<rscale>  0 0.14754922E+04</rscale>
<asrwt>0</asrwt>
<pdfrwt beam="1">  1        2 0.25281488E+00 0.14754922E+04</pdfrwt>
<pdfrwt beam="2">  1       -2 0.50954728E-01 0.14754922E+04</pdfrwt>
<totfact> 0.37161653E+01</totfact>
</mgrwt>
</event>
<event>
 6    1  0.8968082E-007  0.2472788E+04  0.7818608E-02  0.8412745E-01
          2   -1    0    0  501    0  0.00000000000E+00  0.00000000000E+00  0.23811979766E+04  0.23811979766E+04  0.00000000000E+00 0. -1.
         -2   -1    0    0    0  501 -0.00000000000E+00 -0.00000000000E+00 -0.64197501115E+03  0.64197501115E+03  0.00000000000E+00 0.  1.
         23    2    1    2    0    0 -0.25020871320E+03 -0.11218759628E+04  0.31917748841E+03  0.11962249225E+04  0.88711443297E+02 0.  0.
         11    1    3    3    0    0 -0.11238069652E+03 -0.68389014576E+03  0.21138308162E+03  0.72458123051E+03  0.00000000000E+00 0.  1.
        -11    1    3    3    0    0 -0.13782801668E+03 -0.43798581703E+03  0.10779440679E+03  0.47164369204E+03  0.00000000000E+00 0. -1.
         22    1    1    2    0    0  0.25020871320E+03  0.11218759628E+04  0.14200454770E+04  0.18269480652E+04  0.00000000000E+00 0.  1.
<mgrwt>
<rscale>  0 0.24727876E+04</rscale>
<asrwt>0</asrwt>
<pdfrwt beam="1">  1        2 0.36633815E+00 0.24727876E+04</pdfrwt>
<pdfrwt beam="2">  1       -2 0.98765388E-01 0.24727876E+04</pdfrwt>
<totfact> 0.30982547E+00</totfact>
</mgrwt>
</event>
<event>
 6    1  0.8968082E-007  0.1707986E+04  0.7818608E-02  0.8756823E-01
          1   -1    0    0  501    0  0.00000000000E+00  0.00000000000E+00  0.76995521580E+03  0.76995521580E+03  0.00000000000E+00 0. -1.
         -1   -1    0    0    0  501 -0.00000000000E+00 -0.00000000000E+00 -0.94720269711E+03  0.94720269711E+03  0.00000000000E+00 0.  1.
         23    2    1    2    0    0  0.51294613553E+03  0.12252026968E+03  0.58237329744E+03  0.79241541798E+03  0.10314350505E+03 0.  0.
         11    1    3    3    0    0  0.13091741796E+03  0.36605082346E+02  0.88758232860E+02  0.16234939568E+03  0.00000000000E+00 0. -1.
        -11    1    3    3    0    0  0.38202871757E+03  0.85915187335E+02  0.49361506458E+03  0.63006602229E+03  0.00000000000E+00 0.  1.
         22    1    1    2    0    0 -0.51294613553E+03 -0.12252026968E+03 -0.75962077875E+03  0.92474249494E+03  0.00000000000E+00 0.  1.
<mgrwt>
<rscale>  0 0.17079855E+04</rscale>
<asrwt>0</asrwt>
<pdfrwt beam="1">  1        1 0.11845465E+00 0.17079855E+04</pdfrwt>
<pdfrwt beam="2">  1       -1 0.14572349E+00 0.17079855E+04</pdfrwt>
<totfact> 0.84279093E+00</totfact>
</mgrwt>
</event>
<event>
 6    1  0.8968082E-007  0.1073024E+04  0.7818608E-02  0.9231891E-01
          2   -1    0    0  501    0  0.00000000000E+00  0.00000000000E+00  0.35236636794E+03  0.35236636794E+03  0.00000000000E+00 0. -1.
         -2   -1    0    0    0  501 -0.00000000000E+00 -0.00000000000E+00 -0.81689136614E+03  0.81689136614E+03  0.00000000000E+00 0.  1.
         23    2    1    2    0    0 -0.15240022526E+03 -0.50891844063E+02 -0.78735329556E+03  0.80865557377E+03  0.90458921664E+02 0.  0.
         13    1    3    3    0    0 -0.79551873127E+02  0.13801862683E+02 -0.25555173585E+03  0.26800313735E+03  0.00000000000E+00 0. -1.
        -13    1    3    3    0    0 -0.72848352137E+02 -0.64693706746E+02 -0.53180155971E+03  0.54065243642E+03  0.00000000000E+00 0.  1.
         22    1    1    2    0    0  0.15240022526E+03  0.50891844063E+02  0.32282829735E+03  0.36060216031E+03  0.00000000000E+00 0. -1.
<mgrwt>
<rscale>  0 0.10730238E+04</rscale>
<asrwt>0</asrwt>
<pdfrwt beam="1">  1        2 0.54210211E-01 0.10730238E+04</pdfrwt>
<pdfrwt beam="2">  1       -2 0.12567559E+00 0.10730238E+04</pdfrwt>
<totfact> 0.43116633E+01</totfact>
</mgrwt>
</event>
<event>
 6    1  0.8968082E-007  0.1370229E+04  0.7818608E-02  0.8975655E-01
         -1   -1    0    0    0  501 -0.00000000000E+00  0.00000000000E+00  0.60934737877E+03  0.60934737877E+03  0.00000000000E+00 0.  1.
          1   -1    0    0  501    0  0.00000000000E+00 -0.00000000000E+00 -0.77030295685E+03  0.77030295685E+03  0.00000000000E+00 0. -1.
         23    2    1    2    0    0  0.26811111889E+03  0.79366198999E+02 -0.70734582806E+03  0.76587116451E+03  0.89654640350E+02 0.  0.
         13    1    3    3    0    0  0.18255494862E+03  0.87736877821E+02 -0.42626273593E+03  0.47193642478E+03  0.00000000000E+00 0.  1.
        -13    1    3    3    0    0  0.85556170261E+02 -0.83706788222E+01 -0.28108309213E+03  0.29393473972E+03  0.00000000000E+00 0. -1.
         22    1    1    2    0    0 -0.26811111889E+03 -0.79366198999E+02  0.54639024998E+03  0.61377917111E+03  0.00000000000E+00 0.  1.
<mgrwt>
<rscale>  0 0.13702293E+04</rscale>
<asrwt>0</asrwt>
<pdfrwt beam="1">  1        1 0.11850815E+00 0.13702293E+04</pdfrwt>
<pdfrwt beam="2">  1       -1 0.93745751E-01 0.13702293E+04</pdfrwt>
<totfact> 0.25331700E+01</totfact>
</mgrwt>
</event>
<event>
 6    1  0.8968082E-007  0.1584714E+04  0.7818608E-02  0.8829994E-01
         -2   -1    0    0    0  501 -0.00000000000E+00  0.00000000000E+00  0.24114204046E+03  0.24114204046E+03  0.00000000000E+00 0.  1.
          2   -1    0    0  501    0  0.00000000000E+00 -0.00000000000E+00 -0.26035673237E+04  0.26035673237E+04  0.00000000000E+00 0. -1.
         23    2    1    2    0    0  0.13113224425E+03  0.34450791656E+03 -0.24388924317E+04  0.24682407800E+04  0.90193595686E+02 0.  0.
         11    1    3    3    0    0  0.48402198395E+02  0.12611439296E+03 -0.62888616114E+03  0.64323045372E+03  0.00000000000E+00 0. -1.
        -11    1    3    3    0    0  0.82730045854E+02  0.21839352361E+03 -0.18100062705E+04  0.18250103263E+04  0.00000000000E+00 0.  1.
         22    1    1    2    0    0 -0.13113224425E+03 -0.34450791656E+03  0.76467148444E+02  0.37646858414E+03  0.00000000000E+00 0.  1.
<mgrwt>
<rscale>  0 0.15847139E+04</rscale>
<asrwt>0</asrwt>
<pdfrwt beam="1">  1        2 0.40054882E+00 0.15847139E+04</pdfrwt>
<pdfrwt beam="2">  1       -2 0.37098775E-01 0.15847139E+04</pdfrwt>
<totfact> 0.19969681E+01</totfact>
</mgrwt>
</event>
<event>
 6    1  0.8968082E-007  0.1763958E+04  0.7818608E-02  0.8725705E-01
         -2   -1    0    0    0  501 -0.00000000000E+00  0.00000000000E+00  0.55951091482E+03  0.55951091482E+03  0.00000000000E+00 0.  1.
          2   -1    0    0  501    0  0.00000000000E+00 -0.00000000000E+00 -0.13902976222E+04  0.13902976222E+04  0.00000000000E+00 0. -1.
         23    2    1    2    0    0  0.81492990680E+03  0.29120189617E+03 -0.24226738442E+03  0.90325978475E+03  0.90969532616E+02 0.  0.
         11    1    3    3    0    0  0.38883911998E+03  0.15750329384E+03 -0.16095213441E+03  0.44934256238E+03  0.00000000000E+00 0.  1.
        -11    1    3    3    0    0  0.42609078682E+03  0.13369860232E+03 -0.81315250010E+02  0.45391722237E+03  0.00000000000E+00 0. -1.
         22    1    1    2    0    0 -0.81492990680E+03 -0.29120189617E+03 -0.58851932291E+03  0.10465487522E+04  0.00000000000E+00 0. -1.
<mgrwt>
<rscale>  0 0.17639577E+04</rscale>
<asrwt>0</asrwt>
<pdfrwt beam="1">  1        2 0.21389194E+00 0.17639577E+04</pdfrwt>
<pdfrwt beam="2">  1       -2 0.86078603E-01 0.17639577E+04</pdfrwt>
<totfact> 0.16247303E+01</totfact>
</mgrwt>
</event>
<event>
 6    1  0.8968082E-007  0.9203440E+03  0.7818608E-02  0.9400502E-01
         -2   -1    0    0    0  501 -0.00000000000E+00  0.00000000000E+00  0.31003479328E+03  0.31003479328E+03  0.00000000000E+00 0.  1.
          2   -1    0    0  501    0  0.00000000000E+00 -0.00000000000E+00 -0.68301453172E+03  0.68301453172E+03  0.00000000000E+00 0. -1.
         23    2    1    2    0    0 -0.14079204425E+03  0.40727811579E+03 -0.34702763907E+03  0.56134181431E+03  0.94755405582E+02 0.  0.
         11    1    3    3    0    0 -0.75964674566E+02  0.32765801977E+03 -0.28868943863E+03  0.44325162343E+03  0.00000000000E+00 0. -1.
        -11    1    3    3    0    0 -0.64827369679E+02  0.79620096024E+02 -0.58338200443E+02  0.11809019088E+03  0.00000000000E+00 0.  1.
         22    1    1    2    0    0  0.14079204425E+03 -0.40727811579E+03 -0.25952099377E+02  0.43170751069E+03  0.00000000000E+00 0. -1.
<mgrwt>
<rscale>  0 0.92034400E+03</rscale>
<asrwt>0</asrwt>
<pdfrwt beam="1">  1        2 0.10507916E+00 0.92034400E+03</pdfrwt>
<pdfrwt beam="2">  1       -2 0.47697661E-01 0.92034400E+03</pdfrwt>
<totfact> 0.17642321E+02</totfact>
</mgrwt>
</event>
<event>
 6    1  0.9297748E-007  0.2137713E+04  0.7818608E-02  0.8544810E-01
         -1   -1    0    0    0  501 -0.00000000000E+00  0.00000000000E+00  0.59336427935E+03  0.59336427935E+03  0.00000000000E+00 0.  1.
          1   -1    0    0  501    0  0.00000000000E+00 -0.00000000000E+00 -0.19253836024E+04  0.19253836024E+04  0.00000000000E+00 0. -1.
         23    2    1    2    0    0  0.42911011284E+03  0.94505892539E+03 -0.95840011930E+03  0.14156326698E+04  0.90626738298E+02 0.  0.
         11    1    3    3    0    0  0.24443391108E+03  0.44527142012E+03 -0.43528522554E+03  0.66894529077E+03  0.00000000000E+00 0.  1.
        -11    1    3    3    0    0  0.18467620176E+03  0.49978750527E+03 -0.52311489375E+03  0.74668737902E+03  0.00000000000E+00 0. -1.
         22    1    1    2    0    0 -0.42911011284E+03 -0.94505892539E+03 -0.37361920374E+03  0.11031152119E+04  0.00000000000E+00 0.  1.
<mgrwt>
<rscale>  0 0.21377127E+04</rscale>
<asrwt>0</asrwt>
<pdfrwt beam="1">  1        1 0.29621286E+00 0.21377127E+04</pdfrwt>
<pdfrwt beam="2">  1       -1 0.91286812E-01 0.21377127E+04</pdfrwt>
<totfact> 0.35925313E+00</totfact>
</mgrwt>
</event>
<event>
 6    1  0.8968082E-007  0.1338250E+04  0.7818608E-02  0.8999770E-01
          1   -1    0    0  501    0  0.00000000000E+00  0.00000000000E+00  0.15955655818E+04  0.15955655818E+04  0.00000000000E+00 0. -1.
         -1   -1    0    0    0  501 -0.00000000000E+00 -0.00000000000E+00 -0.28060806916E+03  0.28060806916E+03  0.00000000000E+00 0.  1.
         23    2    1    2    0    0 -0.28869193586E+03 -0.18000016258E+03  0.14633273129E+04  0.15050177672E+04  0.89490571949E+02 0.  0.
         13    1    3    3    0    0 -0.15669376151E+03 -0.10007833624E+03  0.60480553665E+03  0.63273876556E+03  0.00000000000E+00 0. -1.
        -13    1    3    3    0    0 -0.13199817435E+03 -0.79921826345E+02  0.85852177630E+03  0.87227900166E+03  0.00000000000E+00 0.  1.
         22    1    1    2    0    0  0.28869193586E+03  0.18000016258E+03 -0.14836980034E+03  0.37115588371E+03  0.00000000000E+00 0.  1.
<mgrwt>
<rscale>  0 0.13382505E+04</rscale>
<asrwt>0</asrwt>
<pdfrwt beam="1">  1        1 0.24547162E+00 0.13382505E+04</pdfrwt>
<pdfrwt beam="2">  1       -1 0.43170473E-01 0.13382505E+04</pdfrwt>
<totfact> 0.29130113E+01</totfact>
</mgrwt>
</event>
<event>
 6    1  0.8968082E-007  0.4582088E+04  0.7818608E-02  0.7896421E-01
          2   -1    0    0  501    0  0.00000000000E+00  0.00000000000E+00  0.23122079796E+04  0.23122079796E+04  0.00000000000E+00 0. -1.
         -2   -1    0    0    0  501 -0.00000000000E+00 -0.00000000000E+00 -0.22700738038E+04  0.22700738038E+04  0.00000000000E+00 0.  1.
         23    2    1    2    0    0  0.33778613356E+03  0.11027060534E+04  0.19997431785E+04  0.23102137563E+04  0.89748021782E+02 0.  0.
         13    1    3    3    0    0  0.30124056406E+03  0.91413396112E+03  0.16114228862E+04  0.18769844151E+04  0.00000000000E+00 0. -1.
        -13    1    3    3    0    0  0.36545569501E+02  0.18857209227E+03  0.38832029238E+03  0.43322934124E+03  0.00000000000E+00 0.  1.
         22    1    1    2    0    0 -0.33778613356E+03 -0.11027060534E+04 -0.19576090028E+04  0.22720680271E+04  0.00000000000E+00 0.  1.
<mgrwt>
<rscale>  0 0.45820881E+04</rscale>
<asrwt>0</asrwt>
<pdfrwt beam="1">  1        2 0.35572431E+00 0.45820881E+04</pdfrwt>
<pdfrwt beam="2">  1       -2 0.34924212E+00 0.45820881E+04</pdfrwt>
<totfact> 0.52829576E-02</totfact>
</mgrwt>
</event>
<event>
 6    1  0.8968082E-007  0.9171211E+03  0.7818608E-02  0.9404429E-01
          2   -1    0    0  501    0  0.00000000000E+00  0.00000000000E+00  0.81299783508E+03  0.81299783508E+03  0.00000000000E+00 0. -1.
         -2   -1    0    0    0  501 -0.00000000000E+00 -0.00000000000E+00 -0.25864496970E+03  0.25864496970E+03  0.00000000000E+00 0.  1.
         23    2    1    2    0    0 -0.35744189052E+03 -0.48138989651E+02  0.60217813997E+03  0.70781685147E+03  0.91126919971E+02 0.  0.
         13    1    3    3    0    0 -0.25990575995E+03 -0.41674574571E+02  0.35444776643E+03  0.44149857683E+03  0.00000000000E+00 0. -1.
        -13    1    3    3    0    0 -0.97536130564E+02 -0.64644150800E+01  0.24773037354E+03  0.26631827463E+03  0.00000000000E+00 0.  1.
         22    1    1    2    0    0  0.35744189052E+03  0.48138989651E+02 -0.47825274589E+02  0.36382595332E+03  0.00000000000E+00 0.  1.
<mgrwt>
<rscale>  0 0.91712115E+03</rscale>
<asrwt>0</asrwt>
<pdfrwt beam="1">  1        2 0.12507659E+00 0.91712115E+03</pdfrwt>
<pdfrwt beam="2">  1       -2 0.39791534E-01 0.91712115E+03</pdfrwt>
<totfact> 0.20173224E+02</totfact>
</mgrwt>
</event>
<event>
 6    1  0.8968082E-007  0.2056758E+04  0.7818608E-02  0.8580535E-01
         -2   -1    0    0    0  501 -0.00000000000E+00  0.00000000000E+00  0.11979429704E+04  0.11979429704E+04  0.00000000000E+00 0.  1.
          2   -1    0    0  501    0  0.00000000000E+00 -0.00000000000E+00 -0.88281583614E+03  0.88281583614E+03  0.00000000000E+00 0. -1.
         23    2    1    2    0    0 -0.49979165055E+03 -0.89306834151E+03  0.80060464652E+02  0.10307020958E+04  0.92597925267E+02 0.  0.
         11    1    3    3    0    0 -0.78004303135E+02 -0.21819086938E+03  0.14707397735E+02  0.23218146855E+03  0.00000000000E+00 0. -1.
        -11    1    3    3    0    0 -0.42178734742E+03 -0.67487747213E+03  0.65353066917E+02  0.79852062728E+03  0.00000000000E+00 0.  1.
         22    1    1    2    0    0  0.49979165055E+03  0.89306834151E+03  0.23506666963E+03  0.10500567107E+04  0.00000000000E+00 0.  1.
<mgrwt>
<rscale>  0 0.20567577E+04</rscale>
<asrwt>0</asrwt>
<pdfrwt beam="1">  1        2 0.13581782E+00 0.20567577E+04</pdfrwt>
<pdfrwt beam="2">  1       -2 0.18429892E+00 0.20567577E+04</pdfrwt>
<totfact> 0.47173869E+00</totfact>
</mgrwt>
</event>
<event>
 6    1  0.8968082E-007  0.1788920E+04  0.7818608E-02  0.8712214E-01
         -1   -1    0    0    0  501 -0.00000000000E+00  0.00000000000E+00  0.20044572020E+03  0.20044572020E+03  0.00000000000E+00 0.  1.
          1   -1    0    0  501    0  0.00000000000E+00 -0.00000000000E+00 -0.39913975986E+04  0.39913975986E+04  0.00000000000E+00 0. -1.
         23    2    1    2    0    0  0.26624199464E+03 -0.51925949753E+03 -0.34816910744E+04  0.35314211278E+04  0.90814197958E+02 0.  0.
         11    1    3    3    0    0  0.11319310600E+03 -0.26929464953E+03 -0.15009281558E+04  0.15290904539E+04  0.00000000000E+00 0. -1.
        -11    1    3    3    0    0  0.15304888864E+03 -0.24996484800E+03 -0.19807629186E+04  0.20023306738E+04  0.00000000000E+00 0.  1.
         22    1    1    2    0    0 -0.26624199464E+03  0.51925949753E+03 -0.30926080395E+03  0.66042219099E+03  0.00000000000E+00 0.  1.
<mgrwt>
<rscale>  0 0.17889199E+04</rscale>
<asrwt>0</asrwt>
<pdfrwt beam="1">  1        1 0.61406110E+00 0.17889199E+04</pdfrwt>
<pdfrwt beam="2">  1       -1 0.30837806E-01 0.17889199E+04</pdfrwt>
<totfact> 0.90704964E-01</totfact>
</mgrwt>
</event>
<event>
 6    1  0.8968082E-007  0.2459712E+04  0.7818608E-02  0.8417481E-01
         -1   -1    0    0    0  501 -0.00000000000E+00  0.00000000000E+00  0.16381260370E+04  0.16381260370E+04  0.00000000000E+00 0.  1.
          1   -1    0    0  501    0  0.00000000000E+00 -0.00000000000E+00 -0.92333916500E+03  0.92333916500E+03  0.00000000000E+00 0. -1.
         23    2    1    2    0    0  0.72569519383E+03 -0.72694553365E+03  0.10589559263E+04  0.14781666922E+04  0.92226855485E+02 0.  0.
         13    1    3    3    0    0  0.37502797021E+03 -0.41494392720E+03  0.52305534101E+03  0.76577498713E+03  0.00000000000E+00 0. -1.
        -13    1    3    3    0    0  0.35066722362E+03 -0.31200160645E+03  0.53590058529E+03  0.71239170507E+03  0.00000000000E+00 0.  1.
         22    1    1    2    0    0 -0.72569519383E+03  0.72694553365E+03 -0.34416905434E+03  0.10832985097E+04  0.00000000000E+00 0. -1.
<mgrwt>
<rscale>  0 0.24597121E+04</rscale>
<asrwt>0</asrwt>
<pdfrwt beam="1">  1        1 0.14205218E+00 0.24597121E+04</pdfrwt>
<pdfrwt beam="2">  1       -1 0.25201939E+00 0.24597121E+04</pdfrwt>
<totfact> 0.10500222E+00</totfact>
</mgrwt>
</event>
<event>
 6    1  0.8968082E-007  0.3506239E+04  0.7818608E-02  0.8112313E-01
          2   -1    0    0  501    0  0.00000000000E+00  0.00000000000E+00  0.12204967795E+04  0.12204967795E+04  0.00000000000E+00 0. -1.
         -2   -1    0    0    0  501 -0.00000000000E+00 -0.00000000000E+00 -0.25181774529E+04  0.25181774529E+04  0.00000000000E+00 0.  1.
         23    2    1    2    0    0  0.15962694022E+02 -0.17445049825E+04 -0.81939616564E+03  0.19297219080E+04  0.94149477421E+02 0.  0.
         11    1    3    3    0    0  0.18908421015E+02 -0.11136068429E+04 -0.57180350739E+03  0.12519732345E+04  0.00000000000E+00 0. -1.
        -11    1    3    3    0    0 -0.29457269935E+01 -0.63089813963E+03 -0.24759265825E+03  0.67774867341E+03  0.00000000000E+00 0.  1.
         22    1    1    2    0    0 -0.15962694022E+02  0.17445049825E+04 -0.47828450783E+03  0.18089523244E+04  0.00000000000E+00 0. -1.
<mgrwt>
<rscale>  0 0.35062387E+04</rscale>
<asrwt>0</asrwt>
<pdfrwt beam="1">  1        2 0.18776874E+00 0.35062387E+04</pdfrwt>
<pdfrwt beam="2">  1       -2 0.38741191E+00 0.35062387E+04</pdfrwt>
<totfact> 0.13548747E-01</totfact>
</mgrwt>
</event>
<event>
 6    1  0.8968082E-007  0.2450275E+04  0.7818608E-02  0.8420918E-01
          2   -1    0    0  501    0  0.00000000000E+00  0.00000000000E+00  0.15363030041E+04  0.15363030041E+04  0.00000000000E+00 0. -1.
         -2   -1    0    0    0  501 -0.00000000000E+00 -0.00000000000E+00 -0.97699582568E+03  0.97699582568E+03  0.00000000000E+00 0.  1.
         23    2    1    2    0    0  0.35265866095E+03  0.34131864877E+03  0.14295598200E+04  0.15141961267E+04  0.91005933733E+02 0.  0.
         11    1    3    3    0    0  0.13960694394E+03  0.77840421180E+02  0.42810714109E+03  0.45697369095E+03  0.00000000000E+00 0.  1.
        -11    1    3    3    0    0  0.21305171701E+03  0.26347822759E+03  0.10014526789E+04  0.10572224357E+04  0.00000000000E+00 0. -1.
         22    1    1    2    0    0 -0.35265866095E+03 -0.34131864877E+03 -0.87025264158E+03  0.99910270309E+03  0.00000000000E+00 0.  1.
<mgrwt>
<rscale>  0 0.24502748E+04</rscale>
<asrwt>0</asrwt>
<pdfrwt beam="1">  1        2 0.23635431E+00 0.24502748E+04</pdfrwt>
<pdfrwt beam="2">  1       -2 0.15030705E+00 0.24502748E+04</pdfrwt>
<totfact> 0.32320413E+00</totfact>
</mgrwt>
</event>
<event>
 6    1  0.8968082E-007  0.2757593E+04  0.7818608E-02  0.8316556E-01
          2   -1    0    0  501    0  0.00000000000E+00  0.00000000000E+00  0.16023904325E+04  0.16023904325E+04  0.00000000000E+00 0. -1.
         -2   -1    0    0    0  501 -0.00000000000E+00 -0.00000000000E+00 -0.11864022575E+04  0.11864022575E+04  0.00000000000E+00 0.  1.
         23    2    1    2    0    0  0.50324720110E+03  0.10884594742E+03 -0.10836666108E+04  0.12032108843E+04  0.90983092119E+02 0.  0.
         13    1    3    3    0    0  0.31055591227E+03  0.58097185601E+02 -0.76095961565E+03  0.82394162067E+03  0.00000000000E+00 0. -1.
        -13    1    3    3    0    0  0.19269128884E+03  0.50748761821E+02 -0.32270699518E+03  0.37926926366E+03  0.00000000000E+00 0.  1.
         22    1    1    2    0    0 -0.50324720110E+03 -0.10884594742E+03  0.14996547858E+04  0.15855818056E+04  0.00000000000E+00 0. -1.
<mgrwt>
<rscale>  0 0.27575929E+04</rscale>
<asrwt>0</asrwt>
<pdfrwt beam="1">  1        2 0.24652160E+00 0.27575929E+04</pdfrwt>
<pdfrwt beam="2">  1       -2 0.18252343E+00 0.27575929E+04</pdfrwt>
<totfact> 0.16914491E+00</totfact>
</mgrwt>
</event>
<event>
 6    1  0.8968082E-007  0.2115011E+04  0.7818608E-02  0.8554660E-01
         -2   -1    0    0    0  501 -0.00000000000E+00  0.00000000000E+00  0.58606833454E+03  0.58606833454E+03  0.00000000000E+00 0.  1.
          2   -1    0    0  501    0  0.00000000000E+00 -0.00000000000E+00 -0.19081691825E+04  0.19081691825E+04  0.00000000000E+00 0. -1.
         23    2    1    2    0    0  0.87180505818E+03  0.50178468912E+03 -0.10392761000E+04  0.14493347600E+04  0.92975806678E+02 0.  0.
         13    1    3    3    0    0  0.35155785110E+03  0.17343180459E+03 -0.35096238805E+03  0.52616167795E+03  0.00000000000E+00 0. -1.
        -13    1    3    3    0    0  0.52024720708E+03  0.32835288453E+03 -0.68831371197E+03  0.92317308201E+03  0.00000000000E+00 0.  1.
         22    1    1    2    0    0 -0.87180505818E+03 -0.50178468912E+03 -0.28282474792E+03  0.10449027571E+04  0.00000000000E+00 0.  1.
<mgrwt>
<rscale>  0 0.21150107E+04</rscale>
<asrwt>0</asrwt>
<pdfrwt beam="1">  1        2 0.29356449E+00 0.21150107E+04</pdfrwt>
<pdfrwt beam="2">  1       -2 0.90164359E-01 0.21150107E+04</pdfrwt>
<totfact> 0.72782750E+00</totfact>
</mgrwt>
</event>
<event>
 6    1  0.8968082E-007  0.3969933E+04  0.7818608E-02  0.8010640E-01
          2   -1    0    0  501    0  0.00000000000E+00  0.00000000000E+00  0.24257876108E+04  0.24257876108E+04  0.00000000000E+00 0. -1.
         -2   -1    0    0    0  501 -0.00000000000E+00 -0.00000000000E+00 -0.16242529480E+04  0.16242529480E+04  0.00000000000E+00 0.  1.
         23    2    1    2    0    0 -0.19555165595E+04 -0.33439168338E+03  0.42386274243E+03  0.20305111850E+04  0.86332123139E+02 0.  0.
         11    1    3    3    0    0 -0.17115641192E+04 -0.30649851647E+03  0.39671596250E+03  0.17834731928E+04  0.00000000000E+00 0. -1.
        -11    1    3    3    0    0 -0.24395244032E+03 -0.27893166916E+02  0.27146779931E+02  0.24703799214E+03  0.00000000000E+00 0.  1.
         22    1    1    2    0    0  0.19555165595E+04  0.33439168338E+03  0.37767192038E+03  0.20195293738E+04  0.00000000000E+00 0. -1.
<mgrwt>
<rscale>  0 0.39699333E+04</rscale>
<asrwt>0</asrwt>
<pdfrwt beam="1">  1        2 0.37319809E+00 0.39699333E+04</pdfrwt>
<pdfrwt beam="2">  1       -2 0.24988507E+00 0.39699333E+04</pdfrwt>
<totfact> 0.19557852E-01</totfact>
</mgrwt>
</event>
<event>
 6    1  0.8968082E-007  0.1185755E+04  0.7818608E-02  0.9125418E-01
         -1   -1    0    0    0  501 -0.00000000000E+00  0.00000000000E+00  0.15367111650E+03  0.15367111650E+03  0.00000000000E+00 0.  1.
          1   -1    0    0  501    0  0.00000000000E+00 -0.00000000000E+00 -0.22873753371E+04  0.22873753371E+04  0.00000000000E+00 0. -1.
         23    2    1    2    0    0  0.30039237335E+03 -0.23819060383E+03 -0.15256175914E+03  0.42315255295E+03  0.93875721016E+02 0.  0.
         13    1    3    3    0    0  0.12855604445E+03 -0.12611410572E+03 -0.11748108186E+03  0.21501913594E+03  0.00000000000E+00 0.  1.
        -13    1    3    3    0    0  0.17183632889E+03 -0.11207649811E+03 -0.35080677287E+02  0.20813341701E+03  0.00000000000E+00 0. -1.
         22    1    1    2    0    0 -0.30039237335E+03  0.23819060383E+03 -0.19811424614E+04  0.20178939006E+04  0.00000000000E+00 0. -1.
<mgrwt>
<rscale>  0 0.11857546E+04</rscale>
<asrwt>0</asrwt>
<pdfrwt beam="1">  1        1 0.35190393E+00 0.11857546E+04</pdfrwt>
<pdfrwt beam="2">  1       -1 0.23641708E-01 0.11857546E+04</pdfrwt>
<totfact> 0.29120149E+01</totfact>
</mgrwt>
</event>
<event>
 6    1  0.8968082E-007  0.2191408E+04  0.7818608E-02  0.8522013E-01
          1   -1    0    0  501    0  0.00000000000E+00  0.00000000000E+00  0.28356865033E+04  0.28356865033E+04  0.00000000000E+00 0. -1.
         -1   -1    0    0    0  501 -0.00000000000E+00 -0.00000000000E+00 -0.42337808324E+03  0.42337808324E+03  0.00000000000E+00 0.  1.
         23    2    1    2    0    0  0.11048801288E+03  0.81098612180E+03  0.12889969692E+03  0.83339736129E+03  0.89609928047E+02 0.  0.
         13    1    3    3    0    0  0.10492028535E+03  0.60551228392E+03  0.12860631829E+03  0.62784789349E+03  0.00000000000E+00 0. -1.
        -13    1    3    3    0    0  0.55677275251E+01  0.20547383788E+03  0.29337862491E+00  0.20554946780E+03  0.00000000000E+00 0.  1.
         22    1    1    2    0    0 -0.11048801288E+03 -0.81098612180E+03  0.22834087231E+04  0.24256672252E+04  0.00000000000E+00 0. -1.
<mgrwt>
<rscale>  0 0.21914082E+04</rscale>
<asrwt>0</asrwt>
<pdfrwt beam="1">  1        1 0.43625945E+00 0.21914082E+04</pdfrwt>
<pdfrwt beam="2">  1       -1 0.65135092E-01 0.21914082E+04</pdfrwt>
<totfact> 0.17143642E+00</totfact>
</mgrwt>
</event>
<event>
 6    1  0.8968082E-007  0.1894021E+04  0.7818608E-02  0.8657838E-01
          1   -1    0    0  501    0  0.00000000000E+00  0.00000000000E+00  0.74481937540E+03  0.74481937540E+03  0.00000000000E+00 0. -1.
         -1   -1    0    0    0  501 -0.00000000000E+00 -0.00000000000E+00 -0.12040894146E+04  0.12040894146E+04  0.00000000000E+00 0.  1.
         23    2    1    2    0    0 -0.69316861320E+02 -0.41015646051E+03  0.64268033780E+03  0.77105999548E+03  0.91991035858E+02 0.  0.
         11    1    3    3    0    0 -0.91505371553E+02 -0.32799740798E+03  0.52715114259E+03  0.62756980472E+03  0.00000000000E+00 0.  1.
        -11    1    3    3    0    0  0.22188510232E+02 -0.82159052524E+02  0.11552919521E+03  0.14349019076E+03  0.00000000000E+00 0. -1.
         22    1    1    2    0    0  0.69316861320E+02  0.41015646051E+03 -0.11019503771E+04  0.11778487946E+04  0.00000000000E+00 0.  1.
<mgrwt>
<rscale>  0 0.18940213E+04</rscale>
<asrwt>0</asrwt>
<pdfrwt beam="1">  1        1 0.11458760E+00 0.18940213E+04</pdfrwt>
<pdfrwt beam="2">  1       -1 0.18524452E+00 0.18940213E+04</pdfrwt>
<totfact> 0.44241843E+00</totfact>
</mgrwt>
</event>
<event>
 6    1  0.8968082E-007  0.5574310E+03  0.7818608E-02  0.9997884E-01
         -2   -1    0    0    0  501 -0.00000000000E+00  0.00000000000E+00  0.10664560124E+04  0.10664560124E+04  0.00000000000E+00 0.  1.
          2   -1    0    0  501    0  0.00000000000E+00 -0.00000000000E+00 -0.72841568182E+02  0.72841568182E+02  0.00000000000E+00 0. -1.
         23    2    1    2    0    0 -0.14136216677E+03 -0.35159802512E+02  0.97791695976E+03  0.99278517521E+03  0.89896329398E+02 0.  0.
         11    1    3    3    0    0 -0.38058281675E+02  0.23745387803E+02  0.15640340104E+03  0.16270925020E+03  0.00000000000E+00 0.  1.
        -11    1    3    3    0    0 -0.10330388509E+03 -0.58905190315E+02  0.82151355872E+03  0.83007592501E+03  0.00000000000E+00 0. -1.
         22    1    1    2    0    0  0.14136216677E+03  0.35159802512E+02  0.15697484453E+02  0.14651240536E+03  0.00000000000E+00 0. -1.
<mgrwt>
<rscale>  0 0.55743099E+03</rscale>
<asrwt>0</asrwt>
<pdfrwt beam="1">  1        2 0.11206396E-01 0.55743099E+03</pdfrwt>
<pdfrwt beam="2">  1       -2 0.16407014E+00 0.55743099E+03</pdfrwt>
<totfact> 0.13796841E+02</totfact>
</mgrwt>
</event>
<event>
 6    1  0.8968082E-007  0.1135400E+04  0.7818608E-02  0.9171359E-01
         -2   -1    0    0    0  501 -0.00000000000E+00  0.00000000000E+00  0.26403656611E+03  0.26403656611E+03  0.00000000000E+00 0.  1.
          2   -1    0    0  501    0  0.00000000000E+00 -0.00000000000E+00 -0.12206018239E+04  0.12206018239E+04  0.00000000000E+00 0. -1.
         23    2    1    2    0    0  0.32337915201E+03 -0.21360698731E+03 -0.10179922666E+04  0.10922415266E+04  0.80506375023E+02 0.  0.
         13    1    3    3    0    0  0.12783397888E+03 -0.65349996354E+02 -0.47822617315E+03  0.49931194745E+03  0.00000000000E+00 0. -1.
        -13    1    3    3    0    0  0.19554517314E+03 -0.14825699096E+03 -0.53976609350E+03  0.59292957912E+03  0.00000000000E+00 0.  1.
         22    1    1    2    0    0 -0.32337915201E+03  0.21360698731E+03  0.61427008896E+02  0.39239686340E+03  0.00000000000E+00 0.  1.
<mgrwt>
<rscale>  0 0.11354004E+04</rscale>
<asrwt>0</asrwt>
<pdfrwt beam="1">  1        2 0.18778489E+00 0.11354004E+04</pdfrwt>
<pdfrwt beam="2">  1       -2 0.40621010E-01 0.11354004E+04</pdfrwt>
<totfact> 0.10459849E+02</totfact>
</mgrwt>
</event>
<event>
 6    1  0.8968082E-007  0.3853970E+04  0.7818608E-02  0.8034671E-01
          1   -1    0    0  501    0  0.00000000000E+00  0.00000000000E+00  0.20427121367E+04  0.20427121367E+04  0.00000000000E+00 0. -1.
         -1   -1    0    0    0  501 -0.00000000000E+00 -0.00000000000E+00 -0.18178145043E+04  0.18178145043E+04  0.00000000000E+00 0.  1.
         23    2    1    2    0    0 -0.13092265839E+04 -0.26436882880E+03  0.15023382972E+04  0.20123329883E+04  0.92187695373E+02 0.  0.
         11    1    3    3    0    0 -0.82489446851E+03 -0.14316119199E+03  0.88297034798E+03  0.12167919487E+04  0.00000000000E+00 0. -1.
        -11    1    3    3    0    0 -0.48433211535E+03 -0.12120763681E+03  0.61936794924E+03  0.79554103962E+03  0.00000000000E+00 0.  1.
         22    1    1    2    0    0  0.13092265839E+04  0.26436882880E+03 -0.12774406648E+04  0.18481936526E+04  0.00000000000E+00 0.  1.
<mgrwt>
<rscale>  0 0.38539703E+04</rscale>
<asrwt>0</asrwt>
<pdfrwt beam="1">  1        1 0.31426341E+00 0.38539703E+04</pdfrwt>
<pdfrwt beam="2">  1       -1 0.27966377E+00 0.38539703E+04</pdfrwt>
<totfact> 0.98767662E-02</totfact>
</mgrwt>
</event>
<event>
 6    1  0.8968082E-007  0.2377067E+04  0.7818608E-02  0.8448139E-01
         -1   -1    0    0    0  501 -0.00000000000E+00  0.00000000000E+00  0.10087203214E+04  0.10087203214E+04  0.00000000000E+00 0.  1.
          1   -1    0    0  501    0  0.00000000000E+00 -0.00000000000E+00 -0.14004001587E+04  0.14004001587E+04  0.00000000000E+00 0. -1.
         23    2    1    2    0    0 -0.45723103194E+03 -0.74950987903E+03 -0.10053351413E+04  0.13379537762E+04  0.92716156671E+02 0.  0.
         11    1    3    3    0    0 -0.65948202929E+02 -0.12064308662E+03 -0.21139891058E+03  0.25217735666E+03  0.00000000000E+00 0.  1.
        -11    1    3    3    0    0 -0.39128282901E+03 -0.62886679241E+03 -0.79393623070E+03  0.10857764196E+04  0.00000000000E+00 0. -1.
         22    1    1    2    0    0  0.45723103194E+03  0.74950987903E+03  0.61365530397E+03  0.10711667038E+04  0.00000000000E+00 0.  1.
<mgrwt>
<rscale>  0 0.23770672E+04</rscale>
<asrwt>0</asrwt>
<pdfrwt beam="1">  1        1 0.21544618E+00 0.23770672E+04</pdfrwt>
<pdfrwt beam="2">  1       -1 0.15518774E+00 0.23770672E+04</pdfrwt>
<totfact> 0.21928721E+00</totfact>
</mgrwt>
</event>
<event>
 6    1  0.8968082E-007  0.1200286E+04  0.7818608E-02  0.9112606E-01
          1   -1    0    0  501    0  0.00000000000E+00  0.00000000000E+00  0.26205677549E+03  0.26205677549E+03  0.00000000000E+00 0. -1.
         -1   -1    0    0    0  501 -0.00000000000E+00 -0.00000000000E+00 -0.13744031468E+04  0.13744031468E+04  0.00000000000E+00 0.  1.
         23    2    1    2    0    0 -0.17161335801E+03  0.44279330252E+02 -0.13361872232E+04  0.13509489230E+04  0.90856444783E+02 0.  0.
         13    1    3    3    0    0 -0.78074252382E+02  0.37901855436E+02 -0.93191060037E+03  0.93594311078E+03  0.00000000000E+00 0. -1.
        -13    1    3    3    0    0 -0.93539105630E+02  0.63774748155E+01 -0.40427662280E+03  0.41500581226E+03  0.00000000000E+00 0.  1.
         22    1    1    2    0    0  0.17161335801E+03 -0.44279330252E+02  0.22384085186E+03  0.28551099925E+03  0.00000000000E+00 0. -1.
<mgrwt>
<rscale>  0 0.12002861E+04</rscale>
<asrwt>0</asrwt>
<pdfrwt beam="1">  1        1 0.40316428E-01 0.12002861E+04</pdfrwt>
<pdfrwt beam="2">  1       -1 0.21144663E+00 0.12002861E+04</pdfrwt>
<totfact> 0.13017979E+01</totfact>
</mgrwt>
</event>
<event>
 6    1  0.8968082E-007  0.2175858E+04  0.7818608E-02  0.8528544E-01
         -1   -1    0    0    0  501 -0.00000000000E+00  0.00000000000E+00  0.51494149816E+03  0.51494149816E+03  0.00000000000E+00 0.  1.
          1   -1    0    0  501    0  0.00000000000E+00 -0.00000000000E+00 -0.22984930442E+04  0.22984930442E+04  0.00000000000E+00 0. -1.
         23    2    1    2    0    0  0.87690388649E+03  0.52762513370E+03 -0.13622321966E+04  0.17067011950E+04  0.99013654847E+02 0.  0.
         13    1    3    3    0    0  0.72508982893E+03  0.45970879976E+03 -0.10874700352E+04  0.13855246364E+04  0.00000000000E+00 0.  1.
        -13    1    3    3    0    0  0.15181405756E+03  0.67916333935E+02 -0.27476216137E+03  0.32117655862E+03  0.00000000000E+00 0. -1.
         22    1    1    2    0    0 -0.87690388649E+03 -0.52762513370E+03 -0.42131934944E+03  0.11067333473E+04  0.00000000000E+00 0.  1.
<mgrwt>
<rscale>  0 0.21758579E+04</rscale>
<asrwt>0</asrwt>
<pdfrwt beam="1">  1        1 0.35361432E+00 0.21758579E+04</pdfrwt>
<pdfrwt beam="2">  1       -1 0.79221769E-01 0.21758579E+04</pdfrwt>
<totfact> 0.27145208E+00</totfact>
</mgrwt>
</event>
<event>
 6    1  0.8968082E-007  0.3059991E+04  0.7818608E-02  0.8226805E-01
         -1   -1    0    0    0  501 -0.00000000000E+00  0.00000000000E+00  0.14028128020E+04  0.14028128020E+04  0.00000000000E+00 0.  1.
          1   -1    0    0  501    0  0.00000000000E+00 -0.00000000000E+00 -0.16687087860E+04  0.16687087860E+04  0.00000000000E+00 0. -1.
         23    2    1    2    0    0  0.11259969687E+04 -0.59237406310E+03 -0.98357233501E+03  0.16107561896E+04  0.91349658084E+02 0.  0.
         11    1    3    3    0    0  0.52635808428E+03 -0.30800804914E+03 -0.42511353688E+03  0.74339983216E+03  0.00000000000E+00 0. -1.
        -11    1    3    3    0    0  0.59963888443E+03 -0.28436601396E+03 -0.55845879813E+03  0.86735635746E+03  0.00000000000E+00 0.  1.
         22    1    1    2    0    0 -0.11259969687E+04  0.59237406310E+03  0.71767635102E+03  0.14607653983E+04  0.00000000000E+00 0.  1.
<mgrwt>
<rscale>  0 0.30599909E+04</rscale>
<asrwt>0</asrwt>
<pdfrwt beam="1">  1        1 0.25672443E+00 0.30599909E+04</pdfrwt>
<pdfrwt beam="2">  1       -1 0.21581735E+00 0.30599909E+04</pdfrwt>
<totfact> 0.49775210E-01</totfact>
</mgrwt>
</event>
<event>
 6    1  0.8968082E-007  0.3138213E+04  0.7818608E-02  0.8205328E-01
         -1   -1    0    0    0  501 -0.00000000000E+00  0.00000000000E+00  0.59259953746E+03  0.59259953746E+03  0.00000000000E+00 0.  1.
          1   -1    0    0  501    0  0.00000000000E+00 -0.00000000000E+00 -0.41547368792E+04  0.41547368792E+04  0.00000000000E+00 0. -1.
         23    2    1    2    0    0 -0.14169894370E+04 -0.22438709952E+03 -0.82574792296E+03  0.16576704661E+04  0.88335196164E+02 0.  0.
         13    1    3    3    0    0 -0.80803683256E+03 -0.13197613005E+03 -0.42080403710E+03  0.92055269231E+03  0.00000000000E+00 0. -1.
        -13    1    3    3    0    0 -0.60895260443E+03 -0.92410969474E+02 -0.40494388586E+03  0.73711777377E+03  0.00000000000E+00 0.  1.
         22    1    1    2    0    0  0.14169894370E+04  0.22438709952E+03 -0.27363894188E+04  0.30896659506E+04  0.00000000000E+00 0. -1.
<mgrwt>
<rscale>  0 0.31382130E+04</rscale>
<asrwt>0</asrwt>
<pdfrwt beam="1">  1        1 0.63919029E+00 0.31382130E+04</pdfrwt>
<pdfrwt beam="2">  1       -1 0.91169159E-01 0.31382130E+04</pdfrwt>
<totfact> 0.68665941E-02</totfact>
</mgrwt>
</event>
<event>
 6    1  0.8968082E-007  0.1456103E+04  0.7818608E-02  0.8914180E-01
         -2   -1    0    0    0  501 -0.00000000000E+00  0.00000000000E+00  0.31536977206E+03  0.31536977206E+03  0.00000000000E+00 0.  1.
          2   -1    0    0  501    0  0.00000000000E+00 -0.00000000000E+00 -0.16807549730E+04  0.16807549730E+04  0.00000000000E+00 0. -1.
         23    2    1    2    0    0  0.16312756542E+03  0.70423489892E+03 -0.60581716871E+03  0.94755381704E+03  0.91029659091E+02 0.  0.
         11    1    3    3    0    0  0.17110495057E+03  0.64596712412E+03 -0.53890074299E+03  0.85846633036E+03  0.00000000000E+00 0.  1.
        -11    1    3    3    0    0 -0.79773851512E+01  0.58267774799E+02 -0.66916425713E+02  0.89087486687E+02  0.00000000000E+00 0. -1.
         22    1    1    2    0    0 -0.16312756542E+03 -0.70423489892E+03 -0.75956803219E+03  0.10485709280E+04  0.00000000000E+00 0.  1.
<mgrwt>
<rscale>  0 0.14561034E+04</rscale>
<asrwt>0</asrwt>
<pdfrwt beam="1">  1        2 0.25857769E+00 0.14561034E+04</pdfrwt>
<pdfrwt beam="2">  1       -2 0.48518426E-01 0.14561034E+04</pdfrwt>
<totfact> 0.39197828E+01</totfact>
</mgrwt>
</event>
<event>
 6    1  0.8968082E-007  0.4965298E+04  0.7818608E-02  0.7833883E-01
         -2   -1    0    0    0  501 -0.00000000000E+00  0.00000000000E+00  0.21617337037E+04  0.21617337037E+04  0.00000000000E+00 0.  1.
          2   -1    0    0  501    0  0.00000000000E+00 -0.00000000000E+00 -0.28512051828E+04  0.28512051828E+04  0.00000000000E+00 0. -1.
         23    2    1    2    0    0 -0.22054652181E+02 -0.21657384346E+04  0.87863455576E+03  0.23390155684E+04  0.89920919132E+02 0.  0.
         13    1    3    3    0    0  0.25437985276E+02 -0.41012606214E+03  0.14612112630E+03  0.43612138389E+03  0.00000000000E+00 0.  1.
        -13    1    3    3    0    0 -0.47492637457E+02 -0.17556123725E+04  0.73251342946E+03  0.19028941845E+04  0.00000000000E+00 0. -1.
         22    1    1    2    0    0  0.22054652181E+02  0.21657384346E+04 -0.15681060348E+04  0.26739233181E+04  0.00000000000E+00 0. -1.
<mgrwt>
<rscale>  0 0.49652981E+04</rscale>
<asrwt>0</asrwt>
<pdfrwt beam="1">  1        2 0.43864695E+00 0.49652981E+04</pdfrwt>
<pdfrwt beam="2">  1       -2 0.33257442E+00 0.49652981E+04</pdfrwt>
<totfact> 0.31429888E-02</totfact>
</mgrwt>
</event>
<event>
 6    1  0.8968082E-007  0.2850864E+04  0.7818608E-02  0.8287649E-01
         -2   -1    0    0    0  501 -0.00000000000E+00  0.00000000000E+00  0.15454425743E+04  0.15454425743E+04  0.00000000000E+00 0.  1.
          2   -1    0    0  501    0  0.00000000000E+00 -0.00000000000E+00 -0.13147407963E+04  0.13147407963E+04  0.00000000000E+00 0. -1.
         23    2    1    2    0    0 -0.31131432092E+03 -0.10719137039E+04  0.10024979155E+04  0.15031333078E+04  0.92152457244E+02 0.  0.
         13    1    3    3    0    0 -0.25676616635E+03 -0.83259415157E+03  0.82802984546E+03  0.12019880658E+04  0.00000000000E+00 0. -1.
        -13    1    3    3    0    0 -0.54548154571E+02 -0.23931955234E+03  0.17446807008E+03  0.30114524200E+03  0.00000000000E+00 0.  1.
         22    1    1    2    0    0  0.31131432092E+03  0.10719137039E+04 -0.77179613757E+03  0.13570500628E+04  0.00000000000E+00 0. -1.
<mgrwt>
<rscale>  0 0.28508640E+04</rscale>
<asrwt>0</asrwt>
<pdfrwt beam="1">  1        2 0.20226782E+00 0.28508640E+04</pdfrwt>
<pdfrwt beam="2">  1       -2 0.23776039E+00 0.28508640E+04</pdfrwt>
<totfact> 0.10741833E+00</totfact>
</mgrwt>
</event>
<event>
 6    1  0.8968082E-007  0.2348300E+04  0.7818608E-02  0.8459117E-01
         -2   -1    0    0    0  501 -0.00000000000E+00  0.00000000000E+00  0.11392669632E+04  0.11392669632E+04  0.00000000000E+00 0.  1.
          2   -1    0    0  501    0  0.00000000000E+00 -0.00000000000E+00 -0.12101011091E+04  0.12101011091E+04  0.00000000000E+00 0. -1.
         23    2    1    2    0    0  0.56359192660E+03  0.95794434145E+03 -0.40621859806E+03  0.11884305409E+04  0.10981976147E+03 0.  0.
         11    1    3    3    0    0  0.31240761852E+03  0.55889021922E+03 -0.17789639229E+03  0.66453286122E+03  0.00000000000E+00 0. -1.
        -11    1    3    3    0    0  0.25118430808E+03  0.39905412223E+03 -0.22832220576E+03  0.52389767965E+03  0.00000000000E+00 0.  1.
         22    1    1    2    0    0 -0.56359192660E+03 -0.95794434145E+03  0.33538445222E+03  0.11609375314E+04  0.00000000000E+00 0. -1.
<mgrwt>
<rscale>  0 0.23483000E+04</rscale>
<asrwt>0</asrwt>
<pdfrwt beam="1">  1        2 0.18616940E+00 0.23483000E+04</pdfrwt>
<pdfrwt beam="2">  1       -2 0.17527184E+00 0.23483000E+04</pdfrwt>
<totfact> 0.32997820E+00</totfact>
</mgrwt>
</event>
<event>
 6    1  0.8968082E-007  0.9992184E+03  0.7818608E-02  0.9309402E-01
          2   -1    0    0  501    0  0.00000000000E+00  0.00000000000E+00  0.10017914790E+04  0.10017914790E+04  0.00000000000E+00 0. -1.
         -2   -1    0    0    0  501 -0.00000000000E+00 -0.00000000000E+00 -0.24916297510E+03  0.24916297510E+03  0.00000000000E+00 0.  1.
         23    2    1    2    0    0  0.32794844503E+03 -0.21993667147E+03  0.51001567134E+01  0.40554274854E+03  0.92285357658E+02 0.  0.
         11    1    3    3    0    0  0.14334373878E+03 -0.15067151316E+03  0.11327860164E+02  0.20827302451E+03  0.00000000000E+00 0. -1.
        -11    1    3    3    0    0  0.18460470626E+03 -0.69265158317E+02 -0.62277034508E+01  0.19726972403E+03  0.00000000000E+00 0.  1.
         22    1    1    2    0    0 -0.32794844503E+03  0.21993667147E+03  0.74752834715E+03  0.84541170553E+03  0.00000000000E+00 0. -1.
<mgrwt>
<rscale>  0 0.99921839E+03</rscale>
<asrwt>0</asrwt>
<pdfrwt beam="1">  1        2 0.15412176E+00 0.99921839E+03</pdfrwt>
<pdfrwt beam="2">  1       -2 0.38332766E-01 0.99921839E+03</pdfrwt>
<totfact> 0.16104140E+02</totfact>
</mgrwt>
</event>
<event>
 6    1  0.8968082E-007  0.4625029E+04  0.7818608E-02  0.7889106E-01
         -2   -1    0    0    0  501 -0.00000000000E+00  0.00000000000E+00  0.16541126733E+04  0.16541126733E+04  0.00000000000E+00 0.  1.
          2   -1    0    0  501    0  0.00000000000E+00 -0.00000000000E+00 -0.32329866760E+04  0.32329866760E+04  0.00000000000E+00 0. -1.
         23    2    1    2    0    0 -0.12363001393E+04 -0.14349682954E+04  0.61058524259E+03  0.19920511925E+04  0.88778217909E+02 0.  0.
         13    1    3    3    0    0 -0.84098304619E+03 -0.10082996195E+04  0.38600886886E+03  0.13685479362E+04  0.00000000000E+00 0.  1.
        -13    1    3    3    0    0 -0.39531709312E+03 -0.42666867584E+03  0.22457637373E+03  0.62350325636E+03  0.00000000000E+00 0. -1.
         22    1    1    2    0    0  0.12363001393E+04  0.14349682954E+04 -0.21894592453E+04  0.28950481568E+04  0.00000000000E+00 0. -1.
<mgrwt>
<rscale>  0 0.46250294E+04</rscale>
<asrwt>0</asrwt>
<pdfrwt beam="1">  1        2 0.49738256E+00 0.46250294E+04</pdfrwt>
<pdfrwt beam="2">  1       -2 0.25447888E+00 0.46250294E+04</pdfrwt>
<totfact> 0.55759253E-02</totfact>
</mgrwt>
</event>
<event>
 6    1  0.8968082E-007  0.1660860E+04  0.7818608E-02  0.8784007E-01
          4   -1    0    0  501    0  0.00000000000E+00  0.00000000000E+00  0.39860872761E+03  0.39860872761E+03  0.00000000000E+00 0. -1.
         -4   -1    0    0    0  501 -0.00000000000E+00 -0.00000000000E+00 -0.17300530501E+04  0.17300530501E+04  0.00000000000E+00 0.  1.
         23    2    1    2    0    0  0.97440199607E+02 -0.32884971640E+03 -0.16335081956E+04  0.16716286149E+04  0.91413742599E+02 0.  0.
         11    1    3    3    0    0  0.27991190384E+02 -0.43881012136E+02 -0.41821984330E+03  0.42144618553E+03  0.00000000000E+00 0. -1.
        -11    1    3    3    0    0  0.69449009223E+02 -0.28496870427E+03 -0.12152883523E+04  0.12501824293E+04  0.00000000000E+00 0.  1.
         22    1    1    2    0    0 -0.97440199607E+02  0.32884971640E+03  0.30206387315E+03  0.45703316285E+03  0.00000000000E+00 0. -1.
<mgrwt>
<rscale>  0 0.16608603E+04</rscale>
<asrwt>0</asrwt>
<pdfrwt beam="1">  1        4 0.61324420E-01 0.16608603E+04</pdfrwt>
<pdfrwt beam="2">  1       -4 0.26616200E+00 0.16608603E+04</pdfrwt>
<totfact> 0.23993762E-01</totfact>
</mgrwt>
</event>
<event>
 6    1  0.8968082E-007  0.4353626E+04  0.7818608E-02  0.7936776E-01
         -2   -1    0    0    0  501 -0.00000000000E+00  0.00000000000E+00  0.17996736212E+04  0.17996736212E+04  0.00000000000E+00 0.  1.
          2   -1    0    0  501    0  0.00000000000E+00 -0.00000000000E+00 -0.26329853557E+04  0.26329853557E+04  0.00000000000E+00 0. -1.
         23    2    1    2    0    0  0.17612849454E+04 -0.12480664081E+04 -0.69395194122E+03  0.22695095207E+04  0.96487045009E+02 0.  0.
         11    1    3    3    0    0  0.48201339972E+03 -0.39455535476E+03 -0.19344472046E+03  0.65225125938E+03  0.00000000000E+00 0.  1.
        -11    1    3    3    0    0  0.12792715457E+04 -0.85351105330E+03 -0.50050722076E+03  0.16172582613E+04  0.00000000000E+00 0. -1.
         22    1    1    2    0    0 -0.17612849454E+04  0.12480664081E+04 -0.13935979332E+03  0.21631494562E+04  0.00000000000E+00 0.  1.
<mgrwt>
<rscale>  0 0.43536257E+04</rscale>
<asrwt>0</asrwt>
<pdfrwt beam="1">  1        2 0.40507467E+00 0.43536257E+04</pdfrwt>
<pdfrwt beam="2">  1       -2 0.27687287E+00 0.43536257E+04</pdfrwt>
<totfact> 0.98174063E-02</totfact>
</mgrwt>
</event>
<event>
 6    1  0.8968082E-007  0.2810086E+04  0.7818608E-02  0.8300144E-01
          2   -1    0    0  501    0  0.00000000000E+00  0.00000000000E+00  0.14555541904E+04  0.14555541904E+04  0.00000000000E+00 0. -1.
         -2   -1    0    0    0  501 -0.00000000000E+00 -0.00000000000E+00 -0.13562846818E+04  0.13562846818E+04  0.00000000000E+00 0.  1.
         23    2    1    2    0    0  0.55087211793E+03 -0.24925525031E+03  0.13171599552E+04  0.14521163233E+04  0.90239672879E+02 0.  0.
         11    1    3    3    0    0  0.35842521103E+03 -0.11403350184E+03  0.80777247971E+03  0.89104918519E+03  0.00000000000E+00 0. -1.
        -11    1    3    3    0    0  0.19244690690E+03 -0.13522174847E+03  0.50938747551E+03  0.56106713809E+03  0.00000000000E+00 0.  1.
         22    1    1    2    0    0 -0.55087211793E+03  0.24925525031E+03 -0.12178904466E+04  0.13597225489E+04  0.00000000000E+00 0.  1.
<mgrwt>
<rscale>  0 0.28100860E+04</rscale>
<asrwt>0</asrwt>
<pdfrwt beam="1">  1        2 0.22393141E+00 0.28100860E+04</pdfrwt>
<pdfrwt beam="2">  1       -2 0.20865918E+00 0.28100860E+04</pdfrwt>
<totfact> 0.13662804E+00</totfact>
</mgrwt>
</event>
<event>
 6    1  0.8968082E-007  0.1469270E+04  0.7818608E-02  0.8905149E-01
         -2   -1    0    0    0  501 -0.00000000000E+00  0.00000000000E+00  0.77268098654E+03  0.77268098654E+03  0.00000000000E+00 0.  1.
          2   -1    0    0  501    0  0.00000000000E+00 -0.00000000000E+00 -0.69846231822E+03  0.69846231822E+03  0.00000000000E+00 0. -1.
         23    2    1    2    0    0  0.11529448311E+03  0.41402139355E+03 -0.55577298966E+03  0.70851887474E+03  0.91699769226E+02 0.  0.
         13    1    3    3    0    0  0.12836542485E+03  0.37498151083E+03 -0.48193910041E+03  0.62398246150E+03  0.00000000000E+00 0. -1.
        -13    1    3    3    0    0 -0.13070941745E+02  0.39039882717E+02 -0.73833889250E+02  0.84536413234E+02  0.00000000000E+00 0.  1.
         22    1    1    2    0    0 -0.11529448311E+03 -0.41402139355E+03  0.62999165797E+03  0.76262443002E+03  0.00000000000E+00 0.  1.
<mgrwt>
<rscale>  0 0.14692700E+04</rscale>
<asrwt>0</asrwt>
<pdfrwt beam="1">  1        2 0.10745574E+00 0.14692700E+04</pdfrwt>
<pdfrwt beam="2">  1       -2 0.11887400E+00 0.14692700E+04</pdfrwt>
<totfact> 0.21626515E+01</totfact>
</mgrwt>
</event>
<event>
 6    1  0.8968082E-007  0.1657379E+04  0.7818608E-02  0.8786053E-01
         -2   -1    0    0    0  501 -0.00000000000E+00  0.00000000000E+00  0.29500067411E+03  0.29500067411E+03  0.00000000000E+00 0.  1.
          2   -1    0    0  501    0  0.00000000000E+00 -0.00000000000E+00 -0.23278791665E+04  0.23278791665E+04  0.00000000000E+00 0. -1.
         23    2    1    2    0    0  0.58118011440E+03 -0.53603100126E+03 -0.13986200825E+04  0.16092806643E+04  0.92447615454E+02 0.  0.
         11    1    3    3    0    0  0.25033047533E+03 -0.19078702550E+03 -0.48692347890E+03  0.57979264421E+03  0.00000000000E+00 0. -1.
        -11    1    3    3    0    0  0.33084963907E+03 -0.34524397576E+03 -0.91169660359E+03  0.10294880201E+04  0.00000000000E+00 0.  1.
         22    1    1    2    0    0 -0.58118011440E+03  0.53603100126E+03 -0.63425840986E+03  0.10135991763E+04  0.00000000000E+00 0.  1.
<mgrwt>
<rscale>  0 0.16573786E+04</rscale>
<asrwt>0</asrwt>
<pdfrwt beam="1">  1        2 0.35813527E+00 0.16573786E+04</pdfrwt>
<pdfrwt beam="2">  1       -2 0.45384718E-01 0.16573786E+04</pdfrwt>
<totfact> 0.19233518E+01</totfact>
</mgrwt>
</event>
<event>
 6    1  0.8968082E-007  0.1370851E+04  0.7818608E-02  0.8975192E-01
          2   -1    0    0  501    0  0.00000000000E+00  0.00000000000E+00  0.14454450987E+04  0.14454450987E+04  0.00000000000E+00 0. -1.
         -2   -1    0    0    0  501 -0.00000000000E+00 -0.00000000000E+00 -0.32502680648E+03  0.32502680648E+03  0.00000000000E+00 0.  1.
         23    2    1    2    0    0 -0.25481989814E+03 -0.54074369236E+03  0.98774758857E+03  0.11581497376E+04  0.91261134334E+02 0.  0.
         13    1    3    3    0    0 -0.22241723951E+03 -0.38311510458E+03  0.69792672918E+03  0.82664885598E+03  0.00000000000E+00 0.  1.
        -13    1    3    3    0    0 -0.32402658636E+02 -0.15762858778E+03  0.28982085939E+03  0.33150088161E+03  0.00000000000E+00 0. -1.
         22    1    1    2    0    0  0.25481989814E+03  0.54074369236E+03  0.13267070364E+03  0.61232216759E+03  0.00000000000E+00 0.  1.
<mgrwt>
<rscale>  0 0.13708514E+04</rscale>
<asrwt>0</asrwt>
<pdfrwt beam="1">  1        2 0.22237617E+00 0.13708514E+04</pdfrwt>
<pdfrwt beam="2">  1       -2 0.50004125E-01 0.13708514E+04</pdfrwt>
<totfact> 0.50290807E+01</totfact>
</mgrwt>
</event>
<event>
 6    1  0.8968082E-007  0.2876338E+04  0.7818608E-02  0.8279952E-01
         -2   -1    0    0    0  501 -0.00000000000E+00  0.00000000000E+00  0.72350413902E+03  0.72350413902E+03  0.00000000000E+00 0.  1.
          2   -1    0    0  501    0  0.00000000000E+00 -0.00000000000E+00 -0.28587682731E+04  0.28587682731E+04  0.00000000000E+00 0. -1.
         23    2    1    2    0    0 -0.82520528503E+03  0.11759612279E+04 -0.10749770271E+04  0.17967592307E+04  0.94443382042E+02 0.  0.
         11    1    3    3    0    0 -0.44364531298E+03  0.69204562600E+03 -0.65376929952E+03  0.10503154808E+04  0.00000000000E+00 0. -1.
        -11    1    3    3    0    0 -0.38155997205E+03  0.48391560185E+03 -0.42120772761E+03  0.74644374991E+03  0.00000000000E+00 0.  1.
         22    1    1    2    0    0  0.82520528503E+03 -0.11759612279E+04 -0.10602871070E+04  0.17855131814E+04  0.00000000000E+00 0.  1.
<mgrwt>
<rscale>  0 0.28763384E+04</rscale>
<asrwt>0</asrwt>
<pdfrwt beam="1">  1        2 0.43981051E+00 0.28763384E+04</pdfrwt>
<pdfrwt beam="2">  1       -2 0.11130833E+00 0.28763384E+04</pdfrwt>
<totfact> 0.11751950E+00</totfact>
</mgrwt>
</event>
<event>
 6    1  0.8968082E-007  0.2170720E+04  0.7818608E-02  0.8530715E-01
         -2   -1    0    0    0  501 -0.00000000000E+00  0.00000000000E+00  0.39894927441E+03  0.39894927441E+03  0.00000000000E+00 0.  1.
          2   -1    0    0  501    0  0.00000000000E+00 -0.00000000000E+00 -0.29527720482E+04  0.29527720482E+04  0.00000000000E+00 0. -1.
         23    2    1    2    0    0 -0.53042824600E+03 -0.26849812253E+03 -0.26776731881E+04  0.27444451984E+04  0.92738227144E+02 0.  0.
         11    1    3    3    0    0 -0.28942405194E+03 -0.99716723463E+02 -0.14572206927E+04  0.14890271502E+04  0.00000000000E+00 0. -1.
        -11    1    3    3    0    0 -0.24100419405E+03 -0.16878139906E+03 -0.12204524954E+04  0.12554180482E+04  0.00000000000E+00 0.  1.
         22    1    1    2    0    0  0.53042824600E+03  0.26849812253E+03  0.12385041428E+03  0.60727612424E+03  0.00000000000E+00 0.  1.
<mgrwt>
<rscale>  0 0.21707199E+04</rscale>
<asrwt>0</asrwt>
<pdfrwt beam="1">  1        2 0.45427263E+00 0.21707199E+04</pdfrwt>
<pdfrwt beam="2">  1       -2 0.61376810E-01 0.21707199E+04</pdfrwt>
<totfact> 0.42194494E+00</totfact>
</mgrwt>
</event>
<event>
 6    1  0.8968082E-007  0.1529241E+04  0.7818608E-02  0.8865237E-01
         -2   -1    0    0    0  501 -0.00000000000E+00  0.00000000000E+00  0.87222813721E+03  0.87222813721E+03  0.00000000000E+00 0.  1.
          2   -1    0    0  501    0  0.00000000000E+00 -0.00000000000E+00 -0.67028889364E+03  0.67028889364E+03  0.00000000000E+00 0. -1.
         23    2    1    2    0    0  0.51824940761E+03  0.52021883771E+03  0.30303206563E+03  0.80128167939E+03  0.10494669757E+03 0.  0.
         11    1    3    3    0    0  0.30739147258E+03  0.23915337382E+03  0.13917810040E+03  0.41358723052E+03  0.00000000000E+00 0.  1.
        -11    1    3    3    0    0  0.21085793503E+03  0.28106546389E+03  0.16385396524E+03  0.38769444886E+03  0.00000000000E+00 0. -1.
         22    1    1    2    0    0 -0.51824940761E+03 -0.52021883771E+03 -0.10109282206E+03  0.74123535147E+03  0.00000000000E+00 0. -1.
<mgrwt>
<rscale>  0 0.15292414E+04</rscale>
<asrwt>0</asrwt>
<pdfrwt beam="1">  1        2 0.10312137E+00 0.15292414E+04</pdfrwt>
<pdfrwt beam="2">  1       -2 0.13418895E+00 0.15292414E+04</pdfrwt>
<totfact> 0.16707728E+01</totfact>
</mgrwt>
</event>
<event>
 6    1  0.8968082E-007  0.1804192E+04  0.7818608E-02  0.8704073E-01
          1   -1    0    0  501    0  0.00000000000E+00  0.00000000000E+00  0.33429871122E+04  0.33429871122E+04  0.00000000000E+00 0. -1.
         -1   -1    0    0    0  501 -0.00000000000E+00 -0.00000000000E+00 -0.24342814511E+03  0.24342814511E+03  0.00000000000E+00 0.  1.
         23    2    1    2    0    0 -0.13683696867E+03 -0.76359715875E+03  0.24600473273E+04  0.25810396488E+04  0.90154528396E+02 0.  0.
         13    1    3    3    0    0 -0.55384151895E+02 -0.30065503142E+03  0.11184782953E+04  0.11595061661E+04  0.00000000000E+00 0. -1.
        -13    1    3    3    0    0 -0.81452816775E+02 -0.46294212733E+03  0.13415690320E+04  0.14215334826E+04  0.00000000000E+00 0.  1.
         22    1    1    2    0    0  0.13683696867E+03  0.76359715875E+03  0.63951163973E+03  0.10053756085E+04  0.00000000000E+00 0. -1.
<mgrwt>
<rscale>  0 0.18041920E+04</rscale>
<asrwt>0</asrwt>
<pdfrwt beam="1">  1        1 0.51430568E+00 0.18041920E+04</pdfrwt>
<pdfrwt beam="2">  1       -1 0.37450486E-01 0.18041920E+04</pdfrwt>
<totfact> 0.21562090E+00</totfact>
</mgrwt>
</event>
<event>
 6    1  0.8968082E-007  0.3511343E+04  0.7818608E-02  0.8111107E-01
          2   -1    0    0  501    0  0.00000000000E+00  0.00000000000E+00  0.29913267186E+04  0.29913267186E+04  0.00000000000E+00 0. -1.
         -2   -1    0    0    0  501 -0.00000000000E+00 -0.00000000000E+00 -0.10304400813E+04  0.10304400813E+04  0.00000000000E+00 0.  1.
         23    2    1    2    0    0  0.25268455408E+03 -0.15985136056E+04  0.20577818879E+03  0.16344040505E+04  0.99180170328E+02 0.  0.
         13    1    3    3    0    0  0.13484950925E+03 -0.10753833631E+04  0.10615887917E+03  0.10889919538E+04  0.00000000000E+00 0. -1.
        -13    1    3    3    0    0  0.11783504483E+03 -0.52313024248E+03  0.99619309615E+02  0.54541209671E+03  0.00000000000E+00 0.  1.
         22    1    1    2    0    0 -0.25268455408E+03  0.15985136056E+04  0.17551084485E+04  0.23873627494E+04  0.00000000000E+00 0. -1.
<mgrwt>
<rscale>  0 0.35113433E+04</rscale>
<asrwt>0</asrwt>
<pdfrwt beam="1">  1        2 0.46020411E+00 0.35113433E+04</pdfrwt>
<pdfrwt beam="2">  1       -2 0.15852924E+00 0.35113433E+04</pdfrwt>
<totfact> 0.37360861E-01</totfact>
</mgrwt>
</event>
<event>
 6    1  0.8968082E-007  0.2149382E+04  0.7818608E-02  0.8539797E-01
         -1   -1    0    0    0  501 -0.00000000000E+00  0.00000000000E+00  0.21034325795E+04  0.21034325795E+04  0.00000000000E+00 0.  1.
          1   -1    0    0  501    0  0.00000000000E+00 -0.00000000000E+00 -0.54908400691E+03  0.54908400691E+03  0.00000000000E+00 0. -1.
         23    2    1    2    0    0 -0.42501336751E+03  0.98360883850E+03  0.84295262220E+03  0.13663568343E+04  0.90769849293E+02 0.  0.
         13    1    3    3    0    0 -0.20152308141E+02  0.70290108209E+02  0.32907576649E+02  0.80185556282E+02  0.00000000000E+00 0. -1.
        -13    1    3    3    0    0 -0.40486105937E+03  0.91331873029E+03  0.81004504555E+03  0.12861712780E+04  0.00000000000E+00 0.  1.
         22    1    1    2    0    0  0.42501336751E+03 -0.98360883850E+03  0.71139595035E+03  0.12861597521E+04  0.00000000000E+00 0. -1.
<mgrwt>
<rscale>  0 0.21493824E+04</rscale>
<asrwt>0</asrwt>
<pdfrwt beam="1">  1        1 0.84474464E-01 0.21493824E+04</pdfrwt>
<pdfrwt beam="2">  1       -1 0.32360501E+00 0.21493824E+04</pdfrwt>
<totfact> 0.82608461E-01</totfact>
</mgrwt>
</event>
<event>
 6    1  0.8968082E-007  0.3836013E+04  0.7818608E-02  0.8038470E-01
         -2   -1    0    0    0  501 -0.00000000000E+00  0.00000000000E+00  0.33862199594E+04  0.33862199594E+04  0.00000000000E+00 0.  1.
          2   -1    0    0  501    0  0.00000000000E+00 -0.00000000000E+00 -0.10863881889E+04  0.10863881889E+04  0.00000000000E+00 0. -1.
         23    2    1    2    0    0  0.12358167826E+04 -0.11249817689E+04  0.22451752805E+04  0.28005392406E+04  0.96855033290E+02 0.  0.
         13    1    3    3    0    0  0.22062995886E+03 -0.23175143293E+03  0.48212494535E+03  0.57864563278E+03  0.00000000000E+00 0.  1.
        -13    1    3    3    0    0  0.10151868237E+04 -0.89323033594E+03  0.17630503352E+04  0.22218936078E+04  0.00000000000E+00 0. -1.
         22    1    1    2    0    0 -0.12358167826E+04  0.11249817689E+04  0.54656489969E+02  0.16720689078E+04  0.00000000000E+00 0.  1.
<mgrwt>
<rscale>  0 0.38360132E+04</rscale>
<asrwt>0</asrwt>
<pdfrwt beam="1">  1        2 0.16713665E+00 0.38360132E+04</pdfrwt>
<pdfrwt beam="2">  1       -2 0.52095691E+00 0.38360132E+04</pdfrwt>
<totfact> 0.21907774E-02</totfact>
</mgrwt>
</event>
<event>
 6    1  0.8968082E-007  0.1023035E+04  0.7818608E-02  0.9283636E-01
          2   -1    0    0  501    0  0.00000000000E+00  0.00000000000E+00  0.22485996242E+04  0.22485996242E+04  0.00000000000E+00 0. -1.
         -2   -1    0    0    0  501 -0.00000000000E+00 -0.00000000000E+00 -0.11636126653E+03  0.11636126653E+03  0.00000000000E+00 0.  1.
         23    2    1    2    0    0  0.39791519290E+03 -0.72852939661E+02  0.17825063450E+04  0.18302118540E+04  0.93287239961E+02 0.  0.
         11    1    3    3    0    0  0.34233970789E+03 -0.95063406968E+02  0.15281775939E+04  0.15689360362E+04  0.00000000000E+00 0. -1.
        -11    1    3    3    0    0  0.55575485012E+02  0.22210467306E+02  0.25432875101E+03  0.26127581783E+03  0.00000000000E+00 0.  1.
         22    1    1    2    0    0 -0.39791519290E+03  0.72852939661E+02  0.34973201270E+03  0.53474903671E+03  0.00000000000E+00 0.  1.
<mgrwt>
<rscale>  0 0.10230345E+04</rscale>
<asrwt>0</asrwt>
<pdfrwt beam="1">  1        2 0.34593837E+00 0.10230345E+04</pdfrwt>
<pdfrwt beam="2">  1       -2 0.17901735E-01 0.10230345E+04</pdfrwt>
<totfact> 0.12624838E+02</totfact>
</mgrwt>
</event>
<event>
 6    1  0.8968082E-007  0.1206327E+04  0.7818608E-02  0.9107337E-01
         -1   -1    0    0    0  501 -0.00000000000E+00  0.00000000000E+00  0.52878330416E+03  0.52878330416E+03  0.00000000000E+00 0.  1.
          1   -1    0    0  501    0  0.00000000000E+00 -0.00000000000E+00 -0.68800586482E+03  0.68800586482E+03  0.00000000000E+00 0. -1.
         23    2    1    2    0    0 -0.48141185511E+03 -0.42097078618E+02 -0.43842956335E+03  0.65867978129E+03  0.90050174857E+02 0.  0.
         13    1    3    3    0    0 -0.83839676159E+02  0.17195835398E+02 -0.47132238322E+02  0.97704840938E+02  0.00000000000E+00 0.  1.
        -13    1    3    3    0    0 -0.39757217896E+03 -0.59292914017E+02 -0.39129732503E+03  0.56097494036E+03  0.00000000000E+00 0. -1.
         22    1    1    2    0    0  0.48141185511E+03  0.42097078618E+02  0.27920700268E+03  0.55810938768E+03  0.00000000000E+00 0.  1.
<mgrwt>
<rscale>  0 0.12063267E+04</rscale>
<asrwt>0</asrwt>
<pdfrwt beam="1">  1        1 0.10584706E+00 0.12063267E+04</pdfrwt>
<pdfrwt beam="2">  1       -1 0.81351277E-01 0.12063267E+04</pdfrwt>
<totfact> 0.41662965E+01</totfact>
</mgrwt>
</event>
<event>
 6    1  0.8968082E-007  0.1188401E+04  0.7818608E-02  0.9123070E-01
          1   -1    0    0  501    0  0.00000000000E+00  0.00000000000E+00  0.30576220534E+03  0.30576220534E+03  0.00000000000E+00 0. -1.
         -1   -1    0    0    0  501 -0.00000000000E+00 -0.00000000000E+00 -0.11547351544E+04  0.11547351544E+04  0.00000000000E+00 0.  1.
         23    2    1    2    0    0  0.45501867294E+03  0.18087297561E+03 -0.83276581737E+03  0.97057930824E+03  0.93638992824E+02 0.  0.
         11    1    3    3    0    0  0.17491599640E+03  0.83055292901E+02 -0.24596480043E+03  0.31303749061E+03  0.00000000000E+00 0.  1.
        -11    1    3    3    0    0  0.28010267654E+03  0.97817682709E+02 -0.58680101694E+03  0.65754181763E+03  0.00000000000E+00 0. -1.
         22    1    1    2    0    0 -0.45501867294E+03 -0.18087297561E+03 -0.16207131649E+02  0.48991805146E+03  0.00000000000E+00 0. -1.
<mgrwt>
<rscale>  0 0.11884012E+04</rscale>
<asrwt>0</asrwt>
<pdfrwt beam="1">  1        1 0.47040340E-01 0.11884012E+04</pdfrwt>
<pdfrwt beam="2">  1       -1 0.17765156E+00 0.11884012E+04</pdfrwt>
<totfact> 0.18330962E+01</totfact>
</mgrwt>
</event>
<event>
 6    1  0.8968082E-007  0.6961284E+03  0.7818608E-02  0.9723876E-01
         -2   -1    0    0    0  501 -0.00000000000E+00  0.00000000000E+00  0.83610363890E+02  0.83610363890E+02  0.00000000000E+00 0.  1.
          2   -1    0    0  501    0  0.00000000000E+00 -0.00000000000E+00 -0.14489675236E+04  0.14489675236E+04  0.00000000000E+00 0. -1.
         23    2    1    2    0    0 -0.17587910175E+03 -0.29188998427E+03 -0.75980525171E+03  0.83772082691E+03  0.91317807464E+02 0.  0.
         11    1    3    3    0    0 -0.16470342615E+03 -0.25546998797E+03 -0.72491363122E+03  0.78606100659E+03  0.00000000000E+00 0. -1.
        -11    1    3    3    0    0 -0.11175675591E+02 -0.36419996301E+02 -0.34891620484E+02  0.51659820320E+02  0.00000000000E+00 0.  1.
         22    1    1    2    0    0  0.17587910175E+03  0.29188998427E+03 -0.60555190797E+03  0.69485706055E+03  0.00000000000E+00 0. -1.
<mgrwt>
<rscale>  0 0.69612844E+03</rscale>
<asrwt>0</asrwt>
<pdfrwt beam="1">  1        2 0.22291808E+00 0.69612844E+03</pdfrwt>
<pdfrwt beam="2">  1       -2 0.12863133E-01 0.69612844E+03</pdfrwt>
<totfact> 0.62400336E+02</totfact>
</mgrwt>
</event>
<event>
 6    1  0.8968082E-007  0.2563752E+04  0.7818608E-02  0.8380619E-01
         -1   -1    0    0    0  501 -0.00000000000E+00  0.00000000000E+00  0.10081425732E+04  0.10081425732E+04  0.00000000000E+00 0.  1.
          1   -1    0    0  501    0  0.00000000000E+00 -0.00000000000E+00 -0.16299345191E+04  0.16299345191E+04  0.00000000000E+00 0. -1.
         23    2    1    2    0    0 -0.10288730141E+03 -0.10508834059E+04  0.43275989268E+03  0.11457563124E+04  0.10263855529E+03 0.  0.
         13    1    3    3    0    0 -0.96502809478E+02 -0.65050705346E+03  0.30927669079E+03  0.72672160440E+03  0.00000000000E+00 0. -1.
        -13    1    3    3    0    0 -0.63844919345E+01 -0.40037635247E+03  0.12348320189E+03  0.41903470799E+03  0.00000000000E+00 0.  1.
         22    1    1    2    0    0  0.10288730141E+03  0.10508834059E+04 -0.10545518386E+04  0.14923207798E+04  0.00000000000E+00 0. -1.
<mgrwt>
<rscale>  0 0.25637522E+04</rscale>
<asrwt>0</asrwt>
<pdfrwt beam="1">  1        1 0.25075915E+00 0.25637522E+04</pdfrwt>
<pdfrwt beam="2">  1       -1 0.15509886E+00 0.25637522E+04</pdfrwt>
<totfact> 0.14980200E+00</totfact>
</mgrwt>
</event>
<event>
 6    1  0.8968082E-007  0.3717265E+04  0.7818608E-02  0.8064146E-01
          2   -1    0    0  501    0  0.00000000000E+00  0.00000000000E+00  0.83494742385E+03  0.83494742385E+03  0.00000000000E+00 0. -1.
         -2   -1    0    0    0  501 -0.00000000000E+00 -0.00000000000E+00 -0.41374037636E+04  0.41374037636E+04  0.00000000000E+00 0.  1.
         23    2    1    2    0    0  0.41266815341E+03  0.13469602829E+04 -0.32803028703E+02  0.14121222927E+04  0.91740516983E+02 0.  0.
         11    1    3    3    0    0  0.42506708401E+02  0.67670273405E+02 -0.49070206803E+01  0.80063506130E+02  0.00000000000E+00 0. -1.
        -11    1    3    3    0    0  0.37016144501E+03  0.12792900095E+04 -0.27896008023E+02  0.13320587866E+04  0.00000000000E+00 0.  1.
         22    1    1    2    0    0 -0.41266815341E+03 -0.13469602829E+04 -0.32696533110E+04  0.35602288947E+04  0.00000000000E+00 0.  1.
<mgrwt>
<rscale>  0 0.37172649E+04</rscale>
<asrwt>0</asrwt>
<pdfrwt beam="1">  1        2 0.12845345E+00 0.37172649E+04</pdfrwt>
<pdfrwt beam="2">  1       -2 0.63652366E+00 0.37172649E+04</pdfrwt>
<totfact> 0.97516625E-03</totfact>
</mgrwt>
</event>
<event>
 6    1  0.8968082E-007  0.1687232E+04  0.7818608E-02  0.8768680E-01
         -1   -1    0    0    0  501 -0.00000000000E+00  0.00000000000E+00  0.16879240563E+04  0.16879240563E+04  0.00000000000E+00 0.  1.
          1   -1    0    0  501    0  0.00000000000E+00 -0.00000000000E+00 -0.42163492651E+03  0.42163492651E+03  0.00000000000E+00 0. -1.
         23    2    1    2    0    0 -0.67362679481E+03 -0.45627693033E+03  0.36823245201E+03  0.89775557781E+03  0.91696471826E+02 0.  0.
         11    1    3    3    0    0 -0.43180282105E+03 -0.33580299417E+03  0.27249486459E+03  0.61112255594E+03  0.00000000000E+00 0. -1.
        -11    1    3    3    0    0 -0.24182397376E+03 -0.12047393616E+03  0.95737587423E+02  0.28663302187E+03  0.00000000000E+00 0.  1.
         22    1    1    2    0    0  0.67362679481E+03  0.45627693033E+03  0.89805667775E+03  0.12118034050E+04  0.00000000000E+00 0.  1.
<mgrwt>
<rscale>  0 0.16872317E+04</rscale>
<asrwt>0</asrwt>
<pdfrwt beam="1">  1        1 0.64866913E-01 0.16872317E+04</pdfrwt>
<pdfrwt beam="2">  1       -1 0.25968062E+00 0.16872317E+04</pdfrwt>
<totfact> 0.32124992E+00</totfact>
</mgrwt>
</event>
<event>
 6    1  0.8968082E-007  0.2050457E+04  0.7818608E-02  0.8583387E-01
         -2   -1    0    0    0  501 -0.00000000000E+00  0.00000000000E+00  0.43212337214E+03  0.43212337214E+03  0.00000000000E+00 0.  1.
          2   -1    0    0  501    0  0.00000000000E+00 -0.00000000000E+00 -0.24323927549E+04  0.24323927549E+04  0.00000000000E+00 0. -1.
         23    2    1    2    0    0  0.33132537413E+03 -0.65722280750E+03 -0.19950752260E+04  0.21284826350E+04  0.91623402321E+02 0.  0.
         11    1    3    3    0    0  0.26726222382E+03 -0.50007999292E+03 -0.14243681833E+04  0.15330798470E+04  0.00000000000E+00 0.  1.
        -11    1    3    3    0    0  0.64063150312E+02 -0.15714281459E+03 -0.57070704269E+03  0.59540278802E+03  0.00000000000E+00 0. -1.
         22    1    1    2    0    0 -0.33132537413E+03  0.65722280750E+03 -0.51941568271E+01  0.73603349211E+03  0.00000000000E+00 0.  1.
<mgrwt>
<rscale>  0 0.20504573E+04</rscale>
<asrwt>0</asrwt>
<pdfrwt beam="1">  1        2 0.37421427E+00 0.20504573E+04</pdfrwt>
<pdfrwt beam="2">  1       -2 0.66480518E-01 0.20504573E+04</pdfrwt>
<totfact> 0.73308608E+00</totfact>
</mgrwt>
</event>
<event>
 6    1  0.8968082E-007  0.1948086E+04  0.7818608E-02  0.8631284E-01
         -2   -1    0    0    0  501 -0.00000000000E+00  0.00000000000E+00  0.35314744946E+03  0.35314744946E+03  0.00000000000E+00 0.  1.
          2   -1    0    0  501    0  0.00000000000E+00 -0.00000000000E+00 -0.26865829447E+04  0.26865829447E+04  0.00000000000E+00 0. -1.
         23    2    1    2    0    0  0.24334748525E+02 -0.84423756915E+03 -0.19196915705E+04  0.20992447279E+04  0.91013452959E+02 0.  0.
         11    1    3    3    0    0  0.44625956491E+02 -0.27733113463E+03 -0.58191256190E+03  0.64616272248E+03  0.00000000000E+00 0.  1.
        -11    1    3    3    0    0 -0.20291207966E+02 -0.56690643452E+03 -0.13377790086E+04  0.14530820054E+04  0.00000000000E+00 0. -1.
         22    1    1    2    0    0 -0.24334748525E+02  0.84423756915E+03 -0.41374392468E+03  0.94048566622E+03  0.00000000000E+00 0.  1.
<mgrwt>
<rscale>  0 0.19480862E+04</rscale>
<asrwt>0</asrwt>
<pdfrwt beam="1">  1        2 0.41332045E+00 0.19480862E+04</pdfrwt>
<pdfrwt beam="2">  1       -2 0.54330377E-01 0.19480862E+04</pdfrwt>
<totfact> 0.80583030E+00</totfact>
</mgrwt>
</event>
<event>
 6    1  0.8968082E-007  0.5277310E+03  0.7818608E-02  0.1006784E+00
         -2   -1    0    0    0  501 -0.00000000000E+00  0.00000000000E+00  0.59851663630E+02  0.59851663630E+02  0.00000000000E+00 0.  1.
          2   -1    0    0  501    0  0.00000000000E+00 -0.00000000000E+00 -0.11632927119E+04  0.11632927119E+04  0.00000000000E+00 0. -1.
         23    2    1    2    0    0 -0.44888358556E+02 -0.19409082661E+03 -0.18235624860E+03  0.28076259414E+03  0.76730822735E+02 0.  0.
         13    1    3    3    0    0  0.18213508691E+01 -0.14111339817E+03 -0.13786193842E+03  0.19728715753E+03  0.00000000000E+00 0. -1.
        -13    1    3    3    0    0 -0.46709709425E+02 -0.52977428439E+02 -0.44494310178E+02  0.83475436608E+02  0.00000000000E+00 0.  1.
         22    1    1    2    0    0  0.44888358556E+02  0.19409082661E+03 -0.92108479966E+03  0.94238178138E+03  0.00000000000E+00 0. -1.
<mgrwt>
<rscale>  0 0.52773101E+03</rscale>
<asrwt>0</asrwt>
<pdfrwt beam="1">  1        2 0.17896811E+00 0.52773101E+03</pdfrwt>
<pdfrwt beam="2">  1       -2 0.92079484E-02 0.52773101E+03</pdfrwt>
<totfact> 0.15807795E+03</totfact>
</mgrwt>
</event>
<event>
 6    1  0.8968082E-007  0.1415483E+04  0.7818608E-02  0.8942687E-01
         -2   -1    0    0    0  501 -0.00000000000E+00  0.00000000000E+00  0.16263532672E+03  0.16263532672E+03  0.00000000000E+00 0.  1.
          2   -1    0    0  501    0  0.00000000000E+00 -0.00000000000E+00 -0.30798853961E+04  0.30798853961E+04  0.00000000000E+00 0. -1.
         23    2    1    2    0    0 -0.65113186770E+03  0.23551958606E+03 -0.17653728403E+04  0.18985477560E+04  0.92196161325E+02 0.  0.
         13    1    3    3    0    0 -0.80560446076E+02  0.62862847983E+02 -0.27562411662E+03  0.29395641988E+03  0.00000000000E+00 0. -1.
        -13    1    3    3    0    0 -0.57057142162E+03  0.17265673808E+03 -0.14897487237E+04  0.16045913362E+04  0.00000000000E+00 0.  1.
         22    1    1    2    0    0  0.65113186770E+03 -0.23551958606E+03 -0.11518772291E+04  0.13439729668E+04  0.00000000000E+00 0.  1.
<mgrwt>
<rscale>  0 0.14154832E+04</rscale>
<asrwt>0</asrwt>
<pdfrwt beam="1">  1        2 0.47382855E+00 0.14154832E+04</pdfrwt>
<pdfrwt beam="2">  1       -2 0.25020818E-01 0.14154832E+04</pdfrwt>
<totfact> 0.21801685E+01</totfact>
</mgrwt>
</event>
<event>
 6    1  0.8968082E-007  0.5647109E+04  0.7818608E-02  0.7735765E-01
          2   -1    0    0  501    0  0.00000000000E+00  0.00000000000E+00  0.34635121404E+04  0.34635121404E+04  0.00000000000E+00 0. -1.
         -2   -1    0    0    0  501 -0.00000000000E+00 -0.00000000000E+00 -0.23018428708E+04  0.23018428708E+04  0.00000000000E+00 0.  1.
         23    2    1    2    0    0  0.25968417282E+04 -0.41752073120E+03 -0.46537859873E+03  0.26725900204E+04  0.90827608648E+02 0.  0.
         13    1    3    3    0    0  0.21509502169E+04 -0.32445876847E+03 -0.41224084334E+03  0.22140015449E+04  0.00000000000E+00 0. -1.
        -13    1    3    3    0    0  0.44589151133E+03 -0.93061962726E+02 -0.53137755387E+02  0.45858847547E+03  0.00000000000E+00 0.  1.
         22    1    1    2    0    0 -0.25968417282E+04  0.41752073120E+03  0.16270478683E+04  0.30927649908E+04  0.00000000000E+00 0.  1.
<mgrwt>
<rscale>  0 0.56471093E+04</rscale>
<asrwt>0</asrwt>
<pdfrwt beam="1">  1        2 0.53284802E+00 0.56471093E+04</pdfrwt>
<pdfrwt beam="2">  1       -2 0.35412967E+00 0.56471093E+04</pdfrwt>
<totfact> 0.87212218E-03</totfact>
</mgrwt>
</event>
<event>
 6    1  0.8968082E-007  0.1307341E+04  0.7818608E-02  0.9023764E-01
         -2   -1    0    0    0  501 -0.00000000000E+00  0.00000000000E+00  0.24241406884E+03  0.24241406884E+03  0.00000000000E+00 0.  1.
          2   -1    0    0  501    0  0.00000000000E+00 -0.00000000000E+00 -0.17626259948E+04  0.17626259948E+04  0.00000000000E+00 0. -1.
         23    2    1    2    0    0 -0.37192023618E+03  0.33242756947E+03 -0.14041011014E+04  0.14928736116E+04  0.91317940610E+02 0.  0.
         11    1    3    3    0    0 -0.12205967501E+03  0.16044426452E+03 -0.62980111110E+03  0.66127934023E+03  0.00000000000E+00 0.  1.
        -11    1    3    3    0    0 -0.24986056117E+03  0.17198330495E+03 -0.77429999030E+03  0.83159427138E+03  0.00000000000E+00 0. -1.
         22    1    1    2    0    0  0.37192023618E+03 -0.33242756947E+03 -0.11611082460E+03  0.51216645206E+03  0.00000000000E+00 0.  1.
<mgrwt>
<rscale>  0 0.13073413E+04</rscale>
<asrwt>0</asrwt>
<pdfrwt beam="1">  1        2 0.27117323E+00 0.13073413E+04</pdfrwt>
<pdfrwt beam="2">  1       -2 0.37294472E-01 0.13073413E+04</pdfrwt>
<totfact> 0.60109977E+01</totfact>
</mgrwt>
</event>
<event>
 6    1  0.8968082E-007  0.3741708E+04  0.7818608E-02  0.8058781E-01
         -1   -1    0    0    0  501 -0.00000000000E+00  0.00000000000E+00  0.11316193491E+04  0.11316193491E+04  0.00000000000E+00 0.  1.
          1   -1    0    0  501    0  0.00000000000E+00 -0.00000000000E+00 -0.30929959779E+04  0.30929959779E+04  0.00000000000E+00 0. -1.
         23    2    1    2    0    0  0.46827483737E+03 -0.16930155053E+04 -0.17044810741E+04  0.24493468542E+04  0.91986170779E+02 0.  0.
         13    1    3    3    0    0  0.42766326632E+03 -0.14219253238E+04 -0.14438794264E+04  0.20711241618E+04  0.00000000000E+00 0.  1.
        -13    1    3    3    0    0  0.40611571058E+02 -0.27109018150E+03 -0.26060164773E+03  0.37822269235E+03  0.00000000000E+00 0. -1.
         22    1    1    2    0    0 -0.46827483737E+03  0.16930155053E+04 -0.25689555461E+03  0.17752684728E+04  0.00000000000E+00 0.  1.
<mgrwt>
<rscale>  0 0.37417077E+04</rscale>
<asrwt>0</asrwt>
<pdfrwt beam="1">  1        1 0.47584554E+00 0.37417077E+04</pdfrwt>
<pdfrwt beam="2">  1       -1 0.17409528E+00 0.37417077E+04</pdfrwt>
<totfact> 0.93699972E-02</totfact>
</mgrwt>
</event>
<event>
 6    1  0.8968082E-007  0.8838563E+03  0.7818608E-02  0.9445990E-01
          2   -1    0    0  501    0  0.00000000000E+00  0.00000000000E+00  0.19920209285E+04  0.19920209285E+04  0.00000000000E+00 0. -1.
         -2   -1    0    0    0  501 -0.00000000000E+00 -0.00000000000E+00 -0.98041388351E+02  0.98041388351E+02  0.00000000000E+00 0.  1.
         23    2    1    2    0    0 -0.40286739493E+03 -0.83448455686E+02  0.60702972653E+03  0.73894958823E+03  0.91080307494E+02 0.  0.
         13    1    3    3    0    0 -0.37095560698E+02  0.13120642190E+01  0.20131268682E+02  0.42226414894E+02  0.00000000000E+00 0.  1.
        -13    1    3    3    0    0 -0.36577183423E+03 -0.84760519905E+02  0.58689845784E+03  0.69672317334E+03  0.00000000000E+00 0. -1.
         22    1    1    2    0    0  0.40286739493E+03  0.83448455686E+02  0.12869498137E+04  0.13511127287E+04  0.00000000000E+00 0. -1.
<mgrwt>
<rscale>  0 0.88385632E+03</rscale>
<asrwt>0</asrwt>
<pdfrwt beam="1">  1        2 0.30646473E+00 0.88385632E+03</pdfrwt>
<pdfrwt beam="2">  1       -2 0.15083292E-01 0.88385632E+03</pdfrwt>
<totfact> 0.23729176E+02</totfact>
</mgrwt>
</event>
<event>
 6    1  0.8968082E-007  0.2408469E+04  0.7818608E-02  0.8436340E-01
          2   -1    0    0  501    0  0.00000000000E+00  0.00000000000E+00  0.22145099843E+04  0.22145099843E+04  0.00000000000E+00 0. -1.
         -2   -1    0    0    0  501 -0.00000000000E+00 -0.00000000000E+00 -0.65485384329E+03  0.65485384329E+03  0.00000000000E+00 0.  1.
         23    2    1    2    0    0  0.50766630787E+03  0.12820875181E+03 -0.50875642382E+03  0.73570661461E+03  0.90931621600E+02 0.  0.
         13    1    3    3    0    0  0.14757301263E+03  0.15933009432E+02 -0.19508784917E+03  0.24513450133E+03  0.00000000000E+00 0. -1.
        -13    1    3    3    0    0  0.36009329524E+03  0.11227574238E+03 -0.31366857465E+03  0.49057211328E+03  0.00000000000E+00 0.  1.
         22    1    1    2    0    0 -0.50766630787E+03 -0.12820875181E+03  0.20684125648E+04  0.21336572129E+04  0.00000000000E+00 0. -1.
<mgrwt>
<rscale>  0 0.24084687E+04</rscale>
<asrwt>0</asrwt>
<pdfrwt beam="1">  1        2 0.34069384E+00 0.24084687E+04</pdfrwt>
<pdfrwt beam="2">  1       -2 0.10074675E+00 0.24084687E+04</pdfrwt>
<totfact> 0.36949780E+00</totfact>
</mgrwt>
</event>
<event>
 6    1  0.8968082E-007  0.2646000E+04  0.7818608E-02  0.8352742E-01
         -1   -1    0    0    0  501 -0.00000000000E+00  0.00000000000E+00  0.10959375996E+04  0.10959375996E+04  0.00000000000E+00 0.  1.
          1   -1    0    0  501    0  0.00000000000E+00 -0.00000000000E+00 -0.15971063808E+04  0.15971063808E+04  0.00000000000E+00 0. -1.
         23    2    1    2    0    0 -0.77397572826E+03 -0.48115714459E+03  0.72304900921E+03  0.11668527000E+04  0.90524737404E+02 0.  0.
         13    1    3    3    0    0 -0.35095170150E+03 -0.16554336544E+03  0.30434578622E+03  0.49315115351E+03  0.00000000000E+00 0. -1.
        -13    1    3    3    0    0 -0.42302402676E+03 -0.31561377916E+03  0.41870322300E+03  0.67370154650E+03  0.00000000000E+00 0.  1.
         22    1    1    2    0    0  0.77397572826E+03  0.48115714459E+03 -0.12242177905E+04  0.15261912804E+04  0.00000000000E+00 0. -1.
<mgrwt>
<rscale>  0 0.26459999E+04</rscale>
<asrwt>0</asrwt>
<pdfrwt beam="1">  1        1 0.24570867E+00 0.26459999E+04</pdfrwt>
<pdfrwt beam="2">  1       -1 0.16860579E+00 0.26459999E+04</pdfrwt>
<totfact> 0.12390668E+00</totfact>
</mgrwt>
</event>
<event>
 6    1  0.1163319E-006  0.3539876E+04  0.7818608E-02  0.8104404E-01
         -2   -1    0    0    0  501 -0.00000000000E+00  0.00000000000E+00  0.15748339175E+04  0.15748339175E+04  0.00000000000E+00 0.  1.
          2   -1    0    0  501    0  0.00000000000E+00 -0.00000000000E+00 -0.19892128018E+04  0.19892128018E+04  0.00000000000E+00 0. -1.
         23    2    1    2    0    0 -0.32728588256E+03  0.65147009875E+03  0.14150640891E+04  0.15946836417E+04  0.95290094442E+02 0.  0.
         13    1    3    3    0    0 -0.14152448998E+03  0.36424341055E+03  0.81885046330E+03  0.90731390634E+03  0.00000000000E+00 0. -1.
        -13    1    3    3    0    0 -0.18576139258E+03  0.28722668820E+03  0.59621362585E+03  0.68736973532E+03  0.00000000000E+00 0.  1.
         22    1    1    2    0    0  0.32728588256E+03 -0.65147009875E+03 -0.18294429735E+04  0.19693630777E+04  0.00000000000E+00 0. -1.
<mgrwt>
<rscale>  0 0.35398756E+04</rscale>
<asrwt>0</asrwt>
<pdfrwt beam="1">  1        2 0.30603274E+00 0.35398756E+04</pdfrwt>
<pdfrwt beam="2">  1       -2 0.24228214E+00 0.35398756E+04</pdfrwt>
<totfact> 0.39787262E-01</totfact>
</mgrwt>
</event>
<event>
 6    1  0.8968082E-007  0.1518331E+04  0.7818608E-02  0.8872354E-01
          2   -1    0    0  501    0  0.00000000000E+00  0.00000000000E+00  0.22560541925E+04  0.22560541925E+04  0.00000000000E+00 0. -1.
         -2   -1    0    0    0  501 -0.00000000000E+00 -0.00000000000E+00 -0.25546039564E+03  0.25546039564E+03  0.00000000000E+00 0.  1.
         23    2    1    2    0    0  0.37893043483E+03  0.42415207233E+03  0.17813250304E+03  0.60236335727E+03  0.87276403697E+02 0.  0.
         13    1    3    3    0    0  0.40833274588E+02  0.33033856481E+02 -0.74943093716E+01  0.53054280323E+02  0.00000000000E+00 0. -1.
        -13    1    3    3    0    0  0.33809716024E+03  0.39111821585E+03  0.18562681241E+03  0.54930907695E+03  0.00000000000E+00 0.  1.
         22    1    1    2    0    0 -0.37893043483E+03 -0.42415207233E+03  0.18224612939E+04  0.19091512309E+04  0.00000000000E+00 0. -1.
<mgrwt>
<rscale>  0 0.15183313E+04</rscale>
<asrwt>0</asrwt>
<pdfrwt beam="1">  1        2 0.34708525E+00 0.15183313E+04</pdfrwt>
<pdfrwt beam="2">  1       -2 0.39301601E-01 0.15183313E+04</pdfrwt>
<totfact> 0.28394517E+01</totfact>
</mgrwt>
</event>
<event>
 6    1  0.8968082E-007  0.2031932E+04  0.7818608E-02  0.8591835E-01
          2   -1    0    0  501    0  0.00000000000E+00  0.00000000000E+00  0.20654359766E+04  0.20654359766E+04  0.00000000000E+00 0. -1.
         -2   -1    0    0    0  501 -0.00000000000E+00 -0.00000000000E+00 -0.49974273210E+03  0.49974273210E+03  0.00000000000E+00 0.  1.
         23    2    1    2    0    0  0.22853774705E+02 -0.10534520499E+03  0.20571499691E+04  0.20620389474E+04  0.92296901853E+02 0.  0.
         11    1    3    3    0    0  0.36366698377E+02 -0.50712945593E+01  0.79141513477E+03  0.79226647684E+03  0.00000000000E+00 0.  1.
        -11    1    3    3    0    0 -0.13512923672E+02 -0.10027391043E+03  0.12657348343E+04  0.12697724706E+04  0.00000000000E+00 0. -1.
         22    1    1    2    0    0 -0.22853774705E+02  0.10534520499E+03 -0.49145672460E+03  0.50313976128E+03  0.00000000000E+00 0.  1.
<mgrwt>
<rscale>  0 0.20319317E+04</rscale>
<asrwt>0</asrwt>
<pdfrwt beam="1">  1        2 0.31775938E+00 0.20319317E+04</pdfrwt>
<pdfrwt beam="2">  1       -2 0.76883498E-01 0.20319317E+04</pdfrwt>
<totfact> 0.86010448E+00</totfact>
</mgrwt>
</event>
<event>
 6    1  0.8968082E-007  0.3694954E+04  0.7818608E-02  0.8069081E-01
         -2   -1    0    0    0  501 -0.00000000000E+00  0.00000000000E+00  0.16617144451E+04  0.16617144451E+04  0.00000000000E+00 0.  1.
          2   -1    0    0  501    0  0.00000000000E+00 -0.00000000000E+00 -0.20540053897E+04  0.20540053897E+04  0.00000000000E+00 0. -1.
         23    2    1    2    0    0  0.14360366174E+04 -0.15943196737E+03  0.95970171194E+03  0.17369566196E+04  0.91494283198E+02 0.  0.
         13    1    3    3    0    0  0.32404460598E+03 -0.12672204588E+02  0.17950638858E+03  0.37065892000E+03  0.00000000000E+00 0.  1.
        -13    1    3    3    0    0  0.11119920114E+04 -0.14675976278E+03  0.78019532337E+03  0.13662976996E+04  0.00000000000E+00 0. -1.
         22    1    1    2    0    0 -0.14360366174E+04  0.15943196737E+03 -0.13519926565E+04  0.19787632152E+04  0.00000000000E+00 0. -1.
<mgrwt>
<rscale>  0 0.36949535E+04</rscale>
<asrwt>0</asrwt>
<pdfrwt beam="1">  1        2 0.31600083E+00 0.36949535E+04</pdfrwt>
<pdfrwt beam="2">  1       -2 0.25564838E+00 0.36949535E+04</pdfrwt>
<totfact> 0.29911671E-01</totfact>
</mgrwt>
</event>
<event>
 6    1  0.8968082E-007  0.1971155E+03  0.7818608E-02  0.1152196E+00
         -2   -1    0    0    0  501 -0.00000000000E+00  0.00000000000E+00  0.87430959743E+01  0.87430959743E+01  0.00000000000E+00 0.  1.
          2   -1    0    0  501    0  0.00000000000E+00 -0.00000000000E+00 -0.11110056772E+04  0.11110056772E+04  0.00000000000E+00 0. -1.
         23    2    1    2    0    0  0.59314505664E+02 -0.50896530458E+02 -0.65165903062E+03  0.66241713506E+03  0.89600788206E+02 0.  0.
         13    1    3    3    0    0  0.38080782731E+02 -0.58756172159E+02 -0.61736667038E+03  0.62132442369E+03  0.00000000000E+00 0. -1.
        -13    1    3    3    0    0  0.21233722934E+02  0.78596417016E+01 -0.34292360238E+02  0.41092711373E+02  0.00000000000E+00 0.  1.
         22    1    1    2    0    0 -0.59314505664E+02  0.50896530458E+02 -0.45060355058E+03  0.45733163808E+03  0.00000000000E+00 0. -1.
<mgrwt>
<rscale>  0 0.19711549E+03</rscale>
<asrwt>0</asrwt>
<pdfrwt beam="1">  1        2 0.17092400E+00 0.19711549E+03</pdfrwt>
<pdfrwt beam="2">  1       -2 0.13450913E-02 0.19711549E+03</pdfrwt>
<totfact> 0.30438887E+04</totfact>
</mgrwt>
</event>
<event>
 6    1  0.8968082E-007  0.1943780E+04  0.7818608E-02  0.8633366E-01
          2   -1    0    0  501    0  0.00000000000E+00  0.00000000000E+00  0.12464616879E+04  0.12464616879E+04  0.00000000000E+00 0. -1.
         -2   -1    0    0    0  501 -0.00000000000E+00 -0.00000000000E+00 -0.75780135152E+03  0.75780135152E+03  0.00000000000E+00 0.  1.
         23    2    1    2    0    0 -0.28939602927E+03  0.23393279442E+02 -0.70933201581E+03  0.77158993466E+03  0.88892133086E+02 0.  0.
         13    1    3    3    0    0 -0.23215888422E+03 -0.18209254640E+02 -0.54111291227E+03  0.58909465140E+03  0.00000000000E+00 0.  1.
        -13    1    3    3    0    0 -0.57237145045E+02  0.41602534082E+02 -0.16821910354E+03  0.18249528326E+03  0.00000000000E+00 0. -1.
         22    1    1    2    0    0  0.28939602927E+03 -0.23393279442E+02  0.11979923522E+04  0.12326731048E+04  0.00000000000E+00 0. -1.
<mgrwt>
<rscale>  0 0.19437802E+04</rscale>
<asrwt>0</asrwt>
<pdfrwt beam="1">  1        2 0.19176334E+00 0.19437802E+04</pdfrwt>
<pdfrwt beam="2">  1       -2 0.11658482E+00 0.19437802E+04</pdfrwt>
<totfact> 0.94601349E+00</totfact>
</mgrwt>
</event>
<event>
 6    1  0.8968082E-007  0.2058231E+04  0.7818608E-02  0.8579870E-01
         -2   -1    0    0    0  501 -0.00000000000E+00  0.00000000000E+00  0.53445664775E+03  0.53445664775E+03  0.00000000000E+00 0.  1.
          2   -1    0    0  501    0  0.00000000000E+00 -0.00000000000E+00 -0.19815982929E+04  0.19815982929E+04  0.00000000000E+00 0. -1.
         23    2    1    2    0    0  0.69310670303E+03  0.21706722879E+03  0.16248725522E+03  0.75014999402E+03  0.93849996377E+02 0.  0.
         11    1    3    3    0    0  0.14225503507E+03  0.16118267153E+02  0.61085500170E+01  0.14329552653E+03  0.00000000000E+00 0.  1.
        -11    1    3    3    0    0  0.55085166796E+03  0.20094896164E+03  0.15637870521E+03  0.60685446749E+03  0.00000000000E+00 0. -1.
         22    1    1    2    0    0 -0.69310670303E+03 -0.21706722879E+03 -0.16096289004E+04  0.17659049466E+04  0.00000000000E+00 0. -1.
<mgrwt>
<rscale>  0 0.20582307E+04</rscale>
<asrwt>0</asrwt>
<pdfrwt beam="1">  1        2 0.30486127E+00 0.20582307E+04</pdfrwt>
<pdfrwt beam="2">  1       -2 0.82224101E-01 0.20582307E+04</pdfrwt>
<totfact> 0.82179382E+00</totfact>
</mgrwt>
</event>
<event>
 6    1  0.8968082E-007  0.1771384E+04  0.7818608E-02  0.8721667E-01
          1   -1    0    0  501    0  0.00000000000E+00  0.00000000000E+00  0.11844914927E+04  0.11844914927E+04  0.00000000000E+00 0. -1.
         -1   -1    0    0    0  501 -0.00000000000E+00 -0.00000000000E+00 -0.66226772283E+03  0.66226772283E+03  0.00000000000E+00 0.  1.
         23    2    1    2    0    0  0.24390177468E+03 -0.76209051371E+03 -0.12857003098E+03  0.81535114983E+03  0.89427165269E+02 0.  0.
         13    1    3    3    0    0  0.66904663852E+02 -0.24131586212E+03  0.32565059397E+00  0.25041901966E+03  0.00000000000E+00 0.  1.
        -13    1    3    3    0    0  0.17699711083E+03 -0.52077465159E+03 -0.12889568157E+03  0.56493213018E+03  0.00000000000E+00 0. -1.
         22    1    1    2    0    0 -0.24390177468E+03  0.76209051371E+03  0.65079380086E+03  0.10314080657E+04  0.00000000000E+00 0. -1.
<mgrwt>
<rscale>  0 0.17713842E+04</rscale>
<asrwt>0</asrwt>
<pdfrwt beam="1">  1        1 0.18222946E+00 0.17713842E+04</pdfrwt>
<pdfrwt beam="2">  1       -1 0.10188734E+00 0.17713842E+04</pdfrwt>
<totfact> 0.94739952E+00</totfact>
</mgrwt>
</event>
<event>
 6    1  0.8968082E-007  0.1005333E+04  0.7818608E-02  0.9302715E-01
         -2   -1    0    0    0  501 -0.00000000000E+00  0.00000000000E+00  0.18928386072E+03  0.18928386072E+03  0.00000000000E+00 0.  1.
          2   -1    0    0  501    0  0.00000000000E+00 -0.00000000000E+00 -0.13348923379E+04  0.13348923379E+04  0.00000000000E+00 0. -1.
         23    2    1    2    0    0 -0.27144368512E+03 -0.35527321598E+03 -0.91089256090E+03  0.10192085823E+04  0.95708643682E+02 0.  0.
         13    1    3    3    0    0 -0.20821680920E+03 -0.22859783451E+03 -0.69938593116E+03  0.76469071544E+03  0.00000000000E+00 0. -1.
        -13    1    3    3    0    0 -0.63226875924E+02 -0.12667538147E+03 -0.21150662974E+03  0.25451786682E+03  0.00000000000E+00 0.  1.
         22    1    1    2    0    0  0.27144368512E+03  0.35527321598E+03 -0.23471591624E+03  0.50496761631E+03  0.00000000000E+00 0.  1.
<mgrwt>
<rscale>  0 0.10053329E+04</rscale>
<asrwt>0</asrwt>
<pdfrwt beam="1">  1        2 0.20536805E+00 0.10053329E+04</pdfrwt>
<pdfrwt beam="2">  1       -2 0.29120594E-01 0.10053329E+04</pdfrwt>
<totfact> 0.17045341E+02</totfact>
</mgrwt>
</event>
<event>
 6    1  0.8968082E-007  0.1512327E+04  0.7818608E-02  0.8876297E-01
         -1   -1    0    0    0  501 -0.00000000000E+00  0.00000000000E+00  0.86923753136E+03  0.86923753136E+03  0.00000000000E+00 0.  1.
          1   -1    0    0  501    0  0.00000000000E+00 -0.00000000000E+00 -0.65779876793E+03  0.65779876793E+03  0.00000000000E+00 0. -1.
         23    2    1    2    0    0 -0.36735939393E+03 -0.81842782415E+02  0.76518599271E+03  0.85749379932E+03  0.90193387174E+02 0.  0.
         13    1    3    3    0    0 -0.11045809810E+03 -0.60014764595E+02  0.19919673690E+03  0.23554639330E+03  0.00000000000E+00 0.  1.
        -13    1    3    3    0    0 -0.25690129583E+03 -0.21828017820E+02  0.56598925581E+03  0.62194740602E+03  0.00000000000E+00 0. -1.
         22    1    1    2    0    0  0.36735939393E+03  0.81842782415E+02 -0.55374722927E+03  0.66954249997E+03  0.00000000000E+00 0. -1.
<mgrwt>
<rscale>  0 0.15123272E+04</rscale>
<asrwt>0</asrwt>
<pdfrwt beam="1">  1        1 0.10119981E+00 0.15123272E+04</pdfrwt>
<pdfrwt beam="2">  1       -1 0.13372885E+00 0.15123272E+04</pdfrwt>
<totfact> 0.13649235E+01</totfact>
</mgrwt>
</event>
<event>
 6    1  0.8968082E-007  0.2041157E+04  0.7818608E-02  0.8587617E-01
         -2   -1    0    0    0  501 -0.00000000000E+00  0.00000000000E+00  0.18887521189E+04  0.18887521189E+04  0.00000000000E+00 0.  1.
          2   -1    0    0  501    0  0.00000000000E+00 -0.00000000000E+00 -0.55146489056E+03  0.55146489056E+03  0.00000000000E+00 0. -1.
         23    2    1    2    0    0  0.49417275565E+03  0.43207819428E+03  0.16010102279E+04  0.17327934454E+04  0.91875437411E+02 0.  0.
         13    1    3    3    0    0  0.93678455405E+02  0.13356561452E+03  0.41174612825E+03  0.44288858703E+03  0.00000000000E+00 0.  1.
        -13    1    3    3    0    0  0.40049430025E+03  0.29851257975E+03  0.11892640997E+04  0.12899048584E+04  0.00000000000E+00 0. -1.
         22    1    1    2    0    0 -0.49417275565E+03 -0.43207819428E+03 -0.26372299965E+03  0.70742356403E+03  0.00000000000E+00 0. -1.
<mgrwt>
<rscale>  0 0.20411570E+04</rscale>
<asrwt>0</asrwt>
<pdfrwt beam="1">  1        2 0.84840753E-01 0.20411570E+04</pdfrwt>
<pdfrwt beam="2">  1       -2 0.29057725E+00 0.20411570E+04</pdfrwt>
<totfact> 0.18455384E+00</totfact>
</mgrwt>
</event>
<event>
 6    1  0.8968082E-007  0.2264750E+04  0.7818608E-02  0.8491951E-01
         -2   -1    0    0    0  501 -0.00000000000E+00  0.00000000000E+00  0.76916755240E+03  0.76916755240E+03  0.00000000000E+00 0.  1.
          2   -1    0    0  501    0  0.00000000000E+00 -0.00000000000E+00 -0.16670923045E+04  0.16670923045E+04  0.00000000000E+00 0. -1.
         23    2    1    2    0    0 -0.26117071674E+03 -0.10668025102E+04 -0.73825419757E+03  0.13264074230E+04  0.89775567709E+02 0.  0.
         13    1    3    3    0    0 -0.16296610884E+03 -0.67040629033E+03 -0.51534370127E+03  0.86115136718E+03  0.00000000000E+00 0. -1.
        -13    1    3    3    0    0 -0.98204607900E+02 -0.39639621987E+03 -0.22291049629E+03  0.46525605584E+03  0.00000000000E+00 0.  1.
         22    1    1    2    0    0  0.26117071674E+03  0.10668025102E+04 -0.15967055456E+03  0.11098524339E+04  0.00000000000E+00 0. -1.
<mgrwt>
<rscale>  0 0.22647501E+04</rscale>
<asrwt>0</asrwt>
<pdfrwt beam="1">  1        2 0.25647573E+00 0.22647501E+04</pdfrwt>
<pdfrwt beam="2">  1       -2 0.11833347E+00 0.22647501E+04</pdfrwt>
<totfact> 0.51140723E+00</totfact>
</mgrwt>
</event>
<event>
 6    1  0.8968082E-007  0.1856834E+04  0.7818608E-02  0.8676646E-01
         -2   -1    0    0    0  501 -0.00000000000E+00  0.00000000000E+00  0.13065282341E+04  0.13065282341E+04  0.00000000000E+00 0.  1.
          2   -1    0    0  501    0  0.00000000000E+00 -0.00000000000E+00 -0.65973168545E+03  0.65973168545E+03  0.00000000000E+00 0. -1.
         23    2    1    2    0    0  0.62563805372E+03  0.60406878337E+03  0.66219169615E+03  0.10964558728E+04  0.85997495076E+02 0.  0.
         13    1    3    3    0    0  0.38575951897E+02  0.46323906791E+02  0.21923440370E+02  0.64145503683E+02  0.00000000000E+00 0.  1.
        -13    1    3    3    0    0  0.58706210183E+03  0.55774487657E+03  0.64026825578E+03  0.10323103691E+04  0.00000000000E+00 0. -1.
         22    1    1    2    0    0 -0.62563805372E+03 -0.60406878337E+03 -0.15395147468E+02  0.86980404682E+03  0.00000000000E+00 0. -1.
<mgrwt>
<rscale>  0 0.18568339E+04</rscale>
<asrwt>0</asrwt>
<pdfrwt beam="1">  1        2 0.10149718E+00 0.18568339E+04</pdfrwt>
<pdfrwt beam="2">  1       -2 0.20100434E+00 0.18568339E+04</pdfrwt>
<totfact> 0.54300062E+00</totfact>
</mgrwt>
</event>
<event>
 6    1  0.8968082E-007  0.2273228E+04  0.7818608E-02  0.8488552E-01
         -2   -1    0    0    0  501 -0.00000000000E+00  0.00000000000E+00  0.19809320984E+04  0.19809320984E+04  0.00000000000E+00 0.  1.
          2   -1    0    0  501    0  0.00000000000E+00 -0.00000000000E+00 -0.65216316495E+03  0.65216316495E+03  0.00000000000E+00 0. -1.
         23    2    1    2    0    0 -0.10997731464E+04  0.18946833376E+03  0.42719609417E+03  0.11984410167E+04  0.91461163906E+02 0.  0.
         13    1    3    3    0    0 -0.70934041588E+03  0.15276793704E+03  0.31090921156E+03  0.78940889660E+03  0.00000000000E+00 0. -1.
        -13    1    3    3    0    0 -0.39043273052E+03  0.36700396725E+02  0.11628688261E+03  0.40903212007E+03  0.00000000000E+00 0.  1.
         22    1    1    2    0    0  0.10997731464E+04 -0.18946833376E+03  0.90157283932E+03  0.14346542467E+04  0.00000000000E+00 0. -1.
<mgrwt>
<rscale>  0 0.22732276E+04</rscale>
<asrwt>0</asrwt>
<pdfrwt beam="1">  1        2 0.10033280E+00 0.22732276E+04</pdfrwt>
<pdfrwt beam="2">  1       -2 0.30475878E+00 0.22732276E+04</pdfrwt>
<totfact> 0.12097189E+00</totfact>
</mgrwt>
</event>
<event>
 6    1  0.8968082E-007  0.4353405E+04  0.7818608E-02  0.7936816E-01
          2   -1    0    0  501    0  0.00000000000E+00  0.00000000000E+00  0.22320119545E+04  0.22320119545E+04  0.00000000000E+00 0. -1.
         -2   -1    0    0    0  501 -0.00000000000E+00 -0.00000000000E+00 -0.21227640986E+04  0.21227640986E+04  0.00000000000E+00 0.  1.
         23    2    1    2    0    0 -0.11390670418E+04  0.74161554909E+03 -0.16448865726E+04  0.21356647575E+04  0.89133446352E+02 0.  0.
         11    1    3    3    0    0 -0.12572784216E+03  0.86869644386E+02 -0.23138768847E+03  0.27729783228E+03  0.00000000000E+00 0.  1.
        -11    1    3    3    0    0 -0.10133391997E+04  0.65474590470E+03 -0.14134988842E+04  0.18583669253E+04  0.00000000000E+00 0. -1.
         22    1    1    2    0    0  0.11390670418E+04 -0.74161554909E+03  0.17541344285E+04  0.22191112955E+04  0.00000000000E+00 0. -1.
<mgrwt>
<rscale>  0 0.43534055E+04</rscale>
<asrwt>0</asrwt>
<pdfrwt beam="1">  1        2 0.34338646E+00 0.43534055E+04</pdfrwt>
<pdfrwt beam="2">  1       -2 0.32657909E+00 0.43534055E+04</pdfrwt>
<totfact> 0.82796096E-02</totfact>
</mgrwt>
</event>
<event>
 6    1  0.8968082E-007  0.1392450E+04  0.7818608E-02  0.8959302E-01
          1   -1    0    0  501    0  0.00000000000E+00  0.00000000000E+00  0.67962307492E+03  0.67962307492E+03  0.00000000000E+00 0. -1.
         -1   -1    0    0    0  501 -0.00000000000E+00 -0.00000000000E+00 -0.71323257988E+03  0.71323257988E+03  0.00000000000E+00 0.  1.
         23    2    1    2    0    0 -0.90678607645E+01 -0.62683402988E+03  0.27909231157E+03  0.69229477009E+03  0.91522692248E+02 0.  0.
         11    1    3    3    0    0 -0.43645756115E+02 -0.19578341739E+03  0.75465104752E+02  0.21431537646E+03  0.00000000000E+00 0. -1.
        -11    1    3    3    0    0  0.34577895350E+02 -0.43105061249E+03  0.20362720682E+03  0.47797939362E+03  0.00000000000E+00 0.  1.
         22    1    1    2    0    0  0.90678607645E+01  0.62683402988E+03 -0.31270181653E+03  0.70056088470E+03  0.00000000000E+00 0.  1.
<mgrwt>
<rscale>  0 0.13924501E+04</rscale>
<asrwt>0</asrwt>
<pdfrwt beam="1">  1        1 0.10455740E+00 0.13924501E+04</pdfrwt>
<pdfrwt beam="2">  1       -1 0.10972809E+00 0.13924501E+04</pdfrwt>
<totfact> 0.21348193E+01</totfact>
</mgrwt>
</event>
<event>
 6    1  0.1247998E-006  0.2659962E+04  0.7818608E-02  0.8348114E-01
         -2   -1    0    0    0  501 -0.00000000000E+00  0.00000000000E+00  0.13927921489E+04  0.13927921489E+04  0.00000000000E+00 0.  1.
          2   -1    0    0  501    0  0.00000000000E+00 -0.00000000000E+00 -0.12700027708E+04  0.12700027708E+04  0.00000000000E+00 0. -1.
         23    2    1    2    0    0 -0.10243246693E+04  0.76358085609E+03 -0.30283412020E+03  0.13161501580E+04  0.90807390434E+02 0.  0.
         13    1    3    3    0    0 -0.73458519296E+03  0.57827110026E+03 -0.18839929979E+03  0.95368085190E+03  0.00000000000E+00 0.  1.
        -13    1    3    3    0    0 -0.28973947630E+03  0.18530975583E+03 -0.11443482041E+03  0.36246930609E+03  0.00000000000E+00 0. -1.
         22    1    1    2    0    0  0.10243246693E+04 -0.76358085609E+03  0.42562349832E+03  0.13466447617E+04  0.00000000000E+00 0.  1.
<mgrwt>
<rscale>  0 0.26599623E+04</rscale>
<asrwt>0</asrwt>
<pdfrwt beam="1">  1        2 0.19538504E+00 0.26599623E+04</pdfrwt>
<pdfrwt beam="2">  1       -2 0.21427571E+00 0.26599623E+04</pdfrwt>
<totfact> 0.16286982E+00</totfact>
</mgrwt>
</event>
<event>
 6    1  0.8968082E-007  0.2508992E+04  0.7818608E-02  0.8399789E-01
         -1   -1    0    0    0  501 -0.00000000000E+00  0.00000000000E+00  0.15991697832E+04  0.15991697832E+04  0.00000000000E+00 0.  1.
          1   -1    0    0  501    0  0.00000000000E+00 -0.00000000000E+00 -0.98411086936E+03  0.98411086936E+03  0.00000000000E+00 0. -1.
         23    2    1    2    0    0 -0.11057371521E+04 -0.42265951712E+03 -0.11449583445E+03  0.11927606607E+04  0.90955927041E+02 0.  0.
         11    1    3    3    0    0 -0.99789915656E+03 -0.40691442885E+03 -0.11486553862E+03  0.10837786541E+04  0.00000000000E+00 0.  1.
        -11    1    3    3    0    0 -0.10783799555E+03 -0.15745088275E+02  0.36970417724E+00  0.10898200664E+03  0.00000000000E+00 0. -1.
         22    1    1    2    0    0  0.11057371521E+04  0.42265951712E+03  0.72955474830E+03  0.13905199919E+04  0.00000000000E+00 0. -1.
<mgrwt>
<rscale>  0 0.25089921E+04</rscale>
<asrwt>0</asrwt>
<pdfrwt beam="1">  1        1 0.15140167E+00 0.25089921E+04</pdfrwt>
<pdfrwt beam="2">  1       -1 0.24602612E+00 0.25089921E+04</pdfrwt>
<totfact> 0.10231837E+00</totfact>
</mgrwt>
</event>
<event>
 6    1  0.8968082E-007  0.1778742E+04  0.7818608E-02  0.8717687E-01
         -2   -1    0    0    0  501 -0.00000000000E+00  0.00000000000E+00  0.12117623697E+04  0.12117623697E+04  0.00000000000E+00 0.  1.
          2   -1    0    0  501    0  0.00000000000E+00 -0.00000000000E+00 -0.65275246689E+03  0.65275246689E+03  0.00000000000E+00 0. -1.
         23    2    1    2    0    0 -0.52483046135E+03  0.68230691583E+03  0.55825276875E+02  0.86742682224E+03  0.91230969817E+02 0.  0.
         13    1    3    3    0    0 -0.14759520583E+03  0.13632257472E+03 -0.52918912469E+01  0.20098804262E+03  0.00000000000E+00 0. -1.
        -13    1    3    3    0    0 -0.37723525551E+03  0.54598434111E+03  0.61117168122E+02  0.66643877962E+03  0.00000000000E+00 0.  1.
         22    1    1    2    0    0  0.52483046135E+03 -0.68230691583E+03  0.50318462589E+03  0.99708801431E+03  0.00000000000E+00 0.  1.
<mgrwt>
<rscale>  0 0.17787421E+04</rscale>
<asrwt>0</asrwt>
<pdfrwt beam="1">  1        2 0.10042346E+00 0.17787421E+04</pdfrwt>
<pdfrwt beam="2">  1       -2 0.18642498E+00 0.17787421E+04</pdfrwt>
<totfact> 0.69250474E+00</totfact>
</mgrwt>
</event>
<event>
 6    1  0.8968082E-007  0.1804031E+04  0.7818608E-02  0.8704159E-01
         -1   -1    0    0    0  501 -0.00000000000E+00  0.00000000000E+00  0.20995438325E+04  0.20995438325E+04  0.00000000000E+00 0.  1.
          1   -1    0    0  501    0  0.00000000000E+00 -0.00000000000E+00 -0.38752815900E+03  0.38752815900E+03  0.00000000000E+00 0. -1.
         23    2    1    2    0    0 -0.39289279396E+03 -0.15501846139E+03  0.19535317594E+04  0.20005275530E+04  0.86189815997E+02 0.  0.
         13    1    3    3    0    0 -0.33653270729E+03 -0.10563119186E+03  0.16972977604E+04  0.17335604689E+04  0.00000000000E+00 0. -1.
        -13    1    3    3    0    0 -0.56360086663E+02 -0.49387269530E+02  0.25623399895E+03  0.26696708407E+03  0.00000000000E+00 0.  1.
         22    1    1    2    0    0  0.39289279396E+03  0.15501846139E+03 -0.24151608589E+03  0.48654443852E+03  0.00000000000E+00 0. -1.
<mgrwt>
<rscale>  0 0.18040314E+04</rscale>
<asrwt>0</asrwt>
<pdfrwt beam="1">  1        1 0.59619718E-01 0.18040314E+04</pdfrwt>
<pdfrwt beam="2">  1       -1 0.32300674E+00 0.18040314E+04</pdfrwt>
<totfact> 0.13834089E+00</totfact>
</mgrwt>
</event>
<event>
 6    1  0.8968082E-007  0.4274722E+04  0.7818608E-02  0.7951309E-01
          2   -1    0    0  501    0  0.00000000000E+00  0.00000000000E+00  0.41206631051E+04  0.41206631051E+04  0.00000000000E+00 0. -1.
         -2   -1    0    0    0  501 -0.00000000000E+00 -0.00000000000E+00 -0.11086349752E+04  0.11086349752E+04  0.00000000000E+00 0.  1.
         23    2    1    2    0    0  0.14460230411E+04 -0.82604578550E+03  0.31437325018E+04  0.35587651364E+04  0.91765885634E+02 0.  0.
         11    1    3    3    0    0  0.56434468818E+03 -0.27374040127E+03  0.12120921378E+04  0.13647659451E+04  0.00000000000E+00 0.  1.
        -11    1    3    3    0    0  0.88167835293E+03 -0.55230538423E+03  0.19316403640E+04  0.21939991913E+04  0.00000000000E+00 0. -1.
         22    1    1    2    0    0 -0.14460230411E+04  0.82604578550E+03 -0.13170437185E+03  0.16705329439E+04  0.00000000000E+00 0.  1.
<mgrwt>
<rscale>  0 0.42747216E+04</rscale>
<asrwt>0</asrwt>
<pdfrwt beam="1">  1        2 0.63394816E+00 0.42747216E+04</pdfrwt>
<pdfrwt beam="2">  1       -2 0.17055923E+00 0.42747216E+04</pdfrwt>
<totfact> 0.44097250E-02</totfact>
</mgrwt>
</event>
<event>
 6    1  0.8968082E-007  0.1847998E+04  0.7818608E-02  0.8681183E-01
         -2   -1    0    0    0  501 -0.00000000000E+00  0.00000000000E+00  0.49096942320E+03  0.49096942320E+03  0.00000000000E+00 0.  1.
          2   -1    0    0  501    0  0.00000000000E+00 -0.00000000000E+00 -0.17389562710E+04  0.17389562710E+04  0.00000000000E+00 0. -1.
         23    2    1    2    0    0 -0.46586444986E+03  0.78017816082E+03 -0.43955613835E+03  0.10136741329E+04  0.92833187928E+02 0.  0.
         11    1    3    3    0    0 -0.38212543941E+03  0.64389661766E+03 -0.40003407375E+03  0.84891104707E+03  0.00000000000E+00 0.  1.
        -11    1    3    3    0    0 -0.83739010443E+02  0.13628154316E+03 -0.39522064599E+02  0.16476308587E+03  0.00000000000E+00 0. -1.
         22    1    1    2    0    0  0.46586444986E+03 -0.78017816082E+03 -0.80843070944E+03  0.12162515612E+04  0.00000000000E+00 0. -1.
<mgrwt>
<rscale>  0 0.18479982E+04</rscale>
<asrwt>0</asrwt>
<pdfrwt beam="1">  1        2 0.26753173E+00 0.18479982E+04</pdfrwt>
<pdfrwt beam="2">  1       -2 0.75533759E-01 0.18479982E+04</pdfrwt>
<totfact> 0.13790161E+01</totfact>
</mgrwt>
</event>
<event>
 6    1  0.8968082E-007  0.1702810E+04  0.7818608E-02  0.8759763E-01
         -3   -1    0    0    0  501 -0.00000000000E+00  0.00000000000E+00  0.14377541186E+04  0.14377541186E+04  0.00000000000E+00 0.  1.
          3   -1    0    0  501    0  0.00000000000E+00 -0.00000000000E+00 -0.50418252860E+03  0.50418252860E+03  0.00000000000E+00 0. -1.
         23    2    1    2    0    0  0.18242306083E+03 -0.52175903101E+03 -0.26662238950E+03  0.62058270217E+03  0.92329475732E+02 0.  0.
         11    1    3    3    0    0  0.53143899406E+02 -0.61264821647E+02 -0.25991276078E+02  0.85165714038E+02  0.00000000000E+00 0. -1.
        -11    1    3    3    0    0  0.12927916143E+03 -0.46049420936E+03 -0.24063111343E+03  0.53541698814E+03  0.00000000000E+00 0.  1.
         22    1    1    2    0    0 -0.18242306083E+03  0.52175903101E+03  0.12001939795E+04  0.13213539450E+04  0.00000000000E+00 0.  1.
<mgrwt>
<rscale>  0 0.17028100E+04</rscale>
<asrwt>0</asrwt>
<pdfrwt beam="1">  1        3 0.77566543E-01 0.17028100E+04</pdfrwt>
<pdfrwt beam="2">  1       -3 0.22119294E+00 0.17028100E+04</pdfrwt>
<totfact> 0.42019292E-01</totfact>
</mgrwt>
</event>
<event>
 6    1  0.8968082E-007  0.6464579E+04  0.7818608E-02  0.7635325E-01
          1   -1    0    0  501    0  0.00000000000E+00  0.00000000000E+00  0.33912723606E+04  0.33912723606E+04  0.00000000000E+00 0. -1.
         -1   -1    0    0    0  501 -0.00000000000E+00 -0.00000000000E+00 -0.30807593048E+04  0.30807593048E+04  0.00000000000E+00 0.  1.
         23    2    1    2    0    0 -0.22529176172E+03  0.11625027283E+04  0.31657276250E+04  0.33810093091E+04  0.84991656023E+02 0.  0.
         11    1    3    3    0    0 -0.10334987417E+03  0.73096797929E+03  0.19211671135E+04  0.20581249868E+04  0.00000000000E+00 0. -1.
        -11    1    3    3    0    0 -0.12194188755E+03  0.43153474902E+03  0.12445605115E+04  0.13228843224E+04  0.00000000000E+00 0.  1.
         22    1    1    2    0    0  0.22529176172E+03 -0.11625027283E+04 -0.28552145692E+04  0.30910223563E+04  0.00000000000E+00 0.  1.
<mgrwt>
<rscale>  0 0.64645785E+04</rscale>
<asrwt>0</asrwt>
<pdfrwt beam="1">  1        1 0.52173421E+00 0.64645785E+04</pdfrwt>
<pdfrwt beam="2">  1       -1 0.47396297E+00 0.64645785E+04</pdfrwt>
<totfact> 0.43776098E-04</totfact>
</mgrwt>
</event>
<event>
 6    1  0.8968082E-007  0.2392586E+04  0.7818608E-02  0.8442285E-01
         -2   -1    0    0    0  501 -0.00000000000E+00  0.00000000000E+00  0.22378732860E+04  0.22378732860E+04  0.00000000000E+00 0.  1.
          2   -1    0    0  501    0  0.00000000000E+00 -0.00000000000E+00 -0.63949843085E+03  0.63949843085E+03  0.00000000000E+00 0. -1.
         23    2    1    2    0    0  0.17726800490E+03  0.10153838014E+04  0.74332758391E+02  0.10374987532E+04  0.91924393357E+02 0.  0.
         13    1    3    3    0    0  0.16377472004E+03  0.87072673324E+03  0.33687125279E+02  0.88663522675E+03  0.00000000000E+00 0. -1.
        -13    1    3    3    0    0  0.13493284868E+02  0.14465706819E+03  0.40645633112E+02  0.15086352642E+03  0.00000000000E+00 0.  1.
         22    1    1    2    0    0 -0.17726800490E+03 -0.10153838014E+04  0.15240420967E+04  0.18398729637E+04  0.00000000000E+00 0.  1.
<mgrwt>
<rscale>  0 0.23925856E+04</rscale>
<asrwt>0</asrwt>
<pdfrwt beam="1">  1        2 0.98384375E-01 0.23925856E+04</pdfrwt>
<pdfrwt beam="2">  1       -2 0.34428819E+00 0.23925856E+04</pdfrwt>
<totfact> 0.69817661E-01</totfact>
</mgrwt>
</event>
<event>
 6    1  0.8968082E-007  0.9112925E+03  0.7818608E-02  0.9411574E-01
         -1   -1    0    0    0  501 -0.00000000000E+00  0.00000000000E+00  0.22020391475E+03  0.22020391475E+03  0.00000000000E+00 0.  1.
          1   -1    0    0  501    0  0.00000000000E+00 -0.00000000000E+00 -0.94282386801E+03  0.94282386801E+03  0.00000000000E+00 0. -1.
         23    2    1    2    0    0  0.97696608953E+02  0.25378916822E+03 -0.82427511504E+03  0.87270496033E+03  0.90724380445E+02 0.  0.
         13    1    3    3    0    0  0.24600175033E+02  0.18354203824E+03 -0.52070608021E+03  0.55265510979E+03  0.00000000000E+00 0. -1.
        -13    1    3    3    0    0  0.73096433920E+02  0.70247129978E+02 -0.30356903484E+03  0.32004985054E+03  0.00000000000E+00 0.  1.
         22    1    1    2    0    0 -0.97696608953E+02 -0.25378916822E+03  0.10165516178E+03  0.29032282243E+03  0.00000000000E+00 0.  1.
<mgrwt>
<rscale>  0 0.91129250E+03</rscale>
<asrwt>0</asrwt>
<pdfrwt beam="1">  1        1 0.14504983E+00 0.91129250E+03</pdfrwt>
<pdfrwt beam="2">  1       -1 0.33877525E-01 0.91129250E+03</pdfrwt>
<totfact> 0.13897296E+02</totfact>
</mgrwt>
</event>
<event>
 6    1  0.8968082E-007  0.5987140E+04  0.7818608E-02  0.7691998E-01
         -2   -1    0    0    0  501 -0.00000000000E+00  0.00000000000E+00  0.22759050689E+04  0.22759050689E+04  0.00000000000E+00 0.  1.
          2   -1    0    0  501    0  0.00000000000E+00 -0.00000000000E+00 -0.39375371270E+04  0.39375371270E+04  0.00000000000E+00 0. -1.
         23    2    1    2    0    0  0.19156931274E+04  0.22913763679E+04 -0.10305901219E+04  0.31608204140E+04  0.91563490286E+02 0.  0.
         11    1    3    3    0    0  0.11566531899E+04  0.14132831430E+04 -0.67269136992E+03  0.19462090133E+04  0.00000000000E+00 0. -1.
        -11    1    3    3    0    0  0.75903993745E+03  0.87809322488E+03 -0.35789875195E+03  0.12146114008E+04  0.00000000000E+00 0.  1.
         22    1    1    2    0    0 -0.19156931274E+04 -0.22913763679E+04 -0.63104193629E+03  0.30526217819E+04  0.00000000000E+00 0.  1.
<mgrwt>
<rscale>  0 0.59871398E+04</rscale>
<asrwt>0</asrwt>
<pdfrwt beam="1">  1        2 0.60577494E+00 0.59871398E+04</pdfrwt>
<pdfrwt beam="2">  1       -2 0.35013924E+00 0.59871398E+04</pdfrwt>
<totfact> 0.39977204E-03</totfact>
</mgrwt>
</event>
<event>
 6    1  0.8968082E-007  0.1113695E+04  0.7818608E-02  0.9191946E-01
         -1   -1    0    0    0  501 -0.00000000000E+00  0.00000000000E+00  0.11893039974E+04  0.11893039974E+04  0.00000000000E+00 0.  1.
          1   -1    0    0  501    0  0.00000000000E+00 -0.00000000000E+00 -0.26072305299E+03  0.26072305299E+03  0.00000000000E+00 0. -1.
         23    2    1    2    0    0 -0.75756963962E+02 -0.42016697960E+03  0.97593777243E+01  0.43685752868E+03  0.92031769382E+02 0.  0.
         11    1    3    3    0    0 -0.43920723526E+02 -0.28663807065E+03  0.48984278112E+02  0.29409160649E+03  0.00000000000E+00 0.  1.
        -11    1    3    3    0    0 -0.31836240436E+02 -0.13352890894E+03 -0.39224900387E+02  0.14276592219E+03  0.00000000000E+00 0. -1.
         22    1    1    2    0    0  0.75756963962E+02  0.42016697960E+03  0.91882156671E+03  0.10131695217E+04  0.00000000000E+00 0.  1.
<mgrwt>
<rscale>  0 0.11136947E+04</rscale>
<asrwt>0</asrwt>
<pdfrwt beam="1">  1        1 0.40111240E-01 0.11136947E+04</pdfrwt>
<pdfrwt beam="2">  1       -1 0.18296984E+00 0.11136947E+04</pdfrwt>
<totfact> 0.20778103E+01</totfact>
</mgrwt>
</event>
<event>
 6    1  0.8968082E-007  0.1080563E+04  0.7818608E-02  0.9224347E-01
         -4   -1    0    0    0  501 -0.00000000000E+00  0.00000000000E+00  0.59240056723E+03  0.59240056723E+03  0.00000000000E+00 0.  1.
          4   -1    0    0  501    0  0.00000000000E+00 -0.00000000000E+00 -0.49274760246E+03  0.49274760246E+03  0.00000000000E+00 0. -1.
         23    2    1    2    0    0 -0.47060190860E+03  0.25732768604E+03  0.61461794140E+02  0.54742867041E+03  0.90647132692E+02 0.  0.
         13    1    3    3    0    0 -0.79359858925E+02  0.43126667141E+02  0.45422744382E+02  0.10109956644E+03  0.00000000000E+00 0.  1.
        -13    1    3    3    0    0 -0.39124204968E+03  0.21420101890E+03  0.16039049758E+02  0.44632910397E+03  0.00000000000E+00 0. -1.
         22    1    1    2    0    0  0.47060190860E+03 -0.25732768604E+03  0.38191170628E+02  0.53771949928E+03  0.00000000000E+00 0. -1.
<mgrwt>
<rscale>  0 0.10805627E+04</rscale>
<asrwt>0</asrwt>
<pdfrwt beam="1">  1        4 0.75807323E-01 0.10805627E+04</pdfrwt>
<pdfrwt beam="2">  1       -4 0.91138549E-01 0.10805627E+04</pdfrwt>
<totfact> 0.31866677E+00</totfact>
</mgrwt>
</event>
<event>
 6    1  0.8968082E-007  0.2280169E+04  0.7818608E-02  0.8485781E-01
          2   -1    0    0  501    0  0.00000000000E+00  0.00000000000E+00  0.23190897087E+04  0.23190897087E+04  0.00000000000E+00 0. -1.
         -2   -1    0    0    0  501 -0.00000000000E+00 -0.00000000000E+00 -0.56047552379E+03  0.56047552379E+03  0.00000000000E+00 0.  1.
         23    2    1    2    0    0  0.49725231460E+03  0.95132165872E+03  0.40279700432E+03  0.11502552574E+04  0.92568719236E+02 0.  0.
         13    1    3    3    0    0  0.39436840751E+03  0.74929771984E+03  0.27654232800E+03  0.89075763987E+03  0.00000000000E+00 0.  1.
        -13    1    3    3    0    0  0.10288390709E+03  0.20202393888E+03  0.12625467632E+03  0.25949761754E+03  0.00000000000E+00 0. -1.
         22    1    1    2    0    0 -0.49725231460E+03 -0.95132165872E+03  0.13558171805E+04  0.17293099750E+04  0.00000000000E+00 0. -1.
<mgrwt>
<rscale>  0 0.22801693E+04</rscale>
<asrwt>0</asrwt>
<pdfrwt beam="1">  1        2 0.35678303E+00 0.22801693E+04</pdfrwt>
<pdfrwt beam="2">  1       -2 0.86227005E-01 0.22801693E+04</pdfrwt>
<totfact> 0.46817953E+00</totfact>
</mgrwt>
</event>
<event>
 6    1  0.8968082E-007  0.2634645E+04  0.7818608E-02  0.8356527E-01
         -2   -1    0    0    0  501 -0.00000000000E+00  0.00000000000E+00  0.64150464369E+03  0.64150464369E+03  0.00000000000E+00 0.  1.
          2   -1    0    0  501    0  0.00000000000E+00 -0.00000000000E+00 -0.27051065165E+04  0.27051065165E+04  0.00000000000E+00 0. -1.
         23    2    1    2    0    0  0.10983812363E+04 -0.69433551309E+03 -0.12948155822E+04  0.18367848438E+04  0.93209578017E+02 0.  0.
         11    1    3    3    0    0  0.46419313497E+03 -0.24990033950E+03 -0.48632646728E+03  0.71724394665E+03  0.00000000000E+00 0. -1.
        -11    1    3    3    0    0  0.63418810136E+03 -0.44443517359E+03 -0.80848911493E+03  0.11195408971E+04  0.00000000000E+00 0.  1.
         22    1    1    2    0    0 -0.10983812363E+04  0.69433551309E+03 -0.76878629062E+03  0.15098263164E+04  0.00000000000E+00 0.  1.
<mgrwt>
<rscale>  0 0.26346449E+04</rscale>
<asrwt>0</asrwt>
<pdfrwt beam="1">  1        2 0.41617023E+00 0.26346449E+04</pdfrwt>
<pdfrwt beam="2">  1       -2 0.98693023E-01 0.26346449E+04</pdfrwt>
<totfact> 0.19814210E+00</totfact>
</mgrwt>
</event>
<event>
 6    1  0.8968082E-007  0.1244552E+04  0.7818608E-02  0.9074730E-01
          2   -1    0    0  501    0  0.00000000000E+00  0.00000000000E+00  0.10315426728E+04  0.10315426728E+04  0.00000000000E+00 0. -1.
         -2   -1    0    0    0  501 -0.00000000000E+00 -0.00000000000E+00 -0.37538689373E+03  0.37538689373E+03  0.00000000000E+00 0.  1.
         23    2    1    2    0    0 -0.13538492373E+03 -0.52892501109E+03  0.65921949739E+03  0.86094409854E+03  0.92539992143E+02 0.  0.
         13    1    3    3    0    0 -0.57414800427E+02 -0.38636585318E+03  0.44598117398E+03  0.59285262870E+03  0.00000000000E+00 0.  1.
        -13    1    3    3    0    0 -0.77970123300E+02 -0.14255915791E+03  0.21323832341E+03  0.26809146984E+03  0.00000000000E+00 0. -1.
         22    1    1    2    0    0  0.13538492373E+03  0.52892501109E+03 -0.30637182796E+01  0.54598546803E+03  0.00000000000E+00 0. -1.
<mgrwt>
<rscale>  0 0.12445523E+04</rscale>
<asrwt>0</asrwt>
<pdfrwt beam="1">  1        2 0.15869887E+00 0.12445523E+04</pdfrwt>
<pdfrwt beam="2">  1       -2 0.57751830E-01 0.12445523E+04</pdfrwt>
<totfact> 0.66414660E+01</totfact>
</mgrwt>
</event>
<event>
 6    1  0.8968082E-007  0.3467184E+04  0.7818608E-02  0.8121611E-01
         -1   -1    0    0    0  501 -0.00000000000E+00  0.00000000000E+00  0.11250695434E+04  0.11250695434E+04  0.00000000000E+00 0.  1.
          1   -1    0    0  501    0  0.00000000000E+00 -0.00000000000E+00 -0.26712488050E+04  0.26712488050E+04  0.00000000000E+00 0. -1.
         23    2    1    2    0    0  0.40869307342E+03 -0.14074018472E+04  0.23781043282E+03  0.14875461168E+04  0.91813179507E+02 0.  0.
         11    1    3    3    0    0  0.29299442206E+03 -0.84854511131E+03  0.14439750117E+03  0.90924428820E+03  0.00000000000E+00 0.  1.
        -11    1    3    3    0    0  0.11569865136E+03 -0.55885673591E+03  0.93412931652E+02  0.57830182863E+03  0.00000000000E+00 0. -1.
         22    1    1    2    0    0 -0.40869307342E+03  0.14074018472E+04 -0.17839896944E+04  0.23087722316E+04  0.00000000000E+00 0. -1.
<mgrwt>
<rscale>  0 0.34671837E+04</rscale>
<asrwt>0</asrwt>
<pdfrwt beam="1">  1        1 0.41096135E+00 0.34671837E+04</pdfrwt>
<pdfrwt beam="2">  1       -1 0.17308762E+00 0.34671837E+04</pdfrwt>
<totfact> 0.19641885E-01</totfact>
</mgrwt>
</event>
<event>
 6    1  0.8968082E-007  0.7651718E+03  0.7818608E-02  0.9611844E-01
         -1   -1    0    0    0  501 -0.00000000000E+00  0.00000000000E+00  0.37098807168E+03  0.37098807168E+03  0.00000000000E+00 0.  1.
          1   -1    0    0  501    0  0.00000000000E+00 -0.00000000000E+00 -0.39454631535E+03  0.39454631535E+03  0.00000000000E+00 0. -1.
         23    2    1    2    0    0  0.35367303749E+03 -0.33214835653E+01  0.11925365918E+03  0.38410170712E+03  0.90647870819E+02 0.  0.
         11    1    3    3    0    0  0.20616817568E+03 -0.46401302320E+02  0.64023672389E+02  0.22081084246E+03  0.00000000000E+00 0. -1.
        -11    1    3    3    0    0  0.14750486181E+03  0.43079818754E+02  0.55229986794E+02  0.16329086466E+03  0.00000000000E+00 0.  1.
         22    1    1    2    0    0 -0.35367303749E+03  0.33214835653E+01 -0.14281190285E+03  0.38143267990E+03  0.00000000000E+00 0.  1.
<mgrwt>
<rscale>  0 0.76517182E+03</rscale>
<asrwt>0</asrwt>
<pdfrwt beam="1">  1        1 0.60699433E-01 0.76517182E+03</pdfrwt>
<pdfrwt beam="2">  1       -1 0.57075088E-01 0.76517182E+03</pdfrwt>
<totfact> 0.19238656E+02</totfact>
</mgrwt>
</event>
<event>
 6    1  0.8968082E-007  0.5071550E+03  0.7818608E-02  0.1011928E+00
          2   -1    0    0  501    0  0.00000000000E+00  0.00000000000E+00  0.44012193868E+03  0.44012193868E+03  0.00000000000E+00 0. -1.
         -2   -1    0    0    0  501 -0.00000000000E+00 -0.00000000000E+00 -0.14609937454E+03  0.14609937454E+03  0.00000000000E+00 0.  1.
         23    2    1    2    0    0 -0.13689693854E+03 -0.59675088216E+01 -0.83161037909E+02  0.18491861875E+03  0.92210381143E+02 0.  0.
         11    1    3    3    0    0 -0.36892987823E+02 -0.35171142410E+02 -0.59008009427E+02  0.77974656045E+02  0.00000000000E+00 0. -1.
        -11    1    3    3    0    0 -0.10000395072E+03  0.29203633588E+02 -0.24153028482E+02  0.10694396270E+03  0.00000000000E+00 0.  1.
         22    1    1    2    0    0  0.13689693854E+03  0.59675088216E+01  0.37718360205E+03  0.40130269448E+03  0.00000000000E+00 0. -1.
<mgrwt>
<rscale>  0 0.50715497E+03</rscale>
<asrwt>0</asrwt>
<pdfrwt beam="1">  1        2 0.67711067E-01 0.50715497E+03</pdfrwt>
<pdfrwt beam="2">  1       -2 0.22476827E-01 0.50715497E+03</pdfrwt>
<totfact> 0.12383335E+03</totfact>
</mgrwt>
</event>
<event>
 6    1  0.8968082E-007  0.9825581E+03  0.7818608E-02  0.9327884E-01
          2   -1    0    0  501    0  0.00000000000E+00  0.00000000000E+00  0.54294438223E+03  0.54294438223E+03  0.00000000000E+00 0. -1.
         -2   -1    0    0    0  501 -0.00000000000E+00 -0.00000000000E+00 -0.44453008635E+03  0.44453008635E+03  0.00000000000E+00 0.  1.
         23    2    1    2    0    0  0.64206354263E+01 -0.12789615317E+03 -0.42256354686E+03  0.45098908836E+03  0.91828950382E+02 0.  0.
         13    1    3    3    0    0  0.23719540246E+02 -0.11112277234E+03 -0.22602137198E+03  0.25297538954E+03  0.00000000000E+00 0.  1.
        -13    1    3    3    0    0 -0.17298904820E+02 -0.16773380834E+02 -0.19654217489E+03  0.19801369882E+03  0.00000000000E+00 0. -1.
         22    1    1    2    0    0 -0.64206354263E+01  0.12789615317E+03  0.52097784274E+03  0.53648538021E+03  0.00000000000E+00 0. -1.
<mgrwt>
<rscale>  0 0.98255812E+03</rscale>
<asrwt>0</asrwt>
<pdfrwt beam="1">  1        2 0.83529905E-01 0.98255812E+03</pdfrwt>
<pdfrwt beam="2">  1       -2 0.68389244E-01 0.98255812E+03</pdfrwt>
<totfact> 0.10933561E+02</totfact>
</mgrwt>
</event>
<event>
 6    1  0.8968082E-007  0.1257306E+04  0.7818608E-02  0.9064124E-01
          2   -1    0    0  501    0  0.00000000000E+00  0.00000000000E+00  0.19867686731E+04  0.19867686731E+04  0.00000000000E+00 0. -1.
         -2   -1    0    0    0  501 -0.00000000000E+00 -0.00000000000E+00 -0.19891825054E+03  0.19891825054E+03  0.00000000000E+00 0.  1.
         23    2    1    2    0    0  0.42793618418E+03 -0.30862203762E+03  0.14812377283E+04  0.15754506710E+04  0.97993209038E+02 0.  0.
         11    1    3    3    0    0  0.66720679515E+02 -0.91874380571E+01  0.17612745276E+03  0.18856547327E+03  0.00000000000E+00 0. -1.
        -11    1    3    3    0    0  0.36121550467E+03 -0.29943459957E+03  0.13051102755E+04  0.13868851977E+04  0.00000000000E+00 0.  1.
         22    1    1    2    0    0 -0.42793618418E+03  0.30862203762E+03  0.30661269429E+03  0.61023625273E+03  0.00000000000E+00 0.  1.
<mgrwt>
<rscale>  0 0.12573059E+04</rscale>
<asrwt>0</asrwt>
<pdfrwt beam="1">  1        2 0.30565671E+00 0.12573059E+04</pdfrwt>
<pdfrwt beam="2">  1       -2 0.30602809E-01 0.12573059E+04</pdfrwt>
<totfact> 0.66061728E+01</totfact>
</mgrwt>
</event>
<event>
 6    1  0.8968082E-007  0.3548163E+04  0.7818608E-02  0.8102470E-01
         -2   -1    0    0    0  501 -0.00000000000E+00  0.00000000000E+00  0.12294914032E+04  0.12294914032E+04  0.00000000000E+00 0.  1.
          2   -1    0    0  501    0  0.00000000000E+00 -0.00000000000E+00 -0.25598924986E+04  0.25598924986E+04  0.00000000000E+00 0. -1.
         23    2    1    2    0    0 -0.17130429540E+03  0.17645022380E+04 -0.66236027602E+03  0.18948940375E+04  0.95336082249E+02 0.  0.
         13    1    3    3    0    0 -0.15641891965E+03  0.16917966637E+04 -0.61519507794E+03  0.18069609330E+04  0.00000000000E+00 0. -1.
        -13    1    3    3    0    0 -0.14885375750E+02  0.72705574357E+02 -0.47165198080E+02  0.87933104481E+02  0.00000000000E+00 0.  1.
         22    1    1    2    0    0  0.17130429540E+03 -0.17645022380E+04 -0.66804081935E+03  0.18944898643E+04  0.00000000000E+00 0. -1.
<mgrwt>
<rscale>  0 0.35481634E+04</rscale>
<asrwt>0</asrwt>
<pdfrwt beam="1">  1        2 0.39382961E+00 0.35481634E+04</pdfrwt>
<pdfrwt beam="2">  1       -2 0.18915252E+00 0.35481634E+04</pdfrwt>
<totfact> 0.41287825E-01</totfact>
</mgrwt>
</event>
<event>
 6    1  0.8968082E-007  0.8179921E+03  0.7818608E-02  0.9534333E-01
         -2   -1    0    0    0  501 -0.00000000000E+00  0.00000000000E+00  0.32073827181E+03  0.32073827181E+03  0.00000000000E+00 0.  1.
          2   -1    0    0  501    0  0.00000000000E+00 -0.00000000000E+00 -0.52153975022E+03  0.52153975022E+03  0.00000000000E+00 0. -1.
         23    2    1    2    0    0 -0.10834790992E+03  0.28472069495E+03 -0.37496296791E+03  0.49136867741E+03  0.89670542087E+02 0.  0.
         11    1    3    3    0    0 -0.63949653672E+02  0.21515515561E+03 -0.21222910618E+03  0.30890531348E+03  0.00000000000E+00 0. -1.
        -11    1    3    3    0    0 -0.44398256248E+02  0.69565539349E+02 -0.16273386172E+03  0.18246336392E+03  0.00000000000E+00 0.  1.
         22    1    1    2    0    0  0.10834790992E+03 -0.28472069495E+03  0.17416148950E+03  0.35090934462E+03  0.00000000000E+00 0.  1.
<mgrwt>
<rscale>  0 0.81799207E+03</rscale>
<asrwt>0</asrwt>
<pdfrwt beam="1">  1        2 0.80236884E-01 0.81799207E+03</pdfrwt>
<pdfrwt beam="2">  1       -2 0.49344350E-01 0.81799207E+03</pdfrwt>
<totfact> 0.22934187E+02</totfact>
</mgrwt>
</event>
<event>
 6    1  0.8968082E-007  0.1550911E+04  0.7818608E-02  0.8851286E-01
          1   -1    0    0  501    0  0.00000000000E+00  0.00000000000E+00  0.80865149988E+03  0.80865149988E+03  0.00000000000E+00 0. -1.
         -1   -1    0    0    0  501 -0.00000000000E+00 -0.00000000000E+00 -0.74362187663E+03  0.74362187663E+03  0.00000000000E+00 0.  1.
         23    2    1    2    0    0 -0.59854305547E+03 -0.33491892199E+03 -0.32352258365E+03  0.76398580775E+03  0.92644367071E+02 0.  0.
         13    1    3    3    0    0 -0.20371162110E+03 -0.70376231641E+02 -0.12298914073E+03  0.24814827682E+03  0.00000000000E+00 0.  1.
        -13    1    3    3    0    0 -0.39483143438E+03 -0.26454269035E+03 -0.20053344291E+03  0.51583753093E+03  0.00000000000E+00 0. -1.
         22    1    1    2    0    0  0.59854305547E+03  0.33491892199E+03  0.38855220690E+03  0.78828756875E+03  0.00000000000E+00 0.  1.
<mgrwt>
<rscale>  0 0.15509106E+04</rscale>
<asrwt>0</asrwt>
<pdfrwt beam="1">  1        1 0.12440792E+00 0.15509106E+04</pdfrwt>
<pdfrwt beam="2">  1       -1 0.11440337E+00 0.15509106E+04</pdfrwt>
<totfact> 0.14553808E+01</totfact>
</mgrwt>
</event>
<event>
 6    1  0.8968082E-007  0.2085200E+04  0.7818608E-02  0.8567791E-01
         -1   -1    0    0    0  501 -0.00000000000E+00  0.00000000000E+00  0.16098593713E+04  0.16098593713E+04  0.00000000000E+00 0.  1.
          1   -1    0    0  501    0  0.00000000000E+00 -0.00000000000E+00 -0.67522351006E+03  0.67522351006E+03  0.00000000000E+00 0. -1.
         23    2    1    2    0    0 -0.89201754632E+03 -0.52228559754E+03  0.60024568839E+03  0.11986693615E+04  0.89642643154E+02 0.  0.
         13    1    3    3    0    0 -0.23564481487E+03 -0.93643484315E+02  0.14198903606E+03  0.29061738987E+03  0.00000000000E+00 0.  1.
        -13    1    3    3    0    0 -0.65637273145E+03 -0.42864211323E+03  0.45825665233E+03  0.90805197165E+03  0.00000000000E+00 0. -1.
         22    1    1    2    0    0  0.89201754632E+03  0.52228559754E+03  0.33439017282E+03  0.10864135198E+04  0.00000000000E+00 0.  1.
<mgrwt>
<rscale>  0 0.20852001E+04</rscale>
<asrwt>0</asrwt>
<pdfrwt beam="1">  1        1 0.10388054E+00 0.20852001E+04</pdfrwt>
<pdfrwt beam="2">  1       -1 0.24767067E+00 0.20852001E+04</pdfrwt>
<totfact> 0.19130627E+00</totfact>
</mgrwt>
</event>
<event>
 6    1  0.8968082E-007  0.3338356E+04  0.7818608E-02  0.8153204E-01
          2   -1    0    0  501    0  0.00000000000E+00  0.00000000000E+00  0.39356633274E+04  0.39356633274E+04  0.00000000000E+00 0. -1.
         -2   -1    0    0    0  501 -0.00000000000E+00 -0.00000000000E+00 -0.70792500041E+03  0.70792500041E+03  0.00000000000E+00 0.  1.
         23    2    1    2    0    0  0.37256752619E+03 -0.16128329523E+04  0.13304410779E+04  0.21256976342E+04  0.92088417000E+02 0.  0.
         13    1    3    3    0    0  0.22138093451E+03 -0.96143928426E+03  0.73464200595E+03  0.12300706859E+04  0.00000000000E+00 0.  1.
        -13    1    3    3    0    0  0.15118659167E+03 -0.65139366805E+03  0.59579907199E+03  0.89562694827E+03  0.00000000000E+00 0. -1.
         22    1    1    2    0    0 -0.37256752619E+03  0.16128329523E+04  0.18972972490E+04  0.25178906936E+04  0.00000000000E+00 0.  1.
<mgrwt>
<rscale>  0 0.33383556E+04</rscale>
<asrwt>0</asrwt>
<pdfrwt beam="1">  1        2 0.60548666E+00 0.33383556E+04</pdfrwt>
<pdfrwt beam="2">  1       -2 0.10891154E+00 0.33383556E+04</pdfrwt>
<totfact> 0.21544285E-01</totfact>
</mgrwt>
</event>
<event>
 6    1  0.1103538E-006  0.3797503E+04  0.7818608E-02  0.8046691E-01
          1   -1    0    0  501    0  0.00000000000E+00  0.00000000000E+00  0.18427541995E+04  0.18427541995E+04  0.00000000000E+00 0. -1.
         -1   -1    0    0    0  501 -0.00000000000E+00 -0.00000000000E+00 -0.19564501953E+04  0.19564501953E+04  0.00000000000E+00 0.  1.
         23    2    1    2    0    0 -0.14118434742E+04 -0.11239440857E+04  0.53042108474E+03  0.18831044191E+04  0.90462271756E+02 0.  0.
         11    1    3    3    0    0 -0.40296602553E+03 -0.37383582287E+03  0.16454641309E+03  0.57376856158E+03  0.00000000000E+00 0.  1.
        -11    1    3    3    0    0 -0.10088774486E+04 -0.75010826285E+03  0.36587467165E+03  0.13093358575E+04  0.00000000000E+00 0. -1.
         22    1    1    2    0    0  0.14118434742E+04  0.11239440857E+04 -0.64411708054E+03  0.19160999757E+04  0.00000000000E+00 0.  1.
<mgrwt>
<rscale>  0 0.37975028E+04</rscale>
<asrwt>0</asrwt>
<pdfrwt beam="1">  1        1 0.28350064E+00 0.37975028E+04</pdfrwt>
<pdfrwt beam="2">  1       -1 0.30099234E+00 0.37975028E+04</pdfrwt>
<totfact> 0.98665439E-02</totfact>
</mgrwt>
</event>
<event>
 6    1  0.8968082E-007  0.3568849E+04  0.7818608E-02  0.8097665E-01
          2   -1    0    0  501    0  0.00000000000E+00  0.00000000000E+00  0.19285887040E+04  0.19285887040E+04  0.00000000000E+00 0. -1.
         -2   -1    0    0    0  501 -0.00000000000E+00 -0.00000000000E+00 -0.16510371628E+04  0.16510371628E+04  0.00000000000E+00 0.  1.
         23    2    1    2    0    0 -0.30899293457E+03 -0.15848743848E+04  0.89789408510E+03  0.18498489097E+04  0.91780998082E+02 0.  0.
         13    1    3    3    0    0 -0.14765099311E+03 -0.89402050366E+03  0.46083503585E+03  0.10165836940E+04  0.00000000000E+00 0. -1.
        -13    1    3    3    0    0 -0.16134194147E+03 -0.69085388114E+03  0.43705904925E+03  0.83326521570E+03  0.00000000000E+00 0.  1.
         22    1    1    2    0    0  0.30899293457E+03  0.15848743848E+04 -0.62034254396E+03  0.17297769570E+04  0.00000000000E+00 0.  1.
<mgrwt>
<rscale>  0 0.35688495E+04</rscale>
<asrwt>0</asrwt>
<pdfrwt beam="1">  1        2 0.29670595E+00 0.35688495E+04</pdfrwt>
<pdfrwt beam="2">  1       -2 0.25400572E+00 0.35688495E+04</pdfrwt>
<totfact> 0.36323907E-01</totfact>
</mgrwt>
</event>
<event>
 6    1  0.8968082E-007  0.3155283E+04  0.7818608E-02  0.8200728E-01
          2   -1    0    0  501    0  0.00000000000E+00  0.00000000000E+00  0.19152461040E+04  0.19152461040E+04  0.00000000000E+00 0. -1.
         -2   -1    0    0    0  501 -0.00000000000E+00 -0.00000000000E+00 -0.12995471448E+04  0.12995471448E+04  0.00000000000E+00 0.  1.
         23    2    1    2    0    0  0.46799165616E+03  0.12576719702E+04  0.11502223067E+04  0.17703313476E+04  0.10152216753E+03 0.  0.
         11    1    3    3    0    0  0.36278554693E+03  0.85157391271E+03  0.81624239883E+03  0.12341163379E+04  0.00000000000E+00 0. -1.
        -11    1    3    3    0    0  0.10520610923E+03  0.40609805751E+03  0.33397990791E+03  0.53621500969E+03  0.00000000000E+00 0.  1.
         22    1    1    2    0    0 -0.46799165616E+03 -0.12576719702E+04 -0.53452334754E+03  0.14444619012E+04  0.00000000000E+00 0.  1.
<mgrwt>
<rscale>  0 0.31552829E+04</rscale>
<asrwt>0</asrwt>
<pdfrwt beam="1">  1        2 0.29465325E+00 0.31552829E+04</pdfrwt>
<pdfrwt beam="2">  1       -2 0.19993033E+00 0.31552829E+04</pdfrwt>
<totfact> 0.83803950E-01</totfact>
</mgrwt>
</event>
<event>
 6    1  0.8968082E-007  0.1982514E+04  0.7818608E-02  0.8614840E-01
          1   -1    0    0  501    0  0.00000000000E+00  0.00000000000E+00  0.15700109361E+04  0.15700109361E+04  0.00000000000E+00 0. -1.
         -1   -1    0    0    0  501 -0.00000000000E+00 -0.00000000000E+00 -0.62584941950E+03  0.62584941950E+03  0.00000000000E+00 0.  1.
         23    2    1    2    0    0  0.59630992363E+03 -0.77169381796E+03  0.28997961786E+03  0.10215304061E+04  0.91319866459E+02 0.  0.
         11    1    3    3    0    0  0.54515675630E+03 -0.66827300505E+03  0.27482612302E+03  0.90515970752E+03  0.00000000000E+00 0. -1.
        -11    1    3    3    0    0  0.51153167335E+02 -0.10342081291E+03  0.15153494837E+02  0.11637069854E+03  0.00000000000E+00 0.  1.
         22    1    1    2    0    0 -0.59630992363E+03  0.77169381796E+03  0.65418189871E+03  0.11743299495E+04  0.00000000000E+00 0. -1.
<mgrwt>
<rscale>  0 0.19825140E+04</rscale>
<asrwt>0</asrwt>
<pdfrwt beam="1">  1        1 0.24154014E+00 0.19825140E+04</pdfrwt>
<pdfrwt beam="2">  1       -1 0.96284527E-01 0.19825140E+04</pdfrwt>
<totfact> 0.56471947E+00</totfact>
</mgrwt>
</event>
<event>
 6    1  0.8968082E-007  0.3373670E+04  0.7818608E-02  0.8144399E-01
          2   -1    0    0  501    0  0.00000000000E+00  0.00000000000E+00  0.32231256433E+04  0.32231256433E+04  0.00000000000E+00 0. -1.
         -2   -1    0    0    0  501 -0.00000000000E+00 -0.00000000000E+00 -0.88281131299E+03  0.88281131299E+03  0.00000000000E+00 0.  1.
         23    2    1    2    0    0  0.15054227065E+04 -0.33656070737E+03  0.19979872930E+04  0.25258235314E+04  0.90888137732E+02 0.  0.
         11    1    3    3    0    0  0.10790910680E+04 -0.20904181891E+03  0.13781485746E+04  0.17627902623E+04  0.00000000000E+00 0. -1.
        -11    1    3    3    0    0  0.42633163849E+03 -0.12751888847E+03  0.61983871843E+03  0.76303326910E+03  0.00000000000E+00 0.  1.
         22    1    1    2    0    0 -0.15054227065E+04  0.33656070737E+03  0.34232703729E+03  0.15801134249E+04  0.00000000000E+00 0. -1.
<mgrwt>
<rscale>  0 0.33736697E+04</rscale>
<asrwt>0</asrwt>
<pdfrwt beam="1">  1        2 0.49586548E+00 0.33736697E+04</pdfrwt>
<pdfrwt beam="2">  1       -2 0.13581713E+00 0.33736697E+04</pdfrwt>
<totfact> 0.40346578E-01</totfact>
</mgrwt>
</event>
<event>
 6    1  0.8968082E-007  0.2823124E+04  0.7818608E-02  0.8296125E-01
          2   -1    0    0  501    0  0.00000000000E+00  0.00000000000E+00  0.28048580883E+04  0.28048580883E+04  0.00000000000E+00 0. -1.
         -2   -1    0    0    0  501 -0.00000000000E+00 -0.00000000000E+00 -0.71037745675E+03  0.71037745675E+03  0.00000000000E+00 0.  1.
         23    2    1    2    0    0  0.59569894719E+03  0.71159602390E+03 -0.27352949876E+03  0.97187200160E+03  0.92144798585E+02 0.  0.
         11    1    3    3    0    0  0.50326695222E+03  0.54330871914E+03 -0.21619655667E+03  0.77149396667E+03  0.00000000000E+00 0. -1.
        -11    1    3    3    0    0  0.92431994965E+02  0.16828730476E+03 -0.57332942086E+02  0.20037803494E+03  0.00000000000E+00 0.  1.
         22    1    1    2    0    0 -0.59569894719E+03 -0.71159602390E+03  0.23680101303E+04  0.25433635434E+04  0.00000000000E+00 0. -1.
<mgrwt>
<rscale>  0 0.28231245E+04</rscale>
<asrwt>0</asrwt>
<pdfrwt beam="1">  1        2 0.43151662E+00 0.28231245E+04</pdfrwt>
<pdfrwt beam="2">  1       -2 0.10928884E+00 0.28231245E+04</pdfrwt>
<totfact> 0.13308465E+00</totfact>
</mgrwt>
</event>
<event>
 6    1  0.8968082E-007  0.1451852E+04  0.7818608E-02  0.8917118E-01
         -2   -1    0    0    0  501 -0.00000000000E+00  0.00000000000E+00  0.15497564713E+04  0.15497564713E+04  0.00000000000E+00 0.  1.
          2   -1    0    0  501    0  0.00000000000E+00 -0.00000000000E+00 -0.34003316045E+03  0.34003316045E+03  0.00000000000E+00 0. -1.
         23    2    1    2    0    0 -0.37611383495E+02 -0.27066514164E+03 -0.26407892544E+03  0.39086759684E+03  0.91463458982E+02 0.  0.
         11    1    3    3    0    0 -0.12154701224E+02 -0.23321242405E+03 -0.17810290166E+03  0.29369442466E+03  0.00000000000E+00 0.  1.
        -11    1    3    3    0    0 -0.25456682271E+02 -0.37452717588E+02 -0.85976023780E+02  0.97173172182E+02  0.00000000000E+00 0. -1.
         22    1    1    2    0    0  0.37611383495E+02  0.27066514164E+03  0.14738022363E+04  0.14989220349E+04  0.00000000000E+00 0.  1.
<mgrwt>
<rscale>  0 0.14518520E+04</rscale>
<asrwt>0</asrwt>
<pdfrwt beam="1">  1        2 0.52312795E-01 0.14518520E+04</pdfrwt>
<pdfrwt beam="2">  1       -2 0.23842407E+00 0.14518520E+04</pdfrwt>
<totfact> 0.70135679E+00</totfact>
</mgrwt>
</event>
<event>
 6    1  0.8968082E-007  0.1005750E+04  0.7818608E-02  0.9302261E-01
          1   -1    0    0  501    0  0.00000000000E+00  0.00000000000E+00  0.13736338762E+04  0.13736338762E+04  0.00000000000E+00 0. -1.
         -1   -1    0    0    0  501 -0.00000000000E+00 -0.00000000000E+00 -0.18409788771E+03  0.18409788771E+03  0.00000000000E+00 0.  1.
         23    2    1    2    0    0 -0.93245052499E+02 -0.10385206716E+03  0.13413043086E+04  0.13515437074E+04  0.89962509258E+02 0.  0.
         11    1    3    3    0    0 -0.37686352526E+01  0.30315177850E+01  0.39486408796E+03  0.39489370807E+03  0.00000000000E+00 0. -1.
        -11    1    3    3    0    0 -0.89476417246E+02 -0.10688358494E+03  0.94644022066E+03  0.95664999935E+03  0.00000000000E+00 0.  1.
         22    1    1    2    0    0  0.93245052499E+02  0.10385206716E+03 -0.15176832010E+03  0.20618805653E+03  0.00000000000E+00 0.  1.
<mgrwt>
<rscale>  0 0.10057497E+04</rscale>
<asrwt>0</asrwt>
<pdfrwt beam="1">  1        1 0.21132828E+00 0.10057497E+04</pdfrwt>
<pdfrwt beam="2">  1       -1 0.28322753E-01 0.10057497E+04</pdfrwt>
<totfact> 0.90644889E+01</totfact>
</mgrwt>
</event>
<event>
 6    1  0.8968082E-007  0.2831892E+04  0.7818608E-02  0.8293435E-01
         -2   -1    0    0    0  501 -0.00000000000E+00  0.00000000000E+00  0.46553022016E+03  0.46553022016E+03  0.00000000000E+00 0.  1.
          2   -1    0    0  501    0  0.00000000000E+00 -0.00000000000E+00 -0.43067075185E+04  0.43067075185E+04  0.00000000000E+00 0. -1.
         23    2    1    2    0    0  0.11673469701E+04  0.20053323307E+03 -0.32256742696E+04  0.34374132166E+04  0.89008999550E+02 0.  0.
         11    1    3    3    0    0  0.62796994919E+03  0.66807817155E+02 -0.17686344891E+04  0.18779982688E+04  0.00000000000E+00 0.  1.
        -11    1    3    3    0    0  0.53937702094E+03  0.13372541591E+03 -0.14570397805E+04  0.15594149479E+04  0.00000000000E+00 0. -1.
         22    1    1    2    0    0 -0.11673469701E+04 -0.20053323307E+03 -0.61550302871E+03  0.13348245220E+04  0.00000000000E+00 0. -1.
<mgrwt>
<rscale>  0 0.28318916E+04</rscale>
<asrwt>0</asrwt>
<pdfrwt beam="1">  1        2 0.66257035E+00 0.28318916E+04</pdfrwt>
<pdfrwt beam="2">  1       -2 0.71620038E-01 0.28318916E+04</pdfrwt>
<totfact> 0.28727085E-01</totfact>
</mgrwt>
</event>
<event>
 6    1  0.8968082E-007  0.1982508E+04  0.7818608E-02  0.8614843E-01
         -1   -1    0    0    0  501 -0.00000000000E+00  0.00000000000E+00  0.81987134791E+03  0.81987134791E+03  0.00000000000E+00 0.  1.
          1   -1    0    0  501    0  0.00000000000E+00 -0.00000000000E+00 -0.11984621826E+04  0.11984621826E+04  0.00000000000E+00 0. -1.
         23    2    1    2    0    0  0.40933171440E+03 -0.20275908352E+03 -0.10832725813E+04  0.11785478064E+04  0.82654390048E+02 0.  0.
         13    1    3    3    0    0  0.27168428410E+03 -0.89875216513E+02 -0.67485589622E+03  0.73302140858E+03  0.00000000000E+00 0.  1.
        -13    1    3    3    0    0  0.13764743030E+03 -0.11288386701E+03 -0.40841668507E+03  0.44552639780E+03  0.00000000000E+00 0. -1.
         22    1    1    2    0    0 -0.40933171440E+03  0.20275908352E+03  0.70468174662E+03  0.83978572409E+03  0.00000000000E+00 0.  1.
<mgrwt>
<rscale>  0 0.19825083E+04</rscale>
<asrwt>0</asrwt>
<pdfrwt beam="1">  1        1 0.18437880E+00 0.19825083E+04</pdfrwt>
<pdfrwt beam="2">  1       -1 0.12613405E+00 0.19825083E+04</pdfrwt>
<totfact> 0.54464417E+00</totfact>
</mgrwt>
</event>
<event>
 6    1  0.8968082E-007  0.1780536E+04  0.7818608E-02  0.8716719E-01
         -2   -1    0    0    0  501 -0.00000000000E+00  0.00000000000E+00  0.29095378172E+03  0.29095378172E+03  0.00000000000E+00 0.  1.
          2   -1    0    0  501    0  0.00000000000E+00 -0.00000000000E+00 -0.27240658154E+04  0.27240658154E+04  0.00000000000E+00 0. -1.
         23    2    1    2    0    0 -0.74226123136E+03 -0.70901091304E+02 -0.20360978425E+04  0.21702717245E+04  0.91685514410E+02 0.  0.
         11    1    3    3    0    0 -0.51465822487E+03 -0.91941949596E+01 -0.14390234550E+04  0.15283147993E+04  0.00000000000E+00 0. -1.
        -11    1    3    3    0    0 -0.22760300648E+03 -0.61706896345E+02 -0.59707438755E+03  0.64195692526E+03  0.00000000000E+00 0.  1.
         22    1    1    2    0    0  0.74226123136E+03  0.70901091304E+02 -0.39701419117E+03  0.84474787263E+03  0.00000000000E+00 0.  1.
<mgrwt>
<rscale>  0 0.17805362E+04</rscale>
<asrwt>0</asrwt>
<pdfrwt beam="1">  1        2 0.41908706E+00 0.17805362E+04</pdfrwt>
<pdfrwt beam="2">  1       -2 0.44762119E-01 0.17805362E+04</pdfrwt>
<totfact> 0.11524009E+01</totfact>
</mgrwt>
</event>
<event>
 6    1  0.8968082E-007  0.2012050E+04  0.7818608E-02  0.8601007E-01
         -2   -1    0    0    0  501 -0.00000000000E+00  0.00000000000E+00  0.29041557475E+04  0.29041557475E+04  0.00000000000E+00 0.  1.
          2   -1    0    0  501    0  0.00000000000E+00 -0.00000000000E+00 -0.34849597143E+03  0.34849597143E+03  0.00000000000E+00 0. -1.
         23    2    1    2    0    0  0.56057950062E+03 -0.89308873406E+02  0.26191068231E+04  0.26814678789E+04  0.91235867506E+02 0.  0.
         13    1    3    3    0    0  0.30419535481E+03 -0.94137860714E+02  0.14290655188E+04  0.14641123617E+04  0.00000000000E+00 0. -1.
        -13    1    3    3    0    0  0.25638414581E+03  0.48289873076E+01  0.11900413043E+04  0.12173555172E+04  0.00000000000E+00 0.  1.
         22    1    1    2    0    0 -0.56057950062E+03  0.89308873406E+02 -0.63447046973E+02  0.57118384007E+03  0.00000000000E+00 0. -1.
<mgrwt>
<rscale>  0 0.20120503E+04</rscale>
<asrwt>0</asrwt>
<pdfrwt beam="1">  1        2 0.53614767E-01 0.20120503E+04</pdfrwt>
<pdfrwt beam="2">  1       -2 0.44679318E+00 0.20120503E+04</pdfrwt>
<totfact> 0.31463988E-01</totfact>
</mgrwt>
</event>
<event>
 6    1  0.8968082E-007  0.1187467E+04  0.7818608E-02  0.9123898E-01
          2   -1    0    0  501    0  0.00000000000E+00  0.00000000000E+00  0.95523332701E+03  0.95523332701E+03  0.00000000000E+00 0. -1.
         -2   -1    0    0    0  501 -0.00000000000E+00 -0.00000000000E+00 -0.36904009812E+03  0.36904009812E+03  0.00000000000E+00 0.  1.
         23    2    1    2    0    0  0.20918660451E+03 -0.47885051299E+03  0.60051300436E+03  0.80152883620E+03  0.93679013385E+02 0.  0.
         13    1    3    3    0    0  0.98184356159E+02 -0.26802187234E+03  0.39198074872E+03  0.48489668922E+03  0.00000000000E+00 0.  1.
        -13    1    3    3    0    0  0.11100224835E+03 -0.21082864065E+03  0.20853225564E+03  0.31663214698E+03  0.00000000000E+00 0. -1.
         22    1    1    2    0    0 -0.20918660451E+03  0.47885051299E+03 -0.14319775471E+02  0.52274458894E+03  0.00000000000E+00 0.  1.
<mgrwt>
<rscale>  0 0.11874669E+04</rscale>
<asrwt>0</asrwt>
<pdfrwt beam="1">  1        2 0.14695897E+00 0.11874669E+04</pdfrwt>
<pdfrwt beam="2">  1       -2 0.56775400E-01 0.11874669E+04</pdfrwt>
<totfact> 0.77395752E+01</totfact>
</mgrwt>
</event>
<event>
 6    1  0.8968082E-007  0.1349837E+04  0.7818608E-02  0.8990951E-01
         -2   -1    0    0    0  501 -0.00000000000E+00  0.00000000000E+00  0.19413616945E+04  0.19413616945E+04  0.00000000000E+00 0.  1.
          2   -1    0    0  501    0  0.00000000000E+00 -0.00000000000E+00 -0.23463687096E+03  0.23463687096E+03  0.00000000000E+00 0. -1.
         23    2    1    2    0    0  0.42622765931E+03 -0.29900452485E+03  0.15416890475E+04  0.16298204527E+04  0.91846967615E+02 0.  0.
         13    1    3    3    0    0  0.12991002336E+03 -0.46125046391E+02  0.45453194612E+03  0.47497728800E+03  0.00000000000E+00 0.  1.
        -13    1    3    3    0    0  0.29631763595E+03 -0.25287947846E+03  0.10871571014E+04  0.11548431647E+04  0.00000000000E+00 0. -1.
         22    1    1    2    0    0 -0.42622765931E+03  0.29900452485E+03  0.16503577602E+03  0.54617811271E+03  0.00000000000E+00 0. -1.
<mgrwt>
<rscale>  0 0.13498371E+04</rscale>
<asrwt>0</asrwt>
<pdfrwt beam="1">  1        2 0.36097982E-01 0.13498371E+04</pdfrwt>
<pdfrwt beam="2">  1       -2 0.29867102E+00 0.13498371E+04</pdfrwt>
<totfact> 0.45963476E+00</totfact>
</mgrwt>
</event>
<event>
 6    1  0.8968082E-007  0.2784170E+04  0.7818608E-02  0.8308200E-01
          2   -1    0    0  501    0  0.00000000000E+00  0.00000000000E+00  0.93571578152E+03  0.93571578152E+03  0.00000000000E+00 0. -1.
         -2   -1    0    0    0  501 -0.00000000000E+00 -0.00000000000E+00 -0.20710360998E+04  0.20710360998E+04  0.00000000000E+00 0.  1.
         23    2    1    2    0    0  0.36198550991E+03 -0.12459797869E+03 -0.20120212391E+04  0.20501105325E+04  0.90363503878E+02 0.  0.
         13    1    3    3    0    0  0.13569899871E+03 -0.12996871620E+02 -0.56164984592E+03  0.57795647444E+03  0.00000000000E+00 0.  1.
        -13    1    3    3    0    0  0.22628651120E+03 -0.11160110707E+03 -0.14503713932E+04  0.14721540580E+04  0.00000000000E+00 0. -1.
         22    1    1    2    0    0 -0.36198550991E+03  0.12459797869E+03  0.87670092087E+03  0.95664134885E+03  0.00000000000E+00 0. -1.
<mgrwt>
<rscale>  0 0.27841704E+04</rscale>
<asrwt>0</asrwt>
<pdfrwt beam="1">  1        2 0.14395627E+00 0.27841704E+04</pdfrwt>
<pdfrwt beam="2">  1       -2 0.31862094E+00 0.27841704E+04</pdfrwt>
<totfact> 0.59034178E-01</totfact>
</mgrwt>
</event>
<event>
 6    1  0.8968082E-007  0.1390950E+04  0.7818608E-02  0.8960396E-01
         -2   -1    0    0    0  501 -0.00000000000E+00  0.00000000000E+00  0.17861311575E+04  0.17861311575E+04  0.00000000000E+00 0.  1.
          2   -1    0    0  501    0  0.00000000000E+00 -0.00000000000E+00 -0.27080048383E+03  0.27080048383E+03  0.00000000000E+00 0. -1.
         23    2    1    2    0    0 -0.34735864925E+03  0.46506336891E+03  0.13194427612E+04  0.14443028446E+04  0.90219391294E+02 0.  0.
         13    1    3    3    0    0 -0.15538170255E+03  0.24711493839E+03  0.56651177127E+03  0.63729494996E+03  0.00000000000E+00 0. -1.
        -13    1    3    3    0    0 -0.19197694670E+03  0.21794843052E+03  0.75293098992E+03  0.80700789464E+03  0.00000000000E+00 0.  1.
         22    1    1    2    0    0  0.34735864925E+03 -0.46506336891E+03  0.19588791245E+03  0.61262879671E+03  0.00000000000E+00 0. -1.
<mgrwt>
<rscale>  0 0.13909496E+04</rscale>
<asrwt>0</asrwt>
<pdfrwt beam="1">  1        2 0.41661614E-01 0.13909496E+04</pdfrwt>
<pdfrwt beam="2">  1       -2 0.27478940E+00 0.13909496E+04</pdfrwt>
<totfact> 0.54476365E+00</totfact>
</mgrwt>
</event>
<event>
 6    1  0.8968082E-007  0.2593483E+03  0.7818608E-02  0.1107535E+00
          2   -1    0    0  501    0  0.00000000000E+00  0.00000000000E+00  0.30834026688E+03  0.30834026688E+03  0.00000000000E+00 0. -1.
         -2   -1    0    0    0  501 -0.00000000000E+00 -0.00000000000E+00 -0.54535154891E+02  0.54535154891E+02  0.00000000000E+00 0.  1.
         23    2    1    2    0    0  0.66449492397E+02 -0.81836621233E+01  0.14335047445E+02  0.11422221110E+03  0.91425994975E+02 0.  0.
         13    1    3    3    0    0  0.73911799991E+02  0.22713624374E+02 -0.41821807395E+01  0.77436125587E+02  0.00000000000E+00 0. -1.
        -13    1    3    3    0    0 -0.74623075942E+01 -0.30897286497E+02  0.18517228185E+02  0.36786085510E+02  0.00000000000E+00 0.  1.
         22    1    1    2    0    0 -0.66449492397E+02  0.81836621233E+01  0.23947006454E+03  0.24865321067E+03  0.00000000000E+00 0. -1.
<mgrwt>
<rscale>  0 0.25934829E+03</rscale>
<asrwt>0</asrwt>
<pdfrwt beam="1">  1        2 0.47436963E-01 0.25934829E+03</pdfrwt>
<pdfrwt beam="2">  1       -2 0.83900240E-02 0.25934829E+03</pdfrwt>
<totfact> 0.92044129E+03</totfact>
</mgrwt>
</event>
<event>
 6    1  0.8968082E-007  0.5189805E+04  0.7818608E-02  0.7799877E-01
         -1   -1    0    0    0  501 -0.00000000000E+00  0.00000000000E+00  0.36217810272E+04  0.36217810272E+04  0.00000000000E+00 0.  1.
          1   -1    0    0  501    0  0.00000000000E+00 -0.00000000000E+00 -0.18591730977E+04  0.18591730977E+04  0.00000000000E+00 0. -1.
         23    2    1    2    0    0 -0.17027298932E+04 -0.18804430255E+04  0.31198051228E+03  0.25586818985E+04  0.11902166382E+03 0.  0.
         11    1    3    3    0    0 -0.11844384380E+04 -0.12269111841E+04  0.22213625981E+03  0.17197528849E+04  0.00000000000E+00 0. -1.
        -11    1    3    3    0    0 -0.51829145515E+03 -0.65353184139E+03  0.89844252472E+02  0.83892901362E+03  0.00000000000E+00 0.  1.
         22    1    1    2    0    0  0.17027298932E+04  0.18804430255E+04  0.14506274173E+04  0.29222722264E+04  0.00000000000E+00 0.  1.
<mgrwt>
<rscale>  0 0.51898046E+04</rscale>
<asrwt>0</asrwt>
<pdfrwt beam="1">  1        1 0.28602663E+00 0.51898046E+04</pdfrwt>
<pdfrwt beam="2">  1       -1 0.55719708E+00 0.51898046E+04</pdfrwt>
<totfact> 0.18402428E-03</totfact>
</mgrwt>
</event>
<event>
 6    1  0.8968082E-007  0.2262932E+04  0.7818608E-02  0.8492682E-01
          2   -1    0    0  501    0  0.00000000000E+00  0.00000000000E+00  0.92389470027E+03  0.92389470027E+03  0.00000000000E+00 0. -1.
         -2   -1    0    0    0  501 -0.00000000000E+00 -0.00000000000E+00 -0.13856722596E+04  0.13856722596E+04  0.00000000000E+00 0.  1.
         23    2    1    2    0    0  0.24671373818E+03  0.72269662618E+03 -0.10807621609E+04  0.13265613551E+04  0.92520798666E+02 0.  0.
         13    1    3    3    0    0  0.14093404130E+03  0.49953992331E+03 -0.67388241453E+03  0.85059981635E+03  0.00000000000E+00 0. -1.
        -13    1    3    3    0    0  0.10577969689E+03  0.22315670287E+03 -0.40687974638E+03  0.47596153870E+03  0.00000000000E+00 0.  1.
         22    1    1    2    0    0 -0.24671373818E+03 -0.72269662618E+03  0.61898460158E+03  0.98300560481E+03  0.00000000000E+00 0. -1.
<mgrwt>
<rscale>  0 0.22629320E+04</rscale>
<asrwt>0</asrwt>
<pdfrwt beam="1">  1        2 0.14213765E+00 0.22629320E+04</pdfrwt>
<pdfrwt beam="2">  1       -2 0.21318035E+00 0.22629320E+04</pdfrwt>
<totfact> 0.28060715E+00</totfact>
</mgrwt>
</event>
<event>
 6    1  0.8968082E-007  0.1457245E+04  0.7818608E-02  0.8913393E-01
          1   -1    0    0  501    0  0.00000000000E+00  0.00000000000E+00  0.69624703054E+03  0.69624703054E+03  0.00000000000E+00 0. -1.
         -1   -1    0    0    0  501 -0.00000000000E+00 -0.00000000000E+00 -0.76250359362E+03  0.76250359362E+03  0.00000000000E+00 0.  1.
         23    2    1    2    0    0 -0.31995092633E+03 -0.21487205386E+03 -0.64897889351E+03  0.76010628748E+03  0.89718277148E+02 0.  0.
         13    1    3    3    0    0 -0.20291465674E+03 -0.84986014164E+02 -0.33623884515E+03  0.40181281900E+03  0.00000000000E+00 0.  1.
        -13    1    3    3    0    0 -0.11703626958E+03 -0.12988603969E+03 -0.31274004836E+03  0.35829346848E+03  0.00000000000E+00 0. -1.
         22    1    1    2    0    0  0.31995092633E+03  0.21487205386E+03  0.58272233043E+03  0.69864433668E+03  0.00000000000E+00 0. -1.
<mgrwt>
<rscale>  0 0.14572452E+04</rscale>
<asrwt>0</asrwt>
<pdfrwt beam="1">  1        1 0.10711493E+00 0.14572452E+04</pdfrwt>
<pdfrwt beam="2">  1       -1 0.11730825E+00 0.14572452E+04</pdfrwt>
<totfact> 0.17451005E+01</totfact>
</mgrwt>
</event>
<event>
 6    1  0.8968082E-007  0.6022259E+03  0.7818608E-02  0.9900799E-01
          2   -1    0    0  501    0  0.00000000000E+00  0.00000000000E+00  0.40150482983E+03  0.40150482983E+03  0.00000000000E+00 0. -1.
         -2   -1    0    0    0  501 -0.00000000000E+00 -0.00000000000E+00 -0.22582293330E+03  0.22582293330E+03  0.00000000000E+00 0.  1.
         23    2    1    2    0    0 -0.22768297945E+02  0.29068849830E+03  0.51440715885E+02  0.31038286349E+03  0.93129889184E+02 0.  0.
         13    1    3    3    0    0 -0.36072917911E+02  0.76100183776E+02  0.44544909992E+02  0.95271939119E+02  0.00000000000E+00 0. -1.
        -13    1    3    3    0    0  0.13304619966E+02  0.21458831453E+03  0.68958058935E+01  0.21511092437E+03  0.00000000000E+00 0.  1.
         22    1    1    2    0    0  0.22768297945E+02 -0.29068849830E+03  0.12424118064E+03  0.31694489964E+03  0.00000000000E+00 0. -1.
<mgrwt>
<rscale>  0 0.60222587E+03</rscale>
<asrwt>0</asrwt>
<pdfrwt beam="1">  1        2 0.61769974E-01 0.60222587E+03</pdfrwt>
<pdfrwt beam="2">  1       -2 0.34741990E-01 0.60222587E+03</pdfrwt>
<totfact> 0.61927900E+02</totfact>
</mgrwt>
</event>
<event>
 6    1  0.8968082E-007  0.2742505E+04  0.7818608E-02  0.8321344E-01
         -1   -1    0    0    0  501 -0.00000000000E+00  0.00000000000E+00  0.99536506551E+03  0.99536506551E+03  0.00000000000E+00 0.  1.
          1   -1    0    0  501    0  0.00000000000E+00 -0.00000000000E+00 -0.18890886949E+04  0.18890886949E+04  0.00000000000E+00 0. -1.
         23    2    1    2    0    0  0.27219679284E+03  0.13401404316E+04 -0.52388720722E+03  0.14678216806E+04  0.99875972368E+02 0.  0.
         11    1    3    3    0    0  0.12837975513E+03  0.86510493036E+03 -0.34736792047E+03  0.94103792390E+03  0.00000000000E+00 0. -1.
        -11    1    3    3    0    0  0.14381703770E+03  0.47503550122E+03 -0.17651928675E+03  0.52678375672E+03  0.00000000000E+00 0.  1.
         22    1    1    2    0    0 -0.27219679284E+03 -0.13401404316E+04 -0.36983642218E+03  0.14166320798E+04  0.00000000000E+00 0.  1.
<mgrwt>
<rscale>  0 0.27425046E+04</rscale>
<asrwt>0</asrwt>
<pdfrwt beam="1">  1        1 0.29062903E+00 0.27425046E+04</pdfrwt>
<pdfrwt beam="2">  1       -1 0.15313309E+00 0.27425046E+04</pdfrwt>
<totfact> 0.10170391E+00</totfact>
</mgrwt>
</event>
<event>
 6    1  0.8968082E-007  0.1267855E+04  0.7818608E-02  0.9055452E-01
          1   -1    0    0  501    0  0.00000000000E+00  0.00000000000E+00  0.33525603587E+04  0.33525603587E+04  0.00000000000E+00 0. -1.
         -1   -1    0    0    0  501 -0.00000000000E+00 -0.00000000000E+00 -0.11986784633E+03  0.11986784633E+03  0.00000000000E+00 0.  1.
         23    2    1    2    0    0 -0.12686390968E+03 -0.33134727141E+03  0.30525182349E+04  0.30744982663E+04  0.93736594840E+02 0.  0.
         13    1    3    3    0    0 -0.83089812717E+02 -0.30429706127E+03  0.26013240977E+04  0.26203793008E+04  0.00000000000E+00 0. -1.
        -13    1    3    3    0    0 -0.43774096967E+02 -0.27050210138E+02  0.45119413721E+03  0.45411896557E+03  0.00000000000E+00 0.  1.
         22    1    1    2    0    0  0.12686390968E+03  0.33134727141E+03  0.18017427741E+03  0.39792993867E+03  0.00000000000E+00 0.  1.
<mgrwt>
<rscale>  0 0.12678552E+04</rscale>
<asrwt>0</asrwt>
<pdfrwt beam="1">  1        1 0.51577845E+00 0.12678552E+04</pdfrwt>
<pdfrwt beam="2">  1       -1 0.18441210E-01 0.12678552E+04</pdfrwt>
<totfact> 0.76337827E+00</totfact>
</mgrwt>
</event>
<event>
 6    1  0.8968082E-007  0.2701820E+04  0.7818608E-02  0.8334415E-01
          1   -1    0    0  501    0  0.00000000000E+00  0.00000000000E+00  0.10049436594E+04  0.10049436594E+04  0.00000000000E+00 0. -1.
         -1   -1    0    0    0  501 -0.00000000000E+00 -0.00000000000E+00 -0.18159805927E+04  0.18159805927E+04  0.00000000000E+00 0.  1.
         23    2    1    2    0    0 -0.79040563948E+03 -0.69880472567E+03 -0.12843375163E+04  0.16646013900E+04  0.91136228582E+02 0.  0.
         11    1    3    3    0    0 -0.58514762613E+03 -0.49303992015E+03 -0.87180648032E+03  0.11599709679E+04  0.00000000000E+00 0. -1.
        -11    1    3    3    0    0 -0.20525801335E+03 -0.20576480552E+03 -0.41253103598E+03  0.50463042207E+03  0.00000000000E+00 0.  1.
         22    1    1    2    0    0  0.79040563948E+03  0.69880472567E+03  0.47330058308E+03  0.11563228621E+04  0.00000000000E+00 0. -1.
<mgrwt>
<rscale>  0 0.27018203E+04</rscale>
<asrwt>0</asrwt>
<pdfrwt beam="1">  1        1 0.15460672E+00 0.27018203E+04</pdfrwt>
<pdfrwt beam="2">  1       -1 0.27938163E+00 0.27018203E+04</pdfrwt>
<totfact> 0.58807612E-01</totfact>
</mgrwt>
</event>
<event>
 6    1  0.8968082E-007  0.2715404E+04  0.7818608E-02  0.8330024E-01
          2   -1    0    0  501    0  0.00000000000E+00  0.00000000000E+00  0.16783561570E+04  0.16783561570E+04  0.00000000000E+00 0. -1.
         -2   -1    0    0    0  501 -0.00000000000E+00 -0.00000000000E+00 -0.10983094725E+04  0.10983094725E+04  0.00000000000E+00 0.  1.
         23    2    1    2    0    0  0.40101802095E+03 -0.11971087371E+04  0.79665478067E+03  0.14957269702E+04  0.93035199152E+02 0.  0.
         13    1    3    3    0    0  0.69775599760E+02 -0.12574824739E+03  0.10676617033E+03  0.17910966241E+03  0.00000000000E+00 0.  1.
        -13    1    3    3    0    0  0.33124242119E+03 -0.10713604897E+04  0.68988861035E+03  0.13166173078E+04  0.00000000000E+00 0. -1.
         22    1    1    2    0    0 -0.40101802095E+03  0.11971087371E+04 -0.21660809616E+03  0.12809386593E+04  0.00000000000E+00 0. -1.
<mgrwt>
<rscale>  0 0.27154038E+04</rscale>
<asrwt>0</asrwt>
<pdfrwt beam="1">  1        2 0.25820864E+00 0.27154038E+04</pdfrwt>
<pdfrwt beam="2">  1       -2 0.16897069E+00 0.27154038E+04</pdfrwt>
<totfact> 0.19153704E+00</totfact>
</mgrwt>
</event>
<event>
 6    1  0.8968082E-007  0.1359159E+04  0.7818608E-02  0.8983923E-01
          1   -1    0    0  501    0  0.00000000000E+00  0.00000000000E+00  0.70784309035E+03  0.70784309035E+03  0.00000000000E+00 0. -1.
         -1   -1    0    0    0  501 -0.00000000000E+00 -0.00000000000E+00 -0.65244492825E+03  0.65244492825E+03  0.00000000000E+00 0.  1.
         23    2    1    2    0    0 -0.84001689364E+02 -0.65281875578E+03 -0.12880824013E+03  0.67679653341E+03  0.90737936883E+02 0.  0.
         13    1    3    3    0    0 -0.65600313821E+02 -0.40919199722E+03 -0.12346374701E+03  0.43241737776E+03  0.00000000000E+00 0. -1.
        -13    1    3    3    0    0 -0.18401375543E+02 -0.24362675856E+03 -0.53444931267E+01  0.24437915565E+03  0.00000000000E+00 0.  1.
         22    1    1    2    0    0  0.84001689364E+02  0.65281875578E+03  0.18420640223E+03  0.68349148520E+03  0.00000000000E+00 0. -1.
<mgrwt>
<rscale>  0 0.13591595E+04</rscale>
<asrwt>0</asrwt>
<pdfrwt beam="1">  1        1 0.10889894E+00 0.13591595E+04</pdfrwt>
<pdfrwt beam="2">  1       -1 0.10037614E+00 0.13591595E+04</pdfrwt>
<totfact> 0.24768321E+01</totfact>
</mgrwt>
</event>
<event>
 6    1  0.8968082E-007  0.1710605E+04  0.7818608E-02  0.8755339E-01
         -2   -1    0    0    0  501 -0.00000000000E+00  0.00000000000E+00  0.98473277210E+03  0.98473277210E+03  0.00000000000E+00 0.  1.
          2   -1    0    0  501    0  0.00000000000E+00 -0.00000000000E+00 -0.74288408375E+03  0.74288408375E+03  0.00000000000E+00 0. -1.
         23    2    1    2    0    0  0.82866017776E+03 -0.19360156481E+03  0.17396179716E+03  0.87393782595E+03  0.96671405542E+02 0.  0.
         13    1    3    3    0    0  0.53558145712E+03 -0.10357021663E+03  0.15335887696E+03  0.56665089087E+03  0.00000000000E+00 0. -1.
        -13    1    3    3    0    0  0.29307872064E+03 -0.90031348178E+02  0.20602920193E+02  0.30728693507E+03  0.00000000000E+00 0.  1.
         22    1    1    2    0    0 -0.82866017776E+03  0.19360156481E+03  0.67886891195E+02  0.85367902991E+03  0.00000000000E+00 0. -1.
<mgrwt>
<rscale>  0 0.17106049E+04</rscale>
<asrwt>0</asrwt>
<pdfrwt beam="1">  1        2 0.11428986E+00 0.17106049E+04</pdfrwt>
<pdfrwt beam="2">  1       -2 0.15149735E+00 0.17106049E+04</pdfrwt>
<totfact> 0.10528321E+01</totfact>
</mgrwt>
</event>
<event>
 6    1  0.8968082E-007  0.8072471E+03  0.7818608E-02  0.9549586E-01
          1   -1    0    0  501    0  0.00000000000E+00  0.00000000000E+00  0.13197523892E+04  0.13197523892E+04  0.00000000000E+00 0. -1.
         -1   -1    0    0    0  501 -0.00000000000E+00 -0.00000000000E+00 -0.12344132499E+03  0.12344132499E+03  0.00000000000E+00 0.  1.
         23    2    1    2    0    0  0.55367718279E+02 -0.39145067516E+03  0.51761259352E+03  0.65774426997E+03  0.91681581603E+02 0.  0.
         13    1    3    3    0    0 -0.74646094139E+01 -0.12642819763E+03  0.11140256249E+03  0.16867228722E+03  0.00000000000E+00 0.  1.
        -13    1    3    3    0    0  0.62832327693E+02 -0.26502247753E+03  0.40621003103E+03  0.48907198275E+03  0.00000000000E+00 0. -1.
         22    1    1    2    0    0 -0.55367718279E+02  0.39145067516E+03  0.67869847071E+03  0.78544944424E+03  0.00000000000E+00 0. -1.
<mgrwt>
<rscale>  0 0.80724713E+03</rscale>
<asrwt>0</asrwt>
<pdfrwt beam="1">  1        1 0.20303882E+00 0.80724713E+03</pdfrwt>
<pdfrwt beam="2">  1       -1 0.18990974E-01 0.80724713E+03</pdfrwt>
<totfact> 0.19765035E+02</totfact>
</mgrwt>
</event>
<event>
 6    1  0.8968082E-007  0.2366506E+04  0.7818608E-02  0.8452151E-01
         -2   -1    0    0    0  501 -0.00000000000E+00  0.00000000000E+00  0.10741533073E+04  0.10741533073E+04  0.00000000000E+00 0.  1.
          2   -1    0    0  501    0  0.00000000000E+00 -0.00000000000E+00 -0.13034342079E+04  0.13034342079E+04  0.00000000000E+00 0. -1.
         23    2    1    2    0    0 -0.40091542821E+03 -0.30306107463E+03 -0.11890885992E+04  0.12941623846E+04  0.91353081635E+02 0.  0.
         11    1    3    3    0    0 -0.31669890178E+03 -0.24320112435E+03 -0.83953277966E+03  0.92965599520E+03  0.00000000000E+00 0.  1.
        -11    1    3    3    0    0 -0.84216526431E+02 -0.59859950281E+02 -0.34955581950E+03  0.36450638941E+03  0.00000000000E+00 0. -1.
         22    1    1    2    0    0  0.40091542821E+03  0.30306107463E+03  0.95980769857E+03  0.10834251307E+04  0.00000000000E+00 0.  1.
<mgrwt>
<rscale>  0 0.23665064E+04</rscale>
<asrwt>0</asrwt>
<pdfrwt beam="1">  1        2 0.20052834E+00 0.23665064E+04</pdfrwt>
<pdfrwt beam="2">  1       -2 0.16525436E+00 0.23665064E+04</pdfrwt>
<totfact> 0.34209829E+00</totfact>
</mgrwt>
</event>
<event>
 6    1  0.8968082E-007  0.1680463E+04  0.7818608E-02  0.8772586E-01
          1   -1    0    0  501    0  0.00000000000E+00  0.00000000000E+00  0.63891627745E+03  0.63891627745E+03  0.00000000000E+00 0. -1.
         -1   -1    0    0    0  501 -0.00000000000E+00 -0.00000000000E+00 -0.11049792286E+04  0.11049792286E+04  0.00000000000E+00 0.  1.
         23    2    1    2    0    0  0.34771529525E+03 -0.36768147244E+03  0.45925053202E+03  0.68923886340E+03  0.89685940568E+02 0.  0.
         11    1    3    3    0    0  0.23163528349E+03 -0.26747743419E+03  0.26671613130E+03  0.44309883441E+03  0.00000000000E+00 0.  1.
        -11    1    3    3    0    0  0.11608001177E+03 -0.10020403825E+03  0.19253440072E+03  0.24614002899E+03  0.00000000000E+00 0. -1.
         22    1    1    2    0    0 -0.34771529525E+03  0.36768147244E+03 -0.92531348312E+03  0.10546566426E+04  0.00000000000E+00 0.  1.
<mgrwt>
<rscale>  0 0.16804633E+04</rscale>
<asrwt>0</asrwt>
<pdfrwt beam="1">  1        1 0.98294812E-01 0.16804633E+04</pdfrwt>
<pdfrwt beam="2">  1       -1 0.16999680E+00 0.16804633E+04</pdfrwt>
<totfact> 0.73273757E+00</totfact>
</mgrwt>
</event>
<event>
 6    1  0.8968082E-007  0.1809991E+04  0.7818608E-02  0.8701004E-01
          1   -1    0    0  501    0  0.00000000000E+00  0.00000000000E+00  0.42336609548E+03  0.42336609548E+03  0.00000000000E+00 0. -1.
         -1   -1    0    0    0  501 -0.00000000000E+00 -0.00000000000E+00 -0.19345357226E+04  0.19345357226E+04  0.00000000000E+00 0.  1.
         23    2    1    2    0    0  0.59730314195E+01 -0.59884309784E+03 -0.16373441066E+04  0.17458816123E+04  0.92510258116E+02 0.  0.
         13    1    3    3    0    0 -0.34185966847E+02 -0.28529103638E+03 -0.70034479335E+03  0.75699569704E+03  0.00000000000E+00 0. -1.
        -13    1    3    3    0    0  0.40158998267E+02 -0.31355206146E+03 -0.93699931328E+03  0.98888591530E+03  0.00000000000E+00 0.  1.
         22    1    1    2    0    0 -0.59730314195E+01  0.59884309784E+03  0.12617447952E+03  0.61202020573E+03  0.00000000000E+00 0. -1.
<mgrwt>
<rscale>  0 0.18099910E+04</rscale>
<asrwt>0</asrwt>
<pdfrwt beam="1">  1        1 0.65133245E-01 0.18099910E+04</pdfrwt>
<pdfrwt beam="2">  1       -1 0.29762088E+00 0.18099910E+04</pdfrwt>
<totfact> 0.17957534E+00</totfact>
</mgrwt>
</event>
<event>
 6    1  0.8968082E-007  0.1689496E+04  0.7818608E-02  0.8767378E-01
         -2   -1    0    0    0  501 -0.00000000000E+00  0.00000000000E+00  0.67033308651E+03  0.67033308651E+03  0.00000000000E+00 0.  1.
          2   -1    0    0  501    0  0.00000000000E+00 -0.00000000000E+00 -0.10645442051E+04  0.10645442051E+04  0.00000000000E+00 0. -1.
         23    2    1    2    0    0 -0.59168552336E+03 -0.49740260091E+03  0.14588288164E+03  0.79190187569E+03  0.91245052556E+02 0.  0.
         13    1    3    3    0    0 -0.41199414640E+03 -0.38794797550E+03  0.13169182312E+03  0.58102112237E+03  0.00000000000E+00 0. -1.
        -13    1    3    3    0    0 -0.17969137696E+03 -0.10945462540E+03  0.14191058512E+02  0.21088075331E+03  0.00000000000E+00 0.  1.
         22    1    1    2    0    0  0.59168552336E+03  0.49740260091E+03 -0.54009400021E+03  0.94297541591E+03  0.00000000000E+00 0. -1.
<mgrwt>
<rscale>  0 0.16894960E+04</rscale>
<asrwt>0</asrwt>
<pdfrwt beam="1">  1        2 0.16377603E+00 0.16894960E+04</pdfrwt>
<pdfrwt beam="2">  1       -2 0.10312817E+00 0.16894960E+04</pdfrwt>
<totfact> 0.16756098E+01</totfact>
</mgrwt>
</event>
<event>
 6    1  0.8968082E-007  0.7834335E+03  0.7818608E-02  0.9584311E-01
          1   -1    0    0  501    0  0.00000000000E+00  0.00000000000E+00  0.23197130458E+03  0.23197130458E+03  0.00000000000E+00 0. -1.
         -1   -1    0    0    0  501 -0.00000000000E+00 -0.00000000000E+00 -0.66146987252E+03  0.66146987252E+03  0.00000000000E+00 0.  1.
         23    2    1    2    0    0  0.22725417282E+03  0.24624781500E+03 -0.43759642980E+03  0.55825761423E+03  0.88760819176E+02 0.  0.
         13    1    3    3    0    0  0.86639529523E+02  0.96588569686E+02 -0.24235688734E+03  0.27490474844E+03  0.00000000000E+00 0. -1.
        -13    1    3    3    0    0  0.14061464330E+03  0.14965924531E+03 -0.19523954245E+03  0.28335286579E+03  0.00000000000E+00 0.  1.
         22    1    1    2    0    0 -0.22725417282E+03 -0.24624781500E+03  0.80978618515E+01  0.33518356287E+03  0.00000000000E+00 0.  1.
<mgrwt>
<rscale>  0 0.78343354E+03</rscale>
<asrwt>0</asrwt>
<pdfrwt beam="1">  1        1 0.35687894E-01 0.78343354E+03</pdfrwt>
<pdfrwt beam="2">  1       -1 0.10176459E+00 0.78343354E+03</pdfrwt>
<totfact> 0.11374022E+02</totfact>
</mgrwt>
</event>
<event>
 6    1  0.8968082E-007  0.1001453E+04  0.7818608E-02  0.9306952E-01
         -2   -1    0    0    0  501 -0.00000000000E+00  0.00000000000E+00  0.72592513261E+02  0.72592513261E+02  0.00000000000E+00 0.  1.
          2   -1    0    0  501    0  0.00000000000E+00 -0.00000000000E+00 -0.34538998770E+04  0.34538998770E+04  0.00000000000E+00 0. -1.
         23    2    1    2    0    0  0.47122627990E+03  0.51519251255E+02 -0.22257933517E+04  0.22775243874E+04  0.90845201677E+02 0.  0.
         13    1    3    3    0    0  0.73478955494E+02 -0.12185316593E+01 -0.52068764714E+03  0.52584814120E+03  0.00000000000E+00 0. -1.
        -13    1    3    3    0    0  0.39774732441E+03  0.52737782915E+02 -0.17051057045E+04  0.17516762462E+04  0.00000000000E+00 0.  1.
         22    1    1    2    0    0 -0.47122627990E+03 -0.51519251255E+02 -0.11555140120E+04  0.12489680029E+04  0.00000000000E+00 0.  1.
<mgrwt>
<rscale>  0 0.10014535E+04</rscale>
<asrwt>0</asrwt>
<pdfrwt beam="1">  1        2 0.53136921E+00 0.10014535E+04</pdfrwt>
<pdfrwt beam="2">  1       -2 0.11168079E-01 0.10014535E+04</pdfrwt>
<totfact> 0.52111173E+01</totfact>
</mgrwt>
</event>
<event>
 6    1  0.8968082E-007  0.1536149E+04  0.7818608E-02  0.8860764E-01
         -2   -1    0    0    0  501 -0.00000000000E+00  0.00000000000E+00  0.35810228479E+03  0.35810228479E+03  0.00000000000E+00 0.  1.
          2   -1    0    0  501    0  0.00000000000E+00 -0.00000000000E+00 -0.16474015704E+04  0.16474015704E+04  0.00000000000E+00 0. -1.
         23    2    1    2    0    0 -0.19513309702E+03  0.47953138778E+03 -0.13828285162E+04  0.14794097625E+04  0.91712936821E+02 0.  0.
         11    1    3    3    0    0 -0.90366893351E+02  0.16853842692E+03 -0.40267553595E+03  0.44577905292E+03  0.00000000000E+00 0.  1.
        -11    1    3    3    0    0 -0.10476620367E+03  0.31099296086E+03 -0.98015298020E+03  0.10336307096E+04  0.00000000000E+00 0. -1.
         22    1    1    2    0    0  0.19513309702E+03 -0.47953138778E+03  0.93529230546E+02  0.52609409271E+03  0.00000000000E+00 0.  1.
<mgrwt>
<rscale>  0 0.15361488E+04</rscale>
<asrwt>0</asrwt>
<pdfrwt beam="1">  1        2 0.25344640E+00 0.15361488E+04</pdfrwt>
<pdfrwt beam="2">  1       -2 0.55092659E-01 0.15361488E+04</pdfrwt>
<totfact> 0.31316174E+01</totfact>
</mgrwt>
</event>
<event>
 6    1  0.8968082E-007  0.2553084E+04  0.7818608E-02  0.8384314E-01
          1   -1    0    0  501    0  0.00000000000E+00  0.00000000000E+00  0.98894536925E+03  0.98894536925E+03  0.00000000000E+00 0. -1.
         -1   -1    0    0    0  501 -0.00000000000E+00 -0.00000000000E+00 -0.16477755488E+04  0.16477755488E+04  0.00000000000E+00 0.  1.
         23    2    1    2    0    0 -0.21109437461E+03  0.12189941475E+04 -0.11101212517E+02  0.12402752939E+04  0.87475717151E+02 0.  0.
         13    1    3    3    0    0 -0.10681026352E+03  0.45075627819E+03  0.27293629671E+02  0.46404158967E+03  0.00000000000E+00 0. -1.
        -13    1    3    3    0    0 -0.10428411108E+03  0.76823786930E+03 -0.38394842188E+02  0.77623370421E+03  0.00000000000E+00 0.  1.
         22    1    1    2    0    0  0.21109437461E+03 -0.12189941475E+04 -0.64772896708E+03  0.13964456242E+04  0.00000000000E+00 0.  1.
<mgrwt>
<rscale>  0 0.25530844E+04</rscale>
<asrwt>0</asrwt>
<pdfrwt beam="1">  1        1 0.15214544E+00 0.25530844E+04</pdfrwt>
<pdfrwt beam="2">  1       -1 0.25350393E+00 0.25530844E+04</pdfrwt>
<totfact> 0.90282670E-01</totfact>
</mgrwt>
</event>
<event>
 6    1  0.8968082E-007  0.2368634E+04  0.7818608E-02  0.8451341E-01
         -2   -1    0    0    0  501 -0.00000000000E+00  0.00000000000E+00  0.36699684781E+03  0.36699684781E+03  0.00000000000E+00 0.  1.
          2   -1    0    0  501    0  0.00000000000E+00 -0.00000000000E+00 -0.38218483764E+04  0.38218483764E+04  0.00000000000E+00 0. -1.
         23    2    1    2    0    0 -0.39748131404E+03  0.60033049073E+02 -0.36967724191E+04  0.37196745951E+04  0.90870306091E+02 0.  0.
         11    1    3    3    0    0 -0.37350951987E+03  0.57116982313E+02 -0.31853543455E+04  0.32076867082E+04  0.00000000000E+00 0.  1.
        -11    1    3    3    0    0 -0.23971794163E+02  0.29160667603E+01 -0.51141807360E+03  0.51198788694E+03  0.00000000000E+00 0. -1.
         22    1    1    2    0    0  0.39748131404E+03 -0.60033049073E+02  0.24192089051E+03  0.46917062915E+03  0.00000000000E+00 0.  1.
<mgrwt>
<rscale>  0 0.23686336E+04</rscale>
<asrwt>0</asrwt>
<pdfrwt beam="1">  1        2 0.58797664E+00 0.23686336E+04</pdfrwt>
<pdfrwt beam="2">  1       -2 0.56461057E-01 0.23686336E+04</pdfrwt>
<totfact> 0.12589681E+00</totfact>
</mgrwt>
</event>
<event>
 6    1  0.8968082E-007  0.1767468E+04  0.7818608E-02  0.8723793E-01
         -2   -1    0    0    0  501 -0.00000000000E+00  0.00000000000E+00  0.22550880646E+03  0.22550880646E+03  0.00000000000E+00 0.  1.
          2   -1    0    0  501    0  0.00000000000E+00 -0.00000000000E+00 -0.34632173649E+04  0.34632173649E+04  0.00000000000E+00 0. -1.
         23    2    1    2    0    0 -0.67660022830E+03 -0.39869531863E+03 -0.78884532899E+03  0.11170191619E+04  0.93322178191E+02 0.  0.
         11    1    3    3    0    0 -0.36465768953E+03 -0.22770959810E+03 -0.49490615021E+03  0.65556005759E+03  0.00000000000E+00 0.  1.
        -11    1    3    3    0    0 -0.31194253877E+03 -0.17098572053E+03 -0.29393917878E+03  0.46145910430E+03  0.00000000000E+00 0. -1.
         22    1    1    2    0    0  0.67660022830E+03  0.39869531863E+03 -0.24488632295E+04  0.25717070095E+04  0.00000000000E+00 0. -1.
<mgrwt>
<rscale>  0 0.17674683E+04</rscale>
<asrwt>0</asrwt>
<pdfrwt beam="1">  1        2 0.53280264E+00 0.17674683E+04</pdfrwt>
<pdfrwt beam="2">  1       -2 0.34693664E-01 0.17674683E+04</pdfrwt>
<totfact> 0.64132631E+00</totfact>
</mgrwt>
</event>
<event>
 6    1  0.8968082E-007  0.1622417E+04  0.7818608E-02  0.8806893E-01
          1   -1    0    0  501    0  0.00000000000E+00  0.00000000000E+00  0.63393092320E+03  0.63393092320E+03  0.00000000000E+00 0. -1.
         -1   -1    0    0    0  501 -0.00000000000E+00 -0.00000000000E+00 -0.10380616100E+04  0.10380616100E+04  0.00000000000E+00 0.  1.
         23    2    1    2    0    0  0.54735755420E+03  0.14782782182E+03  0.39148810737E+03  0.69502650376E+03  0.91353958180E+02 0.  0.
         13    1    3    3    0    0  0.39397179382E+03  0.63935126321E+02  0.26136914333E+03  0.47709045661E+03  0.00000000000E+00 0.  1.
        -13    1    3    3    0    0  0.15338576038E+03  0.83892695498E+02  0.13011896404E+03  0.21793604715E+03  0.00000000000E+00 0. -1.
         22    1    1    2    0    0 -0.54735755420E+03 -0.14782782182E+03 -0.79561879417E+03  0.97696602944E+03  0.00000000000E+00 0.  1.
<mgrwt>
<rscale>  0 0.16224172E+04</rscale>
<asrwt>0</asrwt>
<pdfrwt beam="1">  1        1 0.97527835E-01 0.16224172E+04</pdfrwt>
<pdfrwt beam="2">  1       -1 0.15970179E+00 0.16224172E+04</pdfrwt>
<totfact> 0.88923078E+00</totfact>
</mgrwt>
</event>
<event>
 6    1  0.8968082E-007  0.2372259E+04  0.7818608E-02  0.8449963E-01
          2   -1    0    0  501    0  0.00000000000E+00  0.00000000000E+00  0.17279850837E+04  0.17279850837E+04  0.00000000000E+00 0. -1.
         -2   -1    0    0    0  501 -0.00000000000E+00 -0.00000000000E+00 -0.81418712138E+03  0.81418712138E+03  0.00000000000E+00 0.  1.
         23    2    1    2    0    0  0.54296358434E+03 -0.23367926877E+03 -0.64225593021E+03  0.87762446739E+03  0.91195237275E+02 0.  0.
         13    1    3    3    0    0  0.49195379679E+03 -0.21246405464E+03 -0.53635494230E+03  0.75817948853E+03  0.00000000000E+00 0. -1.
        -13    1    3    3    0    0  0.51009787555E+02 -0.21215214131E+02 -0.10590098791E+03  0.11944497887E+03  0.00000000000E+00 0.  1.
         22    1    1    2    0    0 -0.54296358434E+03  0.23367926877E+03  0.15560538925E+04  0.16645477377E+04  0.00000000000E+00 0. -1.
<mgrwt>
<rscale>  0 0.23722590E+04</rscale>
<asrwt>0</asrwt>
<pdfrwt beam="1">  1        2 0.26584386E+00 0.23722590E+04</pdfrwt>
<pdfrwt beam="2">  1       -2 0.12525956E+00 0.23722590E+04</pdfrwt>
<totfact> 0.40679707E+00</totfact>
</mgrwt>
</event>
<event>
 6    1  0.8968082E-007  0.2415868E+04  0.7818608E-02  0.8433586E-01
         -2   -1    0    0    0  501 -0.00000000000E+00  0.00000000000E+00  0.12115027861E+04  0.12115027861E+04  0.00000000000E+00 0.  1.
          2   -1    0    0  501    0  0.00000000000E+00 -0.00000000000E+00 -0.12043761064E+04  0.12043761064E+04  0.00000000000E+00 0. -1.
         23    2    1    2    0    0 -0.32212021291E+03 -0.11488293903E+04  0.18061694021E+03  0.12101968157E+04  0.91561204124E+02 0.  0.
         11    1    3    3    0    0 -0.17470485061E+03 -0.46810178609E+03  0.92627689000E+02  0.50815446051E+03  0.00000000000E+00 0. -1.
        -11    1    3    3    0    0 -0.14741536230E+03 -0.68072760423E+03  0.87989251207E+02  0.70204235523E+03  0.00000000000E+00 0.  1.
         22    1    1    2    0    0  0.32212021291E+03  0.11488293903E+04 -0.17349026057E+03  0.12056820767E+04  0.00000000000E+00 0.  1.
<mgrwt>
<rscale>  0 0.24158684E+04</rscale>
<asrwt>0</asrwt>
<pdfrwt beam="1">  1        2 0.18528863E+00 0.24158684E+04</pdfrwt>
<pdfrwt beam="2">  1       -2 0.18638504E+00 0.24158684E+04</pdfrwt>
<totfact> 0.27721613E+00</totfact>
</mgrwt>
</event>
<event>
 6    1  0.8968082E-007  0.9864360E+03  0.7818608E-02  0.9323548E-01
         -1   -1    0    0    0  501 -0.00000000000E+00  0.00000000000E+00  0.15963841545E+03  0.15963841545E+03  0.00000000000E+00 0.  1.
          1   -1    0    0  501    0  0.00000000000E+00 -0.00000000000E+00 -0.15238437161E+04  0.15238437161E+04  0.00000000000E+00 0. -1.
         23    2    1    2    0    0  0.10320739406E+03 -0.99927213827E+02 -0.14857025575E+04  0.14953364495E+04  0.89898797139E+02 0.  0.
         11    1    3    3    0    0  0.48550123849E+02 -0.10003565933E+03 -0.11301955511E+04  0.11356523374E+04  0.00000000000E+00 0. -1.
        -11    1    3    3    0    0  0.54657270216E+02  0.10844549836E+00 -0.35550700638E+03  0.35968411215E+03  0.00000000000E+00 0.  1.
         22    1    1    2    0    0 -0.10320739406E+03  0.99927213827E+02  0.12149725682E+03  0.18814568203E+03  0.00000000000E+00 0.  1.
<mgrwt>
<rscale>  0 0.98643600E+03</rscale>
<asrwt>0</asrwt>
<pdfrwt beam="1">  1        1 0.23443749E+00 0.98643600E+03</pdfrwt>
<pdfrwt beam="2">  1       -1 0.24559757E-01 0.98643600E+03</pdfrwt>
<totfact> 0.91269170E+01</totfact>
</mgrwt>
</event>
<event>
 6    1  0.8968082E-007  0.8408646E+03  0.7818608E-02  0.9502681E-01
          2   -1    0    0  501    0  0.00000000000E+00  0.00000000000E+00  0.10164741806E+04  0.10164741806E+04  0.00000000000E+00 0. -1.
         -2   -1    0    0    0  501 -0.00000000000E+00 -0.00000000000E+00 -0.17389847191E+03  0.17389847191E+03  0.00000000000E+00 0.  1.
         23    2    1    2    0    0  0.43346471500E+02 -0.28259725677E+03 -0.90980173963E+00  0.29975043606E+03  0.90052040811E+02 0.  0.
         13    1    3    3    0    0 -0.10091792316E+02 -0.15144869331E+03 -0.31130540048E+02  0.15494405926E+03  0.00000000000E+00 0. -1.
        -13    1    3    3    0    0  0.53438263816E+02 -0.13114856346E+03  0.30220738309E+02  0.14480637680E+03  0.00000000000E+00 0.  1.
         22    1    1    2    0    0 -0.43346471500E+02  0.28259725677E+03  0.84348551048E+03  0.89062221649E+03  0.00000000000E+00 0. -1.
<mgrwt>
<rscale>  0 0.84086457E+03</rscale>
<asrwt>0</asrwt>
<pdfrwt beam="1">  1        2 0.15638064E+00 0.84086457E+03</pdfrwt>
<pdfrwt beam="2">  1       -2 0.26753612E-01 0.84086457E+03</pdfrwt>
<totfact> 0.31251925E+02</totfact>
</mgrwt>
</event>
<event>
 6    1  0.8968082E-007  0.1520204E+04  0.7818608E-02  0.8871128E-01
          1   -1    0    0  501    0  0.00000000000E+00  0.00000000000E+00  0.10396447467E+04  0.10396447467E+04  0.00000000000E+00 0. -1.
         -1   -1    0    0    0  501 -0.00000000000E+00 -0.00000000000E+00 -0.55572360543E+03  0.55572360543E+03  0.00000000000E+00 0.  1.
         23    2    1    2    0    0  0.22933551807E+03  0.53768793572E+03  0.74832451820E+03  0.95379821432E+03  0.89656862729E+02 0.  0.
         13    1    3    3    0    0  0.87967589519E+02  0.25920233558E+03  0.28607752861E+03  0.39593496935E+03  0.00000000000E+00 0.  1.
        -13    1    3    3    0    0  0.14136792855E+03  0.27848560014E+03  0.46224698959E+03  0.55786324497E+03  0.00000000000E+00 0. -1.
         22    1    1    2    0    0 -0.22933551807E+03 -0.53768793572E+03 -0.26440337689E+03  0.64157013785E+03  0.00000000000E+00 0.  1.
<mgrwt>
<rscale>  0 0.15202041E+04</rscale>
<asrwt>0</asrwt>
<pdfrwt beam="1">  1        1 0.15994534E+00 0.15202041E+04</pdfrwt>
<pdfrwt beam="2">  1       -1 0.85495940E-01 0.15202041E+04</pdfrwt>
<totfact> 0.18406952E+01</totfact>
</mgrwt>
</event>
<event>
 6    1  0.8968082E-007  0.7280633E+03  0.7818608E-02  0.9670408E-01
          1   -1    0    0  501    0  0.00000000000E+00  0.00000000000E+00  0.11573217881E+03  0.11573217881E+03  0.00000000000E+00 0. -1.
         -1   -1    0    0    0  501 -0.00000000000E+00 -0.00000000000E+00 -0.11450492339E+04  0.11450492339E+04  0.00000000000E+00 0.  1.
         23    2    1    2    0    0  0.46741099156E+02  0.16837506619E+02 -0.11370913489E+04  0.11421073617E+04  0.94679765474E+02 0.  0.
         11    1    3    3    0    0  0.32305545517E+02 -0.25850159378E+02 -0.21675938703E+03  0.22067285941E+03  0.00000000000E+00 0.  1.
        -11    1    3    3    0    0  0.14435553639E+02  0.42687665997E+02 -0.92033196186E+03  0.92143450231E+03  0.00000000000E+00 0. -1.
         22    1    1    2    0    0 -0.46741099156E+02 -0.16837506619E+02  0.10777429379E+03  0.11867405101E+03  0.00000000000E+00 0. -1.
<mgrwt>
<rscale>  0 0.72806330E+03</rscale>
<asrwt>0</asrwt>
<pdfrwt beam="1">  1        1 0.17804951E-01 0.72806330E+03</pdfrwt>
<pdfrwt beam="2">  1       -1 0.17616142E+00 0.72806330E+03</pdfrwt>
<totfact> 0.69381744E+01</totfact>
</mgrwt>
</event>
<event>
 6    1  0.8968082E-007  0.1196816E+04  0.7818608E-02  0.9115648E-01
         -1   -1    0    0    0  501 -0.00000000000E+00  0.00000000000E+00  0.49009222522E+03  0.49009222522E+03  0.00000000000E+00 0.  1.
          1   -1    0    0  501    0  0.00000000000E+00 -0.00000000000E+00 -0.73066290509E+03  0.73066290509E+03  0.00000000000E+00 0. -1.
         23    2    1    2    0    0 -0.30929285255E+02 -0.35035868417E+03  0.36833561293E+03  0.51756617871E+03  0.92172649598E+02 0.  0.
         13    1    3    3    0    0  0.54657950859E+01 -0.10077503746E+03  0.16574965293E+03  0.19405780205E+03  0.00000000000E+00 0. -1.
        -13    1    3    3    0    0 -0.36395080341E+02 -0.24958364671E+03  0.20258595999E+03  0.32350837665E+03  0.00000000000E+00 0.  1.
         22    1    1    2    0    0  0.30929285255E+02  0.35035868417E+03 -0.60890629279E+03  0.70318895161E+03  0.00000000000E+00 0. -1.
<mgrwt>
<rscale>  0 0.11968161E+04</rscale>
<asrwt>0</asrwt>
<pdfrwt beam="1">  1        1 0.11240968E+00 0.11968161E+04</pdfrwt>
<pdfrwt beam="2">  1       -1 0.75398804E-01 0.11968161E+04</pdfrwt>
<totfact> 0.44667698E+01</totfact>
</mgrwt>
</event>
<event>
 6    1  0.8968082E-007  0.3474721E+04  0.7818608E-02  0.8119807E-01
         -2   -1    0    0    0  501 -0.00000000000E+00  0.00000000000E+00  0.22964667599E+04  0.22964667599E+04  0.00000000000E+00 0.  1.
          2   -1    0    0  501    0  0.00000000000E+00 -0.00000000000E+00 -0.13143760825E+04  0.13143760825E+04  0.00000000000E+00 0. -1.
         23    2    1    2    0    0 -0.14266502115E+04 -0.82758373946E+03 -0.70557588378E+02  0.16542401634E+04  0.10633190130E+03 0.  0.
         13    1    3    3    0    0 -0.10461965796E+04 -0.60928237888E+03 -0.47189623443E+01  0.12106917729E+04  0.00000000000E+00 0. -1.
        -13    1    3    3    0    0 -0.38045363193E+03 -0.21830136058E+03 -0.65838626033E+02  0.44354839055E+03  0.00000000000E+00 0.  1.
         22    1    1    2    0    0  0.14266502115E+04  0.82758373946E+03  0.10526482657E+04  0.19566026789E+04  0.00000000000E+00 0.  1.
<mgrwt>
<rscale>  0 0.34747207E+04</rscale>
<asrwt>0</asrwt>
<pdfrwt beam="1">  1        2 0.20221170E+00 0.34747207E+04</pdfrwt>
<pdfrwt beam="2">  1       -2 0.35330258E+00 0.34747207E+04</pdfrwt>
<totfact> 0.19790062E-01</totfact>
</mgrwt>
</event>
<event>
 6    1  0.8968082E-007  0.1177871E+04  0.7818608E-02  0.9132450E-01
          1   -1    0    0  501    0  0.00000000000E+00  0.00000000000E+00  0.13903023757E+04  0.13903023757E+04  0.00000000000E+00 0. -1.
         -1   -1    0    0    0  501 -0.00000000000E+00 -0.00000000000E+00 -0.24947433569E+03  0.24947433569E+03  0.00000000000E+00 0.  1.
         23    2    1    2    0    0 -0.53127400858E+03  0.39658860770E+02  0.23541219900E+03  0.58925172712E+03  0.89296119989E+02 0.  0.
         11    1    3    3    0    0 -0.20841440430E+03 -0.21406941796E+02  0.66610196970E+02  0.21984480757E+03  0.00000000000E+00 0. -1.
        -11    1    3    3    0    0 -0.32285960428E+03  0.61065802566E+02  0.16880200203E+03  0.36940691955E+03  0.00000000000E+00 0.  1.
         22    1    1    2    0    0  0.53127400858E+03 -0.39658860770E+02  0.90541584100E+03  0.10505249843E+04  0.00000000000E+00 0. -1.
<mgrwt>
<rscale>  0 0.11778706E+04</rscale>
<asrwt>0</asrwt>
<pdfrwt beam="1">  1        1 0.21389267E+00 0.11778706E+04</pdfrwt>
<pdfrwt beam="2">  1       -1 0.38380668E-01 0.11778706E+04</pdfrwt>
<totfact> 0.50795259E+01</totfact>
</mgrwt>
</event>
<event>
 6    1  0.1149505E-006  0.3382785E+04  0.7818608E-02  0.8142144E-01
         -2   -1    0    0    0  501 -0.00000000000E+00  0.00000000000E+00  0.13267241091E+04  0.13267241091E+04  0.00000000000E+00 0.  1.
          2   -1    0    0  501    0  0.00000000000E+00 -0.00000000000E+00 -0.21562946881E+04  0.21562946881E+04  0.00000000000E+00 0. -1.
         23    2    1    2    0    0 -0.60425507315E+03  0.86091247892E+03  0.94671585817E+03  0.14186816163E+04  0.10045955635E+03 0.  0.
         11    1    3    3    0    0 -0.13788844575E+03  0.25888400959E+03  0.30042638050E+03  0.41986922249E+03  0.00000000000E+00 0. -1.
        -11    1    3    3    0    0 -0.46636662740E+03  0.60202846933E+03  0.64628947767E+03  0.99881239378E+03  0.00000000000E+00 0.  1.
         22    1    1    2    0    0  0.60425507315E+03 -0.86091247892E+03 -0.17762864371E+04  0.20643371809E+04  0.00000000000E+00 0. -1.
<mgrwt>
<rscale>  0 0.33827847E+04</rscale>
<asrwt>0</asrwt>
<pdfrwt beam="1">  1        2 0.33173764E+00 0.33827847E+04</pdfrwt>
<pdfrwt beam="2">  1       -2 0.20411140E+00 0.33827847E+04</pdfrwt>
<totfact> 0.56672895E-01</totfact>
</mgrwt>
</event>
<event>
 6    1  0.8968082E-007  0.2723991E+04  0.7818608E-02  0.8327263E-01
         -2   -1    0    0    0  501 -0.00000000000E+00  0.00000000000E+00  0.11500134954E+04  0.11500134954E+04  0.00000000000E+00 0.  1.
          2   -1    0    0  501    0  0.00000000000E+00 -0.00000000000E+00 -0.16130519708E+04  0.16130519708E+04  0.00000000000E+00 0. -1.
         23    2    1    2    0    0  0.53902200963E+03  0.11783709974E+04 -0.65216762592E+03  0.14535339584E+04  0.91298528978E+02 0.  0.
         13    1    3    3    0    0  0.49257863612E+03  0.10030460432E+04 -0.55278405541E+03  0.12467178066E+04  0.00000000000E+00 0. -1.
        -13    1    3    3    0    0  0.46443373514E+02  0.17532495429E+03 -0.99383570508E+02  0.20681615176E+03  0.00000000000E+00 0.  1.
         22    1    1    2    0    0 -0.53902200963E+03 -0.11783709974E+04  0.18912915052E+03  0.13095315079E+04  0.00000000000E+00 0.  1.
<mgrwt>
<rscale>  0 0.27239908E+04</rscale>
<asrwt>0</asrwt>
<pdfrwt beam="1">  1        2 0.24816184E+00 0.27239908E+04</pdfrwt>
<pdfrwt beam="2">  1       -2 0.17692515E+00 0.27239908E+04</pdfrwt>
<totfact> 0.18291067E+00</totfact>
</mgrwt>
</event>
<event>
 6    1  0.8968082E-007  0.2722673E+04  0.7818608E-02  0.8327686E-01
         -2   -1    0    0    0  501 -0.00000000000E+00  0.00000000000E+00  0.20988209571E+04  0.20988209571E+04  0.00000000000E+00 0.  1.
          2   -1    0    0  501    0  0.00000000000E+00 -0.00000000000E+00 -0.88298940328E+03  0.88298940328E+03  0.00000000000E+00 0. -1.
         23    2    1    2    0    0  0.63689812956E+03 -0.94067611943E+03 -0.20976682077E+03  0.11589440694E+04  0.92943250620E+02 0.  0.
         13    1    3    3    0    0  0.21060952692E+03 -0.27493676379E+03 -0.10244279941E+03  0.36116633849E+03  0.00000000000E+00 0.  1.
        -13    1    3    3    0    0  0.42628860264E+03 -0.66573935564E+03 -0.10732402136E+03  0.79777773092E+03  0.00000000000E+00 0. -1.
         22    1    1    2    0    0 -0.63689812956E+03  0.94067611943E+03  0.14255983746E+04  0.18228662910E+04  0.00000000000E+00 0.  1.
<mgrwt>
<rscale>  0 0.27226727E+04</rscale>
<asrwt>0</asrwt>
<pdfrwt beam="1">  1        2 0.13584452E+00 0.27226727E+04</pdfrwt>
<pdfrwt beam="2">  1       -2 0.32289553E+00 0.27226727E+04</pdfrwt>
<totfact> 0.60593701E-01</totfact>
</mgrwt>
</event>
<event>
 6    1  0.8968082E-007  0.9204376E+03  0.7818608E-02  0.9400388E-01
         -1   -1    0    0    0  501 -0.00000000000E+00  0.00000000000E+00  0.40375994669E+03  0.40375994669E+03  0.00000000000E+00 0.  1.
          1   -1    0    0  501    0  0.00000000000E+00 -0.00000000000E+00 -0.52457241584E+03  0.52457241584E+03  0.00000000000E+00 0. -1.
         23    2    1    2    0    0 -0.41858363946E+03  0.62494786547E+02 -0.23334931217E+03  0.49040268484E+03  0.83216766583E+02 0.  0.
         11    1    3    3    0    0 -0.37458408094E+03  0.78794952333E+02 -0.22051858017E+03  0.44175821713E+03  0.00000000000E+00 0. -1.
        -11    1    3    3    0    0 -0.43999558523E+02 -0.16300165786E+02 -0.12830731996E+02  0.48644467706E+02  0.00000000000E+00 0.  1.
         22    1    1    2    0    0  0.41858363946E+03 -0.62494786547E+02  0.11253684302E+03  0.43792967769E+03  0.00000000000E+00 0. -1.
<mgrwt>
<rscale>  0 0.92043757E+03</rscale>
<asrwt>0</asrwt>
<pdfrwt beam="1">  1        1 0.80703449E-01 0.92043757E+03</pdfrwt>
<pdfrwt beam="2">  1       -1 0.62116915E-01 0.92043757E+03</pdfrwt>
<totfact> 0.10976964E+02</totfact>
</mgrwt>
</event>
<event>
 6    1  0.8968082E-007  0.3314426E+04  0.7818608E-02  0.8159234E-01
         -2   -1    0    0    0  501 -0.00000000000E+00  0.00000000000E+00  0.20509190978E+04  0.20509190978E+04  0.00000000000E+00 0.  1.
          2   -1    0    0  501    0  0.00000000000E+00 -0.00000000000E+00 -0.13390846862E+04  0.13390846862E+04  0.00000000000E+00 0. -1.
         23    2    1    2    0    0  0.13575446398E+04  0.33058764186E+03 -0.55295821005E+03  0.15053510272E+04  0.90018304160E+02 0.  0.
         13    1    3    3    0    0  0.68339284019E+03  0.17753705084E+03 -0.32636513648E+03  0.77785562976E+03  0.00000000000E+00 0. -1.
        -13    1    3    3    0    0  0.67415179959E+03  0.15305059101E+03 -0.22659307357E+03  0.72749539743E+03  0.00000000000E+00 0.  1.
         22    1    1    2    0    0 -0.13575446398E+04 -0.33058764186E+03  0.12647926217E+04  0.18846527568E+04  0.00000000000E+00 0.  1.
<mgrwt>
<rscale>  0 0.33144257E+04</rscale>
<asrwt>0</asrwt>
<pdfrwt beam="1">  1        2 0.20601303E+00 0.33144257E+04</pdfrwt>
<pdfrwt beam="2">  1       -2 0.31552602E+00 0.33144257E+04</pdfrwt>
<totfact> 0.33388159E-01</totfact>
</mgrwt>
</event>
<event>
 6    1  0.8968082E-007  0.2059383E+04  0.7818608E-02  0.8579349E-01
          2   -1    0    0  501    0  0.00000000000E+00  0.00000000000E+00  0.19236537023E+04  0.19236537023E+04  0.00000000000E+00 0. -1.
         -2   -1    0    0    0  501 -0.00000000000E+00 -0.00000000000E+00 -0.55117245833E+03  0.55117245833E+03  0.00000000000E+00 0.  1.
         23    2    1    2    0    0  0.94224794360E+01 -0.10257004424E+04  0.76663316383E+03  0.12835234800E+04  0.86924881974E+02 0.  0.
         13    1    3    3    0    0  0.15576631016E+02 -0.48859617439E+03  0.41772930751E+03  0.64301370702E+03  0.00000000000E+00 0.  1.
        -13    1    3    3    0    0 -0.61541515796E+01 -0.53710426804E+03  0.34890385633E+03  0.64050977298E+03  0.00000000000E+00 0. -1.
         22    1    1    2    0    0 -0.94224794360E+01  0.10257004424E+04  0.60584808016E+03  0.11913026807E+04  0.00000000000E+00 0. -1.
<mgrwt>
<rscale>  0 0.20593833E+04</rscale>
<asrwt>0</asrwt>
<pdfrwt beam="1">  1        2 0.29594672E+00 0.20593833E+04</pdfrwt>
<pdfrwt beam="2">  1       -2 0.84795764E-01 0.20593833E+04</pdfrwt>
<totfact> 0.82519783E+00</totfact>
</mgrwt>
</event>
<event>
 6    1  0.8968082E-007  0.3670296E+04  0.7818608E-02  0.8074577E-01
         -2   -1    0    0    0  501 -0.00000000000E+00  0.00000000000E+00  0.13027511056E+04  0.13027511056E+04  0.00000000000E+00 0.  1.
          2   -1    0    0  501    0  0.00000000000E+00 -0.00000000000E+00 -0.25851197831E+04  0.25851197831E+04  0.00000000000E+00 0. -1.
         23    2    1    2    0    0  0.31838584729E+03 -0.15968452946E+04  0.25229931862E+03  0.16503521064E+04  0.93395322348E+02 0.  0.
         13    1    3    3    0    0  0.10865580533E+03 -0.49368348106E+03  0.35925179307E+02  0.50677419233E+03  0.00000000000E+00 0. -1.
        -13    1    3    3    0    0  0.20973004196E+03 -0.11031618135E+04  0.21637413932E+03  0.11435779140E+04  0.00000000000E+00 0.  1.
         22    1    1    2    0    0 -0.31838584729E+03  0.15968452946E+04 -0.15346679961E+04  0.22375187823E+04  0.00000000000E+00 0. -1.
<mgrwt>
<rscale>  0 0.36702957E+04</rscale>
<asrwt>0</asrwt>
<pdfrwt beam="1">  1        2 0.39771073E+00 0.36702957E+04</pdfrwt>
<pdfrwt beam="2">  1       -2 0.20042325E+00 0.36702957E+04</pdfrwt>
<totfact> 0.33247815E-01</totfact>
</mgrwt>
</event>
<event>
 6    1  0.8968082E-007  0.2583274E+04  0.7818608E-02  0.8373905E-01
          2   -1    0    0  501    0  0.00000000000E+00  0.00000000000E+00  0.16551324861E+04  0.16551324861E+04  0.00000000000E+00 0. -1.
         -2   -1    0    0    0  501 -0.00000000000E+00 -0.00000000000E+00 -0.10079710694E+04  0.10079710694E+04  0.00000000000E+00 0.  1.
         23    2    1    2    0    0 -0.49698989854E+03 -0.11045311957E+04  0.78172438380E+03  0.14444586877E+04  0.91541065233E+02 0.  0.
         11    1    3    3    0    0 -0.12625318321E+03 -0.35265222612E+03  0.27781115738E+03  0.46635018819E+03  0.00000000000E+00 0.  1.
        -11    1    3    3    0    0 -0.37073671533E+03 -0.75187896963E+03  0.50391322642E+03  0.97810849952E+03  0.00000000000E+00 0. -1.
         22    1    1    2    0    0  0.49698989854E+03  0.11045311957E+04 -0.13456296713E+03  0.12186448678E+04  0.00000000000E+00 0.  1.
<mgrwt>
<rscale>  0 0.25832736E+04</rscale>
<asrwt>0</asrwt>
<pdfrwt beam="1">  1        2 0.25463577E+00 0.25832736E+04</pdfrwt>
<pdfrwt beam="2">  1       -2 0.15507247E+00 0.25832736E+04</pdfrwt>
<totfact> 0.25233202E+00</totfact>
</mgrwt>
</event>
<event>
 6    1  0.8968082E-007  0.1721973E+04  0.7818608E-02  0.8748931E-01
         -2   -1    0    0    0  501 -0.00000000000E+00  0.00000000000E+00  0.19129894922E+04  0.19129894922E+04  0.00000000000E+00 0.  1.
          2   -1    0    0  501    0  0.00000000000E+00 -0.00000000000E+00 -0.38750754158E+03  0.38750754158E+03  0.00000000000E+00 0. -1.
         23    2    1    2    0    0  0.30970976471E+03 -0.35260066071E+03 -0.19533286055E+03  0.51683479596E+03  0.93359068215E+02 0.  0.
         11    1    3    3    0    0  0.65288762309E+02 -0.38652408090E+02 -0.59470136474E+02  0.96401910081E+02  0.00000000000E+00 0. -1.
        -11    1    3    3    0    0  0.24442100240E+03 -0.31394825262E+03 -0.13586272407E+03  0.42043288588E+03  0.00000000000E+00 0.  1.
         22    1    1    2    0    0 -0.30970976471E+03  0.35260066071E+03  0.17208148112E+04  0.17836622378E+04  0.00000000000E+00 0.  1.
<mgrwt>
<rscale>  0 0.17219731E+04</rscale>
<asrwt>0</asrwt>
<pdfrwt beam="1">  1        2 0.59616546E-01 0.17219731E+04</pdfrwt>
<pdfrwt beam="2">  1       -2 0.29430607E+00 0.17219731E+04</pdfrwt>
<totfact> 0.27011755E+00</totfact>
</mgrwt>
</event>
<event>
 6    1  0.8968082E-007  0.1020617E+04  0.7818608E-02  0.9286217E-01
          1   -1    0    0  501    0  0.00000000000E+00  0.00000000000E+00  0.48573197780E+03  0.48573197780E+03  0.00000000000E+00 0. -1.
         -1   -1    0    0    0  501 -0.00000000000E+00 -0.00000000000E+00 -0.53612854316E+03  0.53612854316E+03  0.00000000000E+00 0.  1.
         23    2    1    2    0    0  0.15096203287E+03 -0.35655189008E+03 -0.35176953531E+03  0.53120335685E+03  0.92284422661E+02 0.  0.
         13    1    3    3    0    0  0.10147030896E+03 -0.12952098950E+03 -0.16580138024E+03  0.23358511942E+03  0.00000000000E+00 0.  1.
        -13    1    3    3    0    0  0.49491723911E+02 -0.22703090058E+03 -0.18596815506E+03  0.29761823743E+03  0.00000000000E+00 0. -1.
         22    1    1    2    0    0 -0.15096203287E+03  0.35655189008E+03  0.30137296995E+03  0.49065716412E+03  0.00000000000E+00 0. -1.
<mgrwt>
<rscale>  0 0.10206170E+04</rscale>
<asrwt>0</asrwt>
<pdfrwt beam="1">  1        1 0.74727997E-01 0.10206170E+04</pdfrwt>
<pdfrwt beam="2">  1       -1 0.82481314E-01 0.10206170E+04</pdfrwt>
<totfact> 0.67534307E+01</totfact>
</mgrwt>
</event>
<event>
 6    1  0.8968082E-007  0.2576791E+04  0.7818608E-02  0.8376128E-01
         -2   -1    0    0    0  501 -0.00000000000E+00  0.00000000000E+00  0.13712445132E+04  0.13712445132E+04  0.00000000000E+00 0.  1.
          2   -1    0    0  501    0  0.00000000000E+00 -0.00000000000E+00 -0.12105523789E+04  0.12105523789E+04  0.00000000000E+00 0. -1.
         23    2    1    2    0    0 -0.70055118898E+03  0.94183475004E+03  0.60859179943E+03  0.13254375586E+04  0.92607120100E+02 0.  0.
         13    1    3    3    0    0 -0.23408581989E+03  0.35238564271E+03  0.17638360074E+03  0.45834810665E+03  0.00000000000E+00 0.  1.
        -13    1    3    3    0    0 -0.46646536909E+03  0.58944910734E+03  0.43220819870E+03  0.86708945197E+03  0.00000000000E+00 0. -1.
         22    1    1    2    0    0  0.70055118898E+03 -0.94183475004E+03 -0.44789966512E+03  0.12563593335E+04  0.00000000000E+00 0. -1.
<mgrwt>
<rscale>  0 0.25767913E+04</rscale>
<asrwt>0</asrwt>
<pdfrwt beam="1">  1        2 0.18623883E+00 0.25767913E+04</pdfrwt>
<pdfrwt beam="2">  1       -2 0.21096070E+00 0.25767913E+04</pdfrwt>
<totfact> 0.18676450E+00</totfact>
</mgrwt>
</event>
<event>
 6    1  0.8968082E-007  0.1228760E+04  0.7818608E-02  0.9088049E-01
         -1   -1    0    0    0  501 -0.00000000000E+00  0.00000000000E+00  0.95494091868E+03  0.95494091868E+03  0.00000000000E+00 0.  1.
          1   -1    0    0  501    0  0.00000000000E+00 -0.00000000000E+00 -0.39527332571E+03  0.39527332571E+03  0.00000000000E+00 0. -1.
         23    2    1    2    0    0 -0.18542876248E+03  0.56645639772E+02  0.91804700800E+03  0.94274846720E+03  0.91497590415E+02 0.  0.
         13    1    3    3    0    0 -0.16741127044E+03  0.78346103103E+02  0.75618911056E+03  0.77845142191E+03  0.00000000000E+00 0.  1.
        -13    1    3    3    0    0 -0.18017492042E+02 -0.21700463331E+02  0.16185789743E+03  0.16429704529E+03  0.00000000000E+00 0. -1.
         22    1    1    2    0    0  0.18542876248E+03 -0.56645639772E+02 -0.35837941503E+03  0.40746577719E+03  0.00000000000E+00 0. -1.
<mgrwt>
<rscale>  0 0.12287598E+04</rscale>
<asrwt>0</asrwt>
<pdfrwt beam="1">  1        1 0.60811281E-01 0.12287598E+04</pdfrwt>
<pdfrwt beam="2">  1       -1 0.14691399E+00 0.12287598E+04</pdfrwt>
<totfact> 0.22214631E+01</totfact>
</mgrwt>
</event>
<event>
 6    1  0.8968082E-007  0.1388040E+04  0.7818608E-02  0.8962521E-01
         -2   -1    0    0    0  501 -0.00000000000E+00  0.00000000000E+00  0.39566969820E+03  0.39566969820E+03  0.00000000000E+00 0.  1.
          2   -1    0    0  501    0  0.00000000000E+00 -0.00000000000E+00 -0.12173387066E+04  0.12173387066E+04  0.00000000000E+00 0. -1.
         23    2    1    2    0    0  0.50022570902E+03  0.41131174099E+03 -0.69299075710E+03  0.95273482472E+03  0.89801718081E+02 0.  0.
         11    1    3    3    0    0  0.31460129680E+03  0.30419549061E+03 -0.43057770208E+03  0.61392673014E+03  0.00000000000E+00 0. -1.
        -11    1    3    3    0    0  0.18562441221E+03  0.10711625038E+03 -0.26241305502E+03  0.33880809457E+03  0.00000000000E+00 0.  1.
         22    1    1    2    0    0 -0.50022570902E+03 -0.41131174099E+03 -0.12867825135E+03  0.66027358012E+03  0.00000000000E+00 0.  1.
<mgrwt>
<rscale>  0 0.13880404E+04</rscale>
<asrwt>0</asrwt>
<pdfrwt beam="1">  1        2 0.18728287E+00 0.13880404E+04</pdfrwt>
<pdfrwt beam="2">  1       -2 0.60872262E-01 0.13880404E+04</pdfrwt>
<totfact> 0.45254662E+01</totfact>
</mgrwt>
</event>
<event>
 6    1  0.8968082E-007  0.2092074E+03  0.7818608E-02  0.1142195E+00
         -1   -1    0    0    0  501 -0.00000000000E+00  0.00000000000E+00  0.44798085888E+02  0.44798085888E+02  0.00000000000E+00 0.  1.
          1   -1    0    0  501    0  0.00000000000E+00 -0.00000000000E+00 -0.24424995774E+03  0.24424995774E+03  0.00000000000E+00 0. -1.
         23    2    1    2    0    0  0.55025359159E+01  0.64197222204E+02 -0.44279506183E+02  0.12103011510E+03  0.92390761727E+02 0.  0.
         13    1    3    3    0    0 -0.37089712597E+02  0.36021018350E+01 -0.23682356395E+02  0.44152869925E+02  0.00000000000E+00 0.  1.
        -13    1    3    3    0    0  0.42592248513E+02  0.60595120369E+02 -0.20597149788E+02  0.76877245173E+02  0.00000000000E+00 0. -1.
         22    1    1    2    0    0 -0.55025359159E+01 -0.64197222204E+02 -0.15517236567E+03  0.16801792853E+03  0.00000000000E+00 0. -1.
<mgrwt>
<rscale>  0 0.20920737E+03</rscale>
<asrwt>0</asrwt>
<pdfrwt beam="1">  1        1 0.37576917E-01 0.20920737E+03</pdfrwt>
<pdfrwt beam="2">  1       -1 0.68920132E-02 0.20920737E+03</pdfrwt>
<totfact> 0.11968566E+04</totfact>
</mgrwt>
</event>
<event>
 6    1  0.8968082E-007  0.1540669E+04  0.7818608E-02  0.8857850E-01
         -2   -1    0    0    0  501 -0.00000000000E+00  0.00000000000E+00  0.51909289253E+03  0.51909289253E+03  0.00000000000E+00 0.  1.
          2   -1    0    0  501    0  0.00000000000E+00 -0.00000000000E+00 -0.11431773999E+04  0.11431773999E+04  0.00000000000E+00 0. -1.
         23    2    1    2    0    0 -0.64469033399E+03  0.17775551073E+03 -0.71985741072E+03  0.98670009073E+03  0.90331217955E+02 0.  0.
         11    1    3    3    0    0 -0.56996882396E+03  0.18621827006E+03 -0.64057344536E+03  0.87742580500E+03  0.00000000000E+00 0. -1.
        -11    1    3    3    0    0 -0.74721510033E+02 -0.84627593292E+01 -0.79283965361E+02  0.10927428572E+03  0.00000000000E+00 0.  1.
         22    1    1    2    0    0  0.64469033399E+03 -0.17775551073E+03  0.95772903397E+02  0.67557020165E+03  0.00000000000E+00 0.  1.
<mgrwt>
<rscale>  0 0.15406690E+04</rscale>
<asrwt>0</asrwt>
<pdfrwt beam="1">  1        2 0.17587344E+00 0.15406690E+04</pdfrwt>
<pdfrwt beam="2">  1       -2 0.79860446E-01 0.15406690E+04</pdfrwt>
<totfact> 0.27404123E+01</totfact>
</mgrwt>
</event>
<event>
 6    1  0.8968082E-007  0.1483542E+04  0.7818608E-02  0.8895472E-01
          1   -1    0    0  501    0  0.00000000000E+00  0.00000000000E+00  0.62089692362E+03  0.62089692362E+03  0.00000000000E+00 0. -1.
         -1   -1    0    0    0  501 -0.00000000000E+00 -0.00000000000E+00 -0.88617614510E+03  0.88617614510E+03  0.00000000000E+00 0.  1.
         23    2    1    2    0    0 -0.26046466812E+03  0.10664075140E+03 -0.82695428427E+03  0.87882712218E+03  0.96278913655E+02 0.  0.
         11    1    3    3    0    0 -0.32087125383E+02  0.52805999458E+02 -0.20385701536E+03  0.21301582079E+03  0.00000000000E+00 0.  1.
        -11    1    3    3    0    0 -0.22837754274E+03  0.53834751937E+02 -0.62309726891E+03  0.66581130139E+03  0.00000000000E+00 0. -1.
         22    1    1    2    0    0  0.26046466812E+03 -0.10664075140E+03  0.56167506278E+03  0.62824594654E+03  0.00000000000E+00 0. -1.
<mgrwt>
<rscale>  0 0.14835418E+04</rscale>
<asrwt>0</asrwt>
<pdfrwt beam="1">  1        1 0.95522604E-01 0.14835418E+04</pdfrwt>
<pdfrwt beam="2">  1       -1 0.13633479E+00 0.14835418E+04</pdfrwt>
<totfact> 0.14177884E+01</totfact>
</mgrwt>
</event>
<event>
 6    1  0.8968082E-007  0.2562241E+04  0.7818608E-02  0.8381141E-01
         -1   -1    0    0    0  501 -0.00000000000E+00  0.00000000000E+00  0.68966998923E+03  0.68966998923E+03  0.00000000000E+00 0.  1.
          1   -1    0    0  501    0  0.00000000000E+00 -0.00000000000E+00 -0.23797906689E+04  0.23797906689E+04  0.00000000000E+00 0. -1.
         23    2    1    2    0    0  0.12302587468E+04 -0.20823441556E+03 -0.11856334812E+04  0.17235760088E+04  0.89940817397E+02 0.  0.
         11    1    3    3    0    0  0.49893302830E+03 -0.81447663886E+02 -0.54164304348E+03  0.74090827720E+03  0.00000000000E+00 0. -1.
        -11    1    3    3    0    0  0.73132571848E+03 -0.12678675167E+03 -0.64399043773E+03  0.98266773163E+03  0.00000000000E+00 0.  1.
         22    1    1    2    0    0 -0.12302587468E+04  0.20823441556E+03 -0.50448719850E+03  0.13458846493E+04  0.00000000000E+00 0.  1.
<mgrwt>
<rscale>  0 0.25622414E+04</rscale>
<asrwt>0</asrwt>
<pdfrwt beam="1">  1        1 0.36612165E+00 0.25622414E+04</pdfrwt>
<pdfrwt beam="2">  1       -1 0.10610307E+00 0.25622414E+04</pdfrwt>
<totfact> 0.12039064E+00</totfact>
</mgrwt>
</event>
<event>
 6    1  0.8968082E-007  0.1812339E+04  0.7818608E-02  0.8699765E-01
          1   -1    0    0  501    0  0.00000000000E+00  0.00000000000E+00  0.18951542282E+04  0.18951542282E+04  0.00000000000E+00 0. -1.
         -1   -1    0    0    0  501 -0.00000000000E+00 -0.00000000000E+00 -0.43328543851E+03  0.43328543851E+03  0.00000000000E+00 0.  1.
         23    2    1    2    0    0 -0.89438377954E+03  0.66011611091E+02  0.58612663616E+03  0.10749628231E+04  0.87867853209E+02 0.  0.
         11    1    3    3    0    0 -0.46648301219E+03  0.40881179529E+02  0.35768657645E+03  0.58925152395E+03  0.00000000000E+00 0. -1.
        -11    1    3    3    0    0 -0.42790076735E+03  0.25130431562E+02  0.22844005971E+03  0.48571129920E+03  0.00000000000E+00 0.  1.
         22    1    1    2    0    0  0.89438377954E+03 -0.66011611091E+02  0.87574215356E+03  0.12534768436E+04  0.00000000000E+00 0. -1.
<mgrwt>
<rscale>  0 0.18123385E+04</rscale>
<asrwt>0</asrwt>
<pdfrwt beam="1">  1        1 0.29156218E+00 0.18123385E+04</pdfrwt>
<pdfrwt beam="2">  1       -1 0.66659299E-01 0.18123385E+04</pdfrwt>
<totfact> 0.75455668E+00</totfact>
</mgrwt>
</event>
<event>
 6    1  0.8968082E-007  0.1879648E+04  0.7818608E-02  0.8665054E-01
          1   -1    0    0  501    0  0.00000000000E+00  0.00000000000E+00  0.15176810984E+04  0.15176810984E+04  0.00000000000E+00 0. -1.
         -1   -1    0    0    0  501 -0.00000000000E+00 -0.00000000000E+00 -0.58198593895E+03  0.58198593895E+03  0.00000000000E+00 0.  1.
         23    2    1    2    0    0 -0.90324050335E+03 -0.22305995890E+03  0.33340707152E+03  0.99135747186E+03  0.77654423711E+02 0.  0.
         13    1    3    3    0    0 -0.70714174525E+03 -0.20451654422E+03  0.27635627173E+03  0.78628827644E+03  0.00000000000E+00 0.  1.
        -13    1    3    3    0    0 -0.19609875810E+03 -0.18543414676E+02  0.57050799790E+02  0.20506919542E+03  0.00000000000E+00 0. -1.
         22    1    1    2    0    0  0.90324050335E+03  0.22305995890E+03  0.60228808797E+03  0.11083095655E+04  0.00000000000E+00 0. -1.
<mgrwt>
<rscale>  0 0.18796479E+04</rscale>
<asrwt>0</asrwt>
<pdfrwt beam="1">  1        1 0.23348940E+00 0.18796479E+04</pdfrwt>
<pdfrwt beam="2">  1       -1 0.89536299E-01 0.18796479E+04</pdfrwt>
<totfact> 0.72821341E+00</totfact>
</mgrwt>
</event>
<event>
 6    1  0.8968082E-007  0.2116957E+04  0.7818608E-02  0.8553810E-01
         -1   -1    0    0    0  501 -0.00000000000E+00  0.00000000000E+00  0.57222304127E+03  0.57222304127E+03  0.00000000000E+00 0.  1.
          1   -1    0    0  501    0  0.00000000000E+00 -0.00000000000E+00 -0.19579362330E+04  0.19579362330E+04  0.00000000000E+00 0. -1.
         23    2    1    2    0    0 -0.11143043159E+03 -0.54476316501E+03  0.37949294171E+03  0.67944688696E+03  0.91921337876E+02 0.  0.
         11    1    3    3    0    0 -0.10978099919E+03 -0.33457252766E+03  0.21536788384E+03  0.41276381798E+03  0.00000000000E+00 0.  1.
        -11    1    3    3    0    0 -0.16494323965E+01 -0.21019063735E+03  0.16412505787E+03  0.26668306898E+03  0.00000000000E+00 0. -1.
         22    1    1    2    0    0  0.11143043159E+03  0.54476316501E+03 -0.17652061334E+04  0.18507123873E+04  0.00000000000E+00 0. -1.
<mgrwt>
<rscale>  0 0.21169565E+04</rscale>
<asrwt>0</asrwt>
<pdfrwt beam="1">  1        1 0.30122096E+00 0.21169565E+04</pdfrwt>
<pdfrwt beam="2">  1       -1 0.88034312E-01 0.21169565E+04</pdfrwt>
<totfact> 0.37057518E+00</totfact>
</mgrwt>
</event>
<event>
 6    1  0.8968082E-007  0.1873662E+04  0.7818608E-02  0.8668079E-01
         -2   -1    0    0    0  501 -0.00000000000E+00  0.00000000000E+00  0.26606764611E+03  0.26606764611E+03  0.00000000000E+00 0.  1.
          2   -1    0    0  501    0  0.00000000000E+00 -0.00000000000E+00 -0.32986053466E+04  0.32986053466E+04  0.00000000000E+00 0. -1.
         23    2    1    2    0    0 -0.73313059163E+03 -0.56846358796E+03 -0.17389771837E+04  0.19728406756E+04  0.86182194455E+02 0.  0.
         11    1    3    3    0    0 -0.98555069679E+02 -0.51956349127E+02 -0.16847238330E+03  0.20197897888E+03  0.00000000000E+00 0.  1.
        -11    1    3    3    0    0 -0.63457552195E+03 -0.51650723883E+03 -0.15705048004E+04  0.17708616967E+04  0.00000000000E+00 0. -1.
         22    1    1    2    0    0  0.73313059163E+03  0.56846358796E+03 -0.12935605168E+04  0.15918323171E+04  0.00000000000E+00 0.  1.
<mgrwt>
<rscale>  0 0.18736618E+04</rscale>
<asrwt>0</asrwt>
<pdfrwt beam="1">  1        2 0.50747776E+00 0.18736618E+04</pdfrwt>
<pdfrwt beam="2">  1       -2 0.40933483E-01 0.18736618E+04</pdfrwt>
<totfact> 0.59534489E+00</totfact>
</mgrwt>
</event>
<event>
 6    1  0.8968082E-007  0.3249702E+04  0.7818608E-02  0.8175813E-01
         -2   -1    0    0    0  501 -0.00000000000E+00  0.00000000000E+00  0.91096864982E+03  0.91096864982E+03  0.00000000000E+00 0.  1.
          2   -1    0    0  501    0  0.00000000000E+00 -0.00000000000E+00 -0.28981693234E+04  0.28981693234E+04  0.00000000000E+00 0. -1.
         23    2    1    2    0    0 -0.44066762555E+03 -0.80143769535E+03  0.57800515745E+03  0.10857629915E+04  0.91109691205E+02 0.  0.
         11    1    3    3    0    0 -0.25900417275E+03 -0.37721971584E+03  0.29440005740E+03  0.54410409787E+03  0.00000000000E+00 0. -1.
        -11    1    3    3    0    0 -0.18166345280E+03 -0.42421797951E+03  0.28360510006E+03  0.54165889359E+03  0.00000000000E+00 0.  1.
         22    1    1    2    0    0  0.44066762555E+03  0.80143769535E+03 -0.25652058310E+04  0.27233749818E+04  0.00000000000E+00 0. -1.
<mgrwt>
<rscale>  0 0.32497024E+04</rscale>
<asrwt>0</asrwt>
<pdfrwt beam="1">  1        2 0.44587220E+00 0.32497024E+04</pdfrwt>
<pdfrwt beam="2">  1       -2 0.14014902E+00 0.32497024E+04</pdfrwt>
<totfact> 0.60467043E-01</totfact>
</mgrwt>
</event>
<event>
 6    1  0.8968082E-007  0.6034585E+04  0.7818608E-02  0.7686128E-01
          2   -1    0    0  501    0  0.00000000000E+00  0.00000000000E+00  0.32501364621E+04  0.32501364621E+04  0.00000000000E+00 0. -1.
         -2   -1    0    0    0  501 -0.00000000000E+00 -0.00000000000E+00 -0.28011298292E+04  0.28011298292E+04  0.00000000000E+00 0.  1.
         23    2    1    2    0    0  0.69649842301E+03  0.58532216391E+03 -0.26595048658E+04  0.28123535376E+04  0.93027952671E+02 0.  0.
         11    1    3    3    0    0  0.44914730756E+03  0.32967664087E+03 -0.15395918120E+04  0.16373035574E+04  0.00000000000E+00 0.  1.
        -11    1    3    3    0    0  0.24735111545E+03  0.25564552304E+03 -0.11199130538E+04  0.11750499802E+04  0.00000000000E+00 0. -1.
         22    1    1    2    0    0 -0.69649842301E+03 -0.58532216391E+03  0.31085114987E+04  0.32389127537E+04  0.00000000000E+00 0. -1.
<mgrwt>
<rscale>  0 0.60345851E+04</rscale>
<asrwt>0</asrwt>
<pdfrwt beam="1">  1        2 0.50002099E+00 0.60345851E+04</pdfrwt>
<pdfrwt beam="2">  1       -2 0.43094305E+00 0.60345851E+04</pdfrwt>
<totfact> 0.37530045E-03</totfact>
</mgrwt>
</event>
<event>
 6    1  0.8968082E-007  0.3469691E+04  0.7818608E-02  0.8121011E-01
         -1   -1    0    0    0  501 -0.00000000000E+00  0.00000000000E+00  0.64624050258E+03  0.64624050258E+03  0.00000000000E+00 0.  1.
          1   -1    0    0  501    0  0.00000000000E+00 -0.00000000000E+00 -0.46572269948E+04  0.46572269948E+04  0.00000000000E+00 0. -1.
         23    2    1    2    0    0  0.18585431981E+03 -0.12926680043E+04 -0.26454395944E+03  0.13359287075E+04  0.95862440379E+02 0.  0.
         11    1    3    3    0    0  0.77727741549E+02 -0.72358377888E+03 -0.18792021045E+03  0.75161765038E+03  0.00000000000E+00 0.  1.
        -11    1    3    3    0    0  0.10812657826E+03 -0.56908422546E+03 -0.76623748988E+02  0.58431105714E+03  0.00000000000E+00 0. -1.
         22    1    1    2    0    0 -0.18585431981E+03  0.12926680043E+04 -0.37464425328E+04  0.39675387898E+04  0.00000000000E+00 0. -1.
<mgrwt>
<rscale>  0 0.34696909E+04</rscale>
<asrwt>0</asrwt>
<pdfrwt beam="1">  1        1 0.71649646E+00 0.34696909E+04</pdfrwt>
<pdfrwt beam="2">  1       -1 0.99421616E-01 0.34696909E+04</pdfrwt>
<totfact> 0.17270302E-02</totfact>
</mgrwt>
</event>
<event>
 6    1  0.8968082E-007  0.2571522E+04  0.7818608E-02  0.8377939E-01
         -1   -1    0    0    0  501 -0.00000000000E+00  0.00000000000E+00  0.11461251075E+04  0.11461251075E+04  0.00000000000E+00 0.  1.
          1   -1    0    0  501    0  0.00000000000E+00 -0.00000000000E+00 -0.14424095014E+04  0.14424095014E+04  0.00000000000E+00 0. -1.
         23    2    1    2    0    0  0.73325586964E+03 -0.54677821225E+03 -0.10556091087E+04  0.13997517835E+04  0.91454257769E+02 0.  0.
         13    1    3    3    0    0  0.38613823906E+03 -0.28361030552E+03 -0.48330673445E+03  0.68053136931E+03  0.00000000000E+00 0.  1.
        -13    1    3    3    0    0  0.34711763058E+03 -0.26316790673E+03 -0.57230237423E+03  0.71922041416E+03  0.00000000000E+00 0. -1.
         22    1    1    2    0    0 -0.73325586964E+03  0.54677821225E+03  0.75932471478E+03  0.11887828255E+04  0.00000000000E+00 0.  1.
<mgrwt>
<rscale>  0 0.25715223E+04</rscale>
<asrwt>0</asrwt>
<pdfrwt beam="1">  1        1 0.22190915E+00 0.25715223E+04</pdfrwt>
<pdfrwt beam="2">  1       -1 0.17632694E+00 0.25715223E+04</pdfrwt>
<totfact> 0.14014040E+00</totfact>
</mgrwt>
</event>
<event>
 6    1  0.8968082E-007  0.9335324E+03  0.7818608E-02  0.9384609E-01
         -1   -1    0    0    0  501 -0.00000000000E+00  0.00000000000E+00  0.29143739041E+03  0.29143739041E+03  0.00000000000E+00 0.  1.
          1   -1    0    0  501    0  0.00000000000E+00 -0.00000000000E+00 -0.74757286012E+03  0.74757286012E+03  0.00000000000E+00 0. -1.
         23    2    1    2    0    0 -0.45497946931E+03 -0.17268370858E+02 -0.14274491263E+03  0.48627328289E+03  0.93707424720E+02 0.  0.
         11    1    3    3    0    0 -0.32432477755E+03 -0.17785649288E+02 -0.56421029605E+02  0.32967593670E+03  0.00000000000E+00 0.  1.
        -11    1    3    3    0    0 -0.13065469176E+03  0.51727843007E+00 -0.86323883023E+02  0.15659734619E+03  0.00000000000E+00 0. -1.
         22    1    1    2    0    0  0.45497946931E+03  0.17268370858E+02 -0.31339055708E+03  0.55273696764E+03  0.00000000000E+00 0. -1.
<mgrwt>
<rscale>  0 0.93353240E+03</rscale>
<asrwt>0</asrwt>
<pdfrwt beam="1">  1        1 0.11501121E+00 0.93353240E+03</pdfrwt>
<pdfrwt beam="2">  1       -1 0.44836522E-01 0.93353240E+03</pdfrwt>
<totfact> 0.12205312E+02</totfact>
</mgrwt>
</event>
<event>
 6    1  0.8968082E-007  0.1029247E+04  0.7818608E-02  0.9277037E-01
          2   -1    0    0  501    0  0.00000000000E+00  0.00000000000E+00  0.31800904053E+04  0.31800904053E+04  0.00000000000E+00 0. -1.
         -2   -1    0    0    0  501 -0.00000000000E+00 -0.00000000000E+00 -0.83279771866E+02  0.83279771866E+02  0.00000000000E+00 0.  1.
         23    2    1    2    0    0  0.30877530846E+03 -0.39645138093E+03  0.18410160250E+04  0.19107667663E+04  0.95779654767E+02 0.  0.
         13    1    3    3    0    0  0.19602638847E+03 -0.31907623926E+03  0.13176400809E+04  0.13698216578E+04  0.00000000000E+00 0.  1.
        -13    1    3    3    0    0  0.11274891999E+03 -0.77375141669E+02  0.52337594414E+03  0.54094510850E+03  0.00000000000E+00 0. -1.
         22    1    1    2    0    0 -0.30877530846E+03  0.39645138093E+03  0.12557946084E+04  0.13526034108E+04  0.00000000000E+00 0.  1.
<mgrwt>
<rscale>  0 0.10292467E+04</rscale>
<asrwt>0</asrwt>
<pdfrwt beam="1">  1        2 0.48924458E+00 0.10292467E+04</pdfrwt>
<pdfrwt beam="2">  1       -2 0.12812275E-01 0.10292467E+04</pdfrwt>
<totfact> 0.62638856E+01</totfact>
</mgrwt>
</event>
<event>
 6    1  0.8968082E-007  0.2677823E+04  0.7818608E-02  0.8342237E-01
         -1   -1    0    0    0  501 -0.00000000000E+00  0.00000000000E+00  0.86431531816E+03  0.86431531816E+03  0.00000000000E+00 0.  1.
          1   -1    0    0  501    0  0.00000000000E+00 -0.00000000000E+00 -0.20741082869E+04  0.20741082869E+04  0.00000000000E+00 0. -1.
         23    2    1    2    0    0  0.95975600656E+03  0.91136650423E+03 -0.39754081748E+03  0.13855314471E+04  0.99690481369E+02 0.  0.
         13    1    3    3    0    0  0.67650776598E+03  0.65334549677E+03 -0.23551845638E+03  0.96953186584E+03  0.00000000000E+00 0.  1.
        -13    1    3    3    0    0  0.28324824058E+03  0.25802100746E+03 -0.16202236110E+03  0.41599958123E+03  0.00000000000E+00 0. -1.
         22    1    1    2    0    0 -0.95975600656E+03 -0.91136650423E+03 -0.81225215126E+03  0.15528921580E+04  0.00000000000E+00 0.  1.
<mgrwt>
<rscale>  0 0.26778227E+04</rscale>
<asrwt>0</asrwt>
<pdfrwt beam="1">  1        1 0.31909358E+00 0.26778227E+04</pdfrwt>
<pdfrwt beam="2">  1       -1 0.13297159E+00 0.26778227E+04</pdfrwt>
<totfact> 0.11114977E+00</totfact>
</mgrwt>
</event>
<event>
 6    1  0.8968082E-007  0.1864149E+04  0.7818608E-02  0.8672911E-01
          2   -1    0    0  501    0  0.00000000000E+00  0.00000000000E+00  0.42019135819E+04  0.42019135819E+04  0.00000000000E+00 0. -1.
         -2   -1    0    0    0  501 -0.00000000000E+00 -0.00000000000E+00 -0.20675403757E+03  0.20675403757E+03  0.00000000000E+00 0.  1.
         23    2    1    2    0    0  0.92348840801E+03  0.65429122379E+02  0.17935191916E+04  0.20202932659E+04  0.88102100128E+02 0.  0.
         13    1    3    3    0    0  0.39751305133E+03  0.89700002981E+01  0.85564677430E+03  0.94351920450E+03  0.00000000000E+00 0. -1.
        -13    1    3    3    0    0  0.52597535668E+03  0.56459122081E+02  0.93787241728E+03  0.10767740614E+04  0.00000000000E+00 0.  1.
         22    1    1    2    0    0 -0.92348840801E+03 -0.65429122379E+02  0.22016403528E+04  0.23883743536E+04  0.00000000000E+00 0. -1.
<mgrwt>
<rscale>  0 0.18641487E+04</rscale>
<asrwt>0</asrwt>
<pdfrwt beam="1">  1        2 0.64644818E+00 0.18641487E+04</pdfrwt>
<pdfrwt beam="2">  1       -2 0.31808316E-01 0.18641487E+04</pdfrwt>
<totfact> 0.20310931E+00</totfact>
</mgrwt>
</event>
<event>
 6    1  0.8968082E-007  0.7904263E+03  0.7818608E-02  0.9573979E-01
          2   -1    0    0  501    0  0.00000000000E+00  0.00000000000E+00  0.22366193338E+03  0.22366193338E+03  0.00000000000E+00 0. -1.
         -2   -1    0    0    0  501 -0.00000000000E+00 -0.00000000000E+00 -0.69834605595E+03  0.69834605595E+03  0.00000000000E+00 0.  1.
         23    2    1    2    0    0 -0.11461620403E+02 -0.32189198688E+03  0.16110476262E+02  0.33496015635E+03  0.90514854775E+02 0.  0.
         13    1    3    3    0    0 -0.51298154227E+02 -0.17988457914E+03  0.68834240048E+01  0.18718264868E+03  0.00000000000E+00 0.  1.
        -13    1    3    3    0    0  0.39836533823E+02 -0.14200740774E+03  0.92270522574E+01  0.14777750767E+03  0.00000000000E+00 0. -1.
         22    1    1    2    0    0  0.11461620403E+02  0.32189198688E+03 -0.49079459883E+03  0.58704783298E+03  0.00000000000E+00 0.  1.
<mgrwt>
<rscale>  0 0.79042629E+03</rscale>
<asrwt>0</asrwt>
<pdfrwt beam="1">  1        2 0.34409528E-01 0.79042629E+03</pdfrwt>
<pdfrwt beam="2">  1       -2 0.10743785E+00 0.79042629E+03</pdfrwt>
<totfact> 0.10685006E+02</totfact>
</mgrwt>
</event>
<event>
 6    1  0.8968082E-007  0.4731075E+04  0.7818608E-02  0.7871386E-01
         -2   -1    0    0    0  501 -0.00000000000E+00  0.00000000000E+00  0.25742276815E+04  0.25742276815E+04  0.00000000000E+00 0.  1.
          2   -1    0    0  501    0  0.00000000000E+00 -0.00000000000E+00 -0.21737654590E+04  0.21737654590E+04  0.00000000000E+00 0. -1.
         23    2    1    2    0    0 -0.90645608788E+03  0.17107857951E+04  0.15628371164E+04  0.24897712581E+04  0.89723960428E+02 0.  0.
         13    1    3    3    0    0 -0.53145285130E+03  0.10951971198E+04  0.97612643341E+03  0.15603594709E+04  0.00000000000E+00 0. -1.
        -13    1    3    3    0    0 -0.37500323658E+03  0.61558867534E+03  0.58671068298E+03  0.92941178719E+03  0.00000000000E+00 0.  1.
         22    1    1    2    0    0  0.90645608788E+03 -0.17107857951E+04 -0.11623748940E+04  0.22582218824E+04  0.00000000000E+00 0. -1.
<mgrwt>
<rscale>  0 0.47310748E+04</rscale>
<asrwt>0</asrwt>
<pdfrwt beam="1">  1        2 0.33442546E+00 0.47310748E+04</pdfrwt>
<pdfrwt beam="2">  1       -2 0.39603503E+00 0.47310748E+04</pdfrwt>
<totfact> 0.31314572E-02</totfact>
</mgrwt>
</event>
<event>
 6    1  0.8968082E-007  0.3212222E+04  0.7818608E-02  0.8185597E-01
          2   -1    0    0  501    0  0.00000000000E+00  0.00000000000E+00  0.32540136744E+04  0.32540136744E+04  0.00000000000E+00 0. -1.
         -2   -1    0    0    0  501 -0.00000000000E+00 -0.00000000000E+00 -0.79274155438E+03  0.79274155438E+03  0.00000000000E+00 0.  1.
         23    2    1    2    0    0  0.75630536971E+03  0.69061257948E+03  0.27881272886E+04  0.29716841388E+04  0.91155339535E+02 0.  0.
         13    1    3    3    0    0  0.45706225010E+03  0.35891218736E+03  0.15376028495E+04  0.16437598309E+04  0.00000000000E+00 0. -1.
        -13    1    3    3    0    0  0.29924311960E+03  0.33170039213E+03  0.12505244391E+04  0.13279243079E+04  0.00000000000E+00 0.  1.
         22    1    1    2    0    0 -0.75630536971E+03 -0.69061257948E+03 -0.32685516865E+03  0.10750710900E+04  0.00000000000E+00 0.  1.
<mgrwt>
<rscale>  0 0.32122216E+04</rscale>
<asrwt>0</asrwt>
<pdfrwt beam="1">  1        2 0.50061748E+00 0.32122216E+04</pdfrwt>
<pdfrwt beam="2">  1       -2 0.12196024E+00 0.32122216E+04</pdfrwt>
<totfact> 0.51214611E-01</totfact>
</mgrwt>
</event>
<event>
 6    1  0.8968082E-007  0.4214883E+04  0.7818608E-02  0.7962547E-01
         -1   -1    0    0    0  501 -0.00000000000E+00  0.00000000000E+00  0.20281790366E+04  0.20281790366E+04  0.00000000000E+00 0.  1.
          1   -1    0    0  501    0  0.00000000000E+00 -0.00000000000E+00 -0.21898019694E+04  0.21898019694E+04  0.00000000000E+00 0. -1.
         23    2    1    2    0    0  0.12707429989E+04 -0.10296841136E+04 -0.14082434437E+04  0.21615034736E+04  0.11794289630E+03 0.  0.
         13    1    3    3    0    0  0.71916526450E+02 -0.77006446083E+02 -0.12618878859E+03  0.16439461634E+03  0.00000000000E+00 0.  1.
        -13    1    3    3    0    0  0.11988264724E+04 -0.95267766748E+03 -0.12820546551E+04  0.19971088573E+04  0.00000000000E+00 0. -1.
         22    1    1    2    0    0 -0.12707429989E+04  0.10296841136E+04  0.12466205110E+04  0.20564775324E+04  0.00000000000E+00 0.  1.
<mgrwt>
<rscale>  0 0.42148834E+04</rscale>
<asrwt>0</asrwt>
<pdfrwt beam="1">  1        1 0.33689261E+00 0.42148834E+04</pdfrwt>
<pdfrwt beam="2">  1       -1 0.31202754E+00 0.42148834E+04</pdfrwt>
<totfact> 0.46963372E-02</totfact>
</mgrwt>
</event>
<event>
 6    1  0.8968082E-007  0.7434680E+03  0.7818608E-02  0.9645654E-01
         -2   -1    0    0    0  501 -0.00000000000E+00  0.00000000000E+00  0.23846828425E+03  0.23846828425E+03  0.00000000000E+00 0.  1.
          2   -1    0    0  501    0  0.00000000000E+00 -0.00000000000E+00 -0.57947394526E+03  0.57947394526E+03  0.00000000000E+00 0. -1.
         23    2    1    2    0    0  0.63054673736E+02  0.82913541984E+02  0.21708313295E+03  0.25021549130E+03  0.68059959949E+02 0.  0.
         13    1    3    3    0    0 -0.12609581257E+02  0.11839758678E+02  0.14449433369E+02  0.22538135454E+02  0.00000000000E+00 0. -1.
        -13    1    3    3    0    0  0.75664254993E+02  0.71073783306E+02  0.20263369958E+03  0.22767735584E+03  0.00000000000E+00 0.  1.
         22    1    1    2    0    0 -0.63054673736E+02 -0.82913541984E+02 -0.55808879397E+03  0.56772673821E+03  0.00000000000E+00 0. -1.
<mgrwt>
<rscale>  0 0.74346798E+03</rscale>
<asrwt>0</asrwt>
<pdfrwt beam="1">  1        2 0.89149837E-01 0.74346798E+03</pdfrwt>
<pdfrwt beam="2">  1       -2 0.36687429E-01 0.74346798E+03</pdfrwt>
<totfact> 0.36438961E+02</totfact>
</mgrwt>
</event>
<event>
 6    1  0.8968082E-007  0.1903939E+04  0.7818608E-02  0.8652898E-01
          2   -1    0    0  501    0  0.00000000000E+00  0.00000000000E+00  0.15588724582E+04  0.15588724582E+04  0.00000000000E+00 0. -1.
         -2   -1    0    0    0  501 -0.00000000000E+00 -0.00000000000E+00 -0.58134710893E+03  0.58134710893E+03  0.00000000000E+00 0.  1.
         23    2    1    2    0    0 -0.75259769804E+03  0.23530766368E+03  0.10850113678E+04  0.13444016006E+04  0.91613339086E+02 0.  0.
         13    1    3    3    0    0 -0.27040255543E+03  0.10900895467E+03  0.33818961214E+03  0.44651171086E+03  0.00000000000E+00 0. -1.
        -13    1    3    3    0    0 -0.48219514262E+03  0.12629870901E+03  0.74682175562E+03  0.89788988976E+03  0.00000000000E+00 0.  1.
         22    1    1    2    0    0  0.75259769804E+03 -0.23530766368E+03 -0.10748601848E+03  0.79581796653E+03  0.00000000000E+00 0.  1.
<mgrwt>
<rscale>  0 0.19039391E+04</rscale>
<asrwt>0</asrwt>
<pdfrwt beam="1">  1        2 0.23982653E+00 0.19039391E+04</pdfrwt>
<pdfrwt beam="2">  1       -2 0.89438017E-01 0.19039391E+04</pdfrwt>
<totfact> 0.11806089E+01</totfact>
</mgrwt>
</event>
<event>
 6    1  0.8968082E-007  0.1601748E+04  0.7818608E-02  0.8819475E-01
          2   -1    0    0  501    0  0.00000000000E+00  0.00000000000E+00  0.18942326719E+04  0.18942326719E+04  0.00000000000E+00 0. -1.
         -2   -1    0    0    0  501 -0.00000000000E+00 -0.00000000000E+00 -0.33860628852E+03  0.33860628852E+03  0.00000000000E+00 0.  1.
         23    2    1    2    0    0  0.57651834886E+03 -0.53960850253E+03  0.61899581802E+03  0.10077562862E+04  0.94160326889E+02 0.  0.
         13    1    3    3    0    0  0.16680148626E+03 -0.13453358736E+03  0.12030313136E+03  0.24575366806E+03  0.00000000000E+00 0.  1.
        -13    1    3    3    0    0  0.40971686260E+03 -0.40507491518E+03  0.49869268666E+03  0.76200261819E+03  0.00000000000E+00 0. -1.
         22    1    1    2    0    0 -0.57651834886E+03  0.53960850253E+03  0.93663056531E+03  0.12250826741E+04  0.00000000000E+00 0. -1.
<mgrwt>
<rscale>  0 0.16017479E+04</rscale>
<asrwt>0</asrwt>
<pdfrwt beam="1">  1        2 0.29142040E+00 0.16017479E+04</pdfrwt>
<pdfrwt beam="2">  1       -2 0.52093276E-01 0.16017479E+04</pdfrwt>
<totfact> 0.25517188E+01</totfact>
</mgrwt>
</event>
<event>
 6    1  0.8968082E-007  0.3958286E+04  0.7818608E-02  0.8013015E-01
          2   -1    0    0  501    0  0.00000000000E+00  0.00000000000E+00  0.38728693934E+04  0.38728693934E+04  0.00000000000E+00 0. -1.
         -2   -1    0    0    0  501 -0.00000000000E+00 -0.00000000000E+00 -0.10113966983E+04  0.10113966983E+04  0.00000000000E+00 0.  1.
         23    2    1    2    0    0 -0.10414569399E+04 -0.32386799624E+03 -0.60475076650E+03  0.12505038371E+04  0.92267656325E+02 0.  0.
         11    1    3    3    0    0 -0.40332751372E+03 -0.15180131391E+03 -0.19625487693E+03  0.47353215197E+03  0.00000000000E+00 0. -1.
        -11    1    3    3    0    0 -0.63812942618E+03 -0.17206668233E+03 -0.40849588957E+03  0.77697168515E+03  0.00000000000E+00 0.  1.
         22    1    1    2    0    0  0.10414569399E+04  0.32386799624E+03  0.34662234616E+04  0.36337622545E+04  0.00000000000E+00 0. -1.
<mgrwt>
<rscale>  0 0.39582862E+04</rscale>
<asrwt>0</asrwt>
<pdfrwt beam="1">  1        2 0.59582605E+00 0.39582862E+04</pdfrwt>
<pdfrwt beam="2">  1       -2 0.15559949E+00 0.39582862E+04</pdfrwt>
<totfact> 0.92536083E-02</totfact>
</mgrwt>
</event>
<event>
 6    1  0.8968082E-007  0.1841591E+04  0.7818608E-02  0.8684489E-01
         -1   -1    0    0    0  501 -0.00000000000E+00  0.00000000000E+00  0.11380503185E+04  0.11380503185E+04  0.00000000000E+00 0.  1.
          1   -1    0    0  501    0  0.00000000000E+00 -0.00000000000E+00 -0.74501448523E+03  0.74501448523E+03  0.00000000000E+00 0. -1.
         23    2    1    2    0    0  0.60544888778E+03 -0.20991481894E+03 -0.47621005111E+03  0.80314767985E+03  0.87393340391E+02 0.  0.
         13    1    3    3    0    0  0.29385405118E+03 -0.80771984527E+02 -0.27441461229E+03  0.41009474066E+03  0.00000000000E+00 0.  1.
        -13    1    3    3    0    0  0.31159483660E+03 -0.12914283442E+03 -0.20179543882E+03  0.39305293919E+03  0.00000000000E+00 0. -1.
         22    1    1    2    0    0 -0.60544888778E+03  0.20991481894E+03  0.86924588438E+03  0.10799171239E+04  0.00000000000E+00 0.  1.
<mgrwt>
<rscale>  0 0.18415906E+04</rscale>
<asrwt>0</asrwt>
<pdfrwt beam="1">  1        1 0.11461761E+00 0.18415906E+04</pdfrwt>
<pdfrwt beam="2">  1       -1 0.17508466E+00 0.18415906E+04</pdfrwt>
<totfact> 0.52557425E+00</totfact>
</mgrwt>
</event>
<event>
 6    1  0.8968082E-007  0.3308601E+04  0.7818608E-02  0.8160710E-01
         -4   -1    0    0    0  501 -0.00000000000E+00  0.00000000000E+00  0.18877823899E+04  0.18877823899E+04  0.00000000000E+00 0.  1.
          4   -1    0    0  501    0  0.00000000000E+00 -0.00000000000E+00 -0.14496954251E+04  0.14496954251E+04  0.00000000000E+00 0. -1.
         23    2    1    2    0    0 -0.12212532824E+04  0.70271663884E+03  0.10899160657E+04  0.17850115735E+04  0.11436359982E+03 0.  0.
         11    1    3    3    0    0 -0.30061629414E+03  0.18437388169E+03  0.33582555967E+03  0.48697298803E+03  0.00000000000E+00 0. -1.
        -11    1    3    3    0    0 -0.92063698831E+03  0.51834275715E+03  0.75409050600E+03  0.12980385855E+04  0.00000000000E+00 0.  1.
         22    1    1    2    0    0  0.12212532824E+04 -0.70271663884E+03 -0.65182910089E+03  0.15524662415E+04  0.00000000000E+00 0. -1.
<mgrwt>
<rscale>  0 0.33086006E+04</rscale>
<asrwt>0</asrwt>
<pdfrwt beam="1">  1        4 0.22303006E+00 0.33086006E+04</pdfrwt>
<pdfrwt beam="2">  1       -4 0.29042806E+00 0.33086006E+04</pdfrwt>
<totfact> 0.54553282E-03</totfact>
</mgrwt>
</event>
<event>
 6    1  0.8968082E-007  0.6664290E+03  0.7818608E-02  0.9776430E-01
         -2   -1    0    0    0  501 -0.00000000000E+00  0.00000000000E+00  0.28589656719E+03  0.28589656719E+03  0.00000000000E+00 0.  1.
          2   -1    0    0  501    0  0.00000000000E+00 -0.00000000000E+00 -0.38836392199E+03  0.38836392199E+03  0.00000000000E+00 0. -1.
         23    2    1    2    0    0  0.25399498037E+03  0.15317533937E+03  0.82184031408E+02  0.32487206769E+03  0.10397841461E+03 0.  0.
         11    1    3    3    0    0  0.15355042856E+03  0.31898343281E+02  0.41924656379E+02  0.16233581006E+03  0.00000000000E+00 0. -1.
        -11    1    3    3    0    0  0.10044455181E+03  0.12127699608E+03  0.40259375029E+02  0.16253625763E+03  0.00000000000E+00 0.  1.
         22    1    1    2    0    0 -0.25399498037E+03 -0.15317533937E+03 -0.18465138621E+03  0.34938842149E+03  0.00000000000E+00 0. -1.
<mgrwt>
<rscale>  0 0.66642903E+03</rscale>
<asrwt>0</asrwt>
<pdfrwt beam="1">  1        2 0.59748296E-01 0.66642903E+03</pdfrwt>
<pdfrwt beam="2">  1       -2 0.43984087E-01 0.66642903E+03</pdfrwt>
<totfact> 0.40652041E+02</totfact>
</mgrwt>
</event>
<event>
 6    1  0.8968082E-007  0.2126673E+04  0.7818608E-02  0.8549584E-01
          1   -1    0    0  501    0  0.00000000000E+00  0.00000000000E+00  0.17379368329E+04  0.17379368329E+04  0.00000000000E+00 0. -1.
         -1   -1    0    0    0  501 -0.00000000000E+00 -0.00000000000E+00 -0.65059034304E+03  0.65059034304E+03  0.00000000000E+00 0.  1.
         23    2    1    2    0    0  0.56844520247E+03  0.81711603466E+03  0.95812333686E+03  0.13847806015E+04  0.93853201549E+02 0.  0.
         11    1    3    3    0    0  0.24171129577E+03  0.31897166124E+03  0.44536174667E+03  0.59876068389E+03  0.00000000000E+00 0. -1.
        -11    1    3    3    0    0  0.32673390670E+03  0.49814437342E+03  0.51276159019E+03  0.78601991764E+03  0.00000000000E+00 0.  1.
         22    1    1    2    0    0 -0.56844520247E+03 -0.81711603466E+03  0.12922315298E+03  0.10037465744E+04  0.00000000000E+00 0.  1.
<mgrwt>
<rscale>  0 0.21266734E+04</rscale>
<asrwt>0</asrwt>
<pdfrwt beam="1">  1        1 0.26737490E+00 0.21266734E+04</pdfrwt>
<pdfrwt beam="2">  1       -1 0.10009082E+00 0.21266734E+04</pdfrwt>
<totfact> 0.39183615E+00</totfact>
</mgrwt>
</event>
<event>
 6    1  0.8968082E-007  0.3217698E+04  0.7818608E-02  0.8184159E-01
          1   -1    0    0  501    0  0.00000000000E+00  0.00000000000E+00  0.90378880682E+03  0.90378880682E+03  0.00000000000E+00 0. -1.
         -1   -1    0    0    0  501 -0.00000000000E+00 -0.00000000000E+00 -0.28639374060E+04  0.28639374060E+04  0.00000000000E+00 0.  1.
         23    2    1    2    0    0 -0.10628840495E+04  0.69410607604E+03 -0.21357608123E+04  0.24861859689E+04  0.90225701747E+02 0.  0.
         13    1    3    3    0    0 -0.76107014657E+03  0.47195020051E+03 -0.14348688355E+04  0.16913939030E+04  0.00000000000E+00 0. -1.
        -13    1    3    3    0    0 -0.30181390288E+03  0.22215587553E+03 -0.70089197681E+03  0.79479206600E+03  0.00000000000E+00 0.  1.
         22    1    1    2    0    0  0.10628840495E+04 -0.69410607604E+03  0.17561221312E+03  0.12815402439E+04  0.00000000000E+00 0.  1.
<mgrwt>
<rscale>  0 0.32176977E+04</rscale>
<asrwt>0</asrwt>
<pdfrwt beam="1">  1        1 0.13904444E+00 0.32176977E+04</pdfrwt>
<pdfrwt beam="2">  1       -1 0.44060574E+00 0.32176977E+04</pdfrwt>
<totfact> 0.56641787E-02</totfact>
</mgrwt>
</event>
<event>
 6    1  0.8968082E-007  0.3418778E+04  0.7818608E-02  0.8133313E-01
         -1   -1    0    0    0  501 -0.00000000000E+00  0.00000000000E+00  0.10150450927E+04  0.10150450927E+04  0.00000000000E+00 0.  1.
          1   -1    0    0  501    0  0.00000000000E+00 -0.00000000000E+00 -0.28786999531E+04  0.28786999531E+04  0.00000000000E+00 0. -1.
         23    2    1    2    0    0  0.68472283329E+03 -0.45992996663E+03  0.77111393355E+03  0.11328778757E+04  0.91731402371E+02 0.  0.
         11    1    3    3    0    0  0.33831130869E+03 -0.27479067886E+03  0.37380818741E+03  0.57419249364E+03  0.00000000000E+00 0. -1.
        -11    1    3    3    0    0  0.34641152461E+03 -0.18513928777E+03  0.39730574614E+03  0.55868538210E+03  0.00000000000E+00 0.  1.
         22    1    1    2    0    0 -0.68472283329E+03  0.45992996663E+03 -0.26347687940E+04  0.27608671701E+04  0.00000000000E+00 0. -1.
<mgrwt>
<rscale>  0 0.34187777E+04</rscale>
<asrwt>0</asrwt>
<pdfrwt beam="1">  1        1 0.44287690E+00 0.34187777E+04</pdfrwt>
<pdfrwt beam="2">  1       -1 0.15616079E+00 0.34187777E+04</pdfrwt>
<totfact> 0.18783263E-01</totfact>
</mgrwt>
</event>
<event>
 6    1  0.8968082E-007  0.1160256E+04  0.7818608E-02  0.9148373E-01
          2   -1    0    0  501    0  0.00000000000E+00  0.00000000000E+00  0.10651381646E+04  0.10651381646E+04  0.00000000000E+00 0. -1.
         -2   -1    0    0    0  501 -0.00000000000E+00 -0.00000000000E+00 -0.31596721110E+03  0.31596721110E+03  0.00000000000E+00 0.  1.
         23    2    1    2    0    0 -0.32988793193E+02  0.56123265665E+03  0.22564633180E+03  0.61289421664E+03  0.93019881552E+02 0.  0.
         13    1    3    3    0    0  0.17856129092E+02  0.27108872573E+03  0.73940089604E+02  0.28155829843E+03  0.00000000000E+00 0. -1.
        -13    1    3    3    0    0 -0.50844922285E+02  0.29014393092E+03  0.15170624220E+03  0.33133591820E+03  0.00000000000E+00 0.  1.
         22    1    1    2    0    0  0.32988793193E+02 -0.56123265665E+03  0.52352462167E+03  0.76821115903E+03  0.00000000000E+00 0. -1.
<mgrwt>
<rscale>  0 0.11602564E+04</rscale>
<asrwt>0</asrwt>
<pdfrwt beam="1">  1        2 0.16386741E+00 0.11602564E+04</pdfrwt>
<pdfrwt beam="2">  1       -2 0.48610341E-01 0.11602564E+04</pdfrwt>
<totfact> 0.90774587E+01</totfact>
</mgrwt>
</event>
<event>
 6    1  0.8968082E-007  0.1980757E+04  0.7818608E-02  0.8615671E-01
          1   -1    0    0  501    0  0.00000000000E+00  0.00000000000E+00  0.88117741440E+03  0.88117741440E+03  0.00000000000E+00 0. -1.
         -1   -1    0    0    0  501 -0.00000000000E+00 -0.00000000000E+00 -0.11131120086E+04  0.11131120086E+04  0.00000000000E+00 0.  1.
         23    2    1    2    0    0  0.86908894760E+02 -0.98145715831E+03 -0.40215517260E+02  0.99051279744E+03  0.93204101260E+02 0.  0.
         13    1    3    3    0    0 -0.62862625904E+01 -0.23643897432E+03  0.19452607293E+02  0.23732111074E+03  0.00000000000E+00 0. -1.
        -13    1    3    3    0    0  0.93195157350E+02 -0.74501818399E+03 -0.59668124552E+02  0.75319168670E+03  0.00000000000E+00 0.  1.
         22    1    1    2    0    0 -0.86908894760E+02  0.98145715831E+03 -0.19171907695E+03  0.10037766256E+04  0.00000000000E+00 0. -1.
<mgrwt>
<rscale>  0 0.19807566E+04</rscale>
<asrwt>0</asrwt>
<pdfrwt beam="1">  1        1 0.13556576E+00 0.19807566E+04</pdfrwt>
<pdfrwt beam="2">  1       -1 0.17124800E+00 0.19807566E+04</pdfrwt>
<totfact> 0.42218951E+00</totfact>
</mgrwt>
</event>
<event>
 6    1  0.8968082E-007  0.7073853E+03  0.7818608E-02  0.9704685E-01
          1   -1    0    0  501    0  0.00000000000E+00  0.00000000000E+00  0.16711467097E+04  0.16711467097E+04  0.00000000000E+00 0. -1.
         -1   -1    0    0    0  501 -0.00000000000E+00 -0.00000000000E+00 -0.74857879707E+02  0.74857879707E+02  0.00000000000E+00 0.  1.
         23    2    1    2    0    0 -0.11439906141E+03  0.50108221142E+02  0.16126389998E+04  0.16200470286E+04  0.91377524632E+02 0.  0.
         11    1    3    3    0    0 -0.41901235960E+02 -0.24111246099E+02  0.66208658080E+03  0.66384915925E+03  0.00000000000E+00 0.  1.
        -11    1    3    3    0    0 -0.72497825447E+02  0.74219467242E+02  0.95055241903E+03  0.95619786935E+03  0.00000000000E+00 0. -1.
         22    1    1    2    0    0  0.11439906141E+03 -0.50108221142E+02 -0.16350169820E+02  0.12595756083E+03  0.00000000000E+00 0.  1.
<mgrwt>
<rscale>  0 0.70738532E+03</rscale>
<asrwt>0</asrwt>
<pdfrwt beam="1">  1        1 0.25709947E+00 0.70738532E+03</pdfrwt>
<pdfrwt beam="2">  1       -1 0.11516598E-01 0.70738532E+03</pdfrwt>
<totfact> 0.25758222E+02</totfact>
</mgrwt>
</event>
<event>
 6    1  0.8968082E-007  0.1415101E+04  0.7818608E-02  0.8942960E-01
         -2   -1    0    0    0  501 -0.00000000000E+00  0.00000000000E+00  0.23965313229E+03  0.23965313229E+03  0.00000000000E+00 0.  1.
          2   -1    0    0  501    0  0.00000000000E+00 -0.00000000000E+00 -0.20889665426E+04  0.20889665426E+04  0.00000000000E+00 0. -1.
         23    2    1    2    0    0  0.63704067809E+03 -0.29383021344E+03 -0.82332193400E+03  0.10857135926E+04  0.93584070952E+02 0.  0.
         13    1    3    3    0    0  0.31742779095E+03 -0.15114163173E+03 -0.34108118654E+03  0.48983729046E+03  0.00000000000E+00 0. -1.
        -13    1    3    3    0    0  0.31961288713E+03 -0.14268858171E+03 -0.48224074747E+03  0.59587630217E+03  0.00000000000E+00 0.  1.
         22    1    1    2    0    0 -0.63704067809E+03  0.29383021344E+03 -0.10259914763E+04  0.12429060822E+04  0.00000000000E+00 0. -1.
<mgrwt>
<rscale>  0 0.14151005E+04</rscale>
<asrwt>0</asrwt>
<pdfrwt beam="1">  1        2 0.32137946E+00 0.14151005E+04</pdfrwt>
<pdfrwt beam="2">  1       -2 0.36869714E-01 0.14151005E+04</pdfrwt>
<totfact> 0.40197999E+01</totfact>
</mgrwt>
</event>
<event>
 6    1  0.8968082E-007  0.1449113E+04  0.7818608E-02  0.8919016E-01
          2   -1    0    0  501    0  0.00000000000E+00  0.00000000000E+00  0.54472044078E+03  0.54472044078E+03  0.00000000000E+00 0. -1.
         -2   -1    0    0    0  501 -0.00000000000E+00 -0.00000000000E+00 -0.96376400966E+03  0.96376400966E+03  0.00000000000E+00 0.  1.
         23    2    1    2    0    0 -0.14391486137E+03  0.27346901013E+03 -0.88925517499E+03  0.94581603891E+03  0.91084721015E+02 0.  0.
         13    1    3    3    0    0 -0.51432099638E+02  0.15995272156E+03 -0.37097499583E+03  0.40725002338E+03  0.00000000000E+00 0.  1.
        -13    1    3    3    0    0 -0.92482761729E+02  0.11351628857E+03 -0.51828017915E+03  0.53856601554E+03  0.00000000000E+00 0. -1.
         22    1    1    2    0    0  0.14391486137E+03 -0.27346901013E+03  0.47021160610E+03  0.56266841153E+03  0.00000000000E+00 0. -1.
<mgrwt>
<rscale>  0 0.14491128E+04</rscale>
<asrwt>0</asrwt>
<pdfrwt beam="1">  1        2 0.83803144E-01 0.14491128E+04</pdfrwt>
<pdfrwt beam="2">  1       -2 0.14827139E+00 0.14491128E+04</pdfrwt>
<totfact> 0.16672374E+01</totfact>
</mgrwt>
</event>
<event>
 6    1  0.8968082E-007  0.1757698E+04  0.7818608E-02  0.8729125E-01
          2   -1    0    0  501    0  0.00000000000E+00  0.00000000000E+00  0.15772478408E+04  0.15772478408E+04  0.00000000000E+00 0. -1.
         -2   -1    0    0    0  501 -0.00000000000E+00 -0.00000000000E+00 -0.48969812382E+03  0.48969812382E+03  0.00000000000E+00 0.  1.
         23    2    1    2    0    0  0.83454087269E+02 -0.20890327020E+03  0.15414154482E+04  0.15603896863E+04  0.90825262313E+02 0.  0.
         13    1    3    3    0    0  0.59554619196E+02 -0.11475212409E+03  0.11436835140E+04  0.11509677592E+04  0.00000000000E+00 0. -1.
        -13    1    3    3    0    0  0.23899468073E+02 -0.94151146110E+02  0.39773193426E+03  0.40942192714E+03  0.00000000000E+00 0.  1.
         22    1    1    2    0    0 -0.83454087269E+02  0.20890327020E+03 -0.45386573128E+03  0.50655627823E+03  0.00000000000E+00 0.  1.
<mgrwt>
<rscale>  0 0.17576977E+04</rscale>
<asrwt>0</asrwt>
<pdfrwt beam="1">  1        2 0.24265351E+00 0.17576977E+04</pdfrwt>
<pdfrwt beam="2">  1       -2 0.75338173E-01 0.17576977E+04</pdfrwt>
<totfact> 0.17196901E+01</totfact>
</mgrwt>
</event>
<event>
 6    1  0.8968082E-007  0.1282491E+04  0.7818608E-02  0.9043566E-01
          1   -1    0    0  501    0  0.00000000000E+00  0.00000000000E+00  0.13654077995E+04  0.13654077995E+04  0.00000000000E+00 0. -1.
         -1   -1    0    0    0  501 -0.00000000000E+00 -0.00000000000E+00 -0.30115256908E+03  0.30115256908E+03  0.00000000000E+00 0.  1.
         23    2    1    2    0    0  0.19121410364E+03  0.37472867256E+03 -0.88606066837E+02  0.43933847252E+03  0.90459089597E+02 0.  0.
         11    1    3    3    0    0  0.65616426434E+02  0.22661850263E+03 -0.42108064217E+02  0.23965506509E+03  0.00000000000E+00 0. -1.
        -11    1    3    3    0    0  0.12559767721E+03  0.14811016993E+03 -0.46498002620E+02  0.19968340743E+03  0.00000000000E+00 0.  1.
         22    1    1    2    0    0 -0.19121410364E+03 -0.37472867256E+03  0.11528612972E+04  0.12272218960E+04  0.00000000000E+00 0. -1.
<mgrwt>
<rscale>  0 0.12824914E+04</rscale>
<asrwt>0</asrwt>
<pdfrwt beam="1">  1        1 0.21006273E+00 0.12824914E+04</pdfrwt>
<pdfrwt beam="2">  1       -1 0.46331165E-01 0.12824914E+04</pdfrwt>
<totfact> 0.37063199E+01</totfact>
</mgrwt>
</event>
<event>
 6    1  0.8968082E-007  0.2117015E+04  0.7818608E-02  0.8553785E-01
         -2   -1    0    0    0  501 -0.00000000000E+00  0.00000000000E+00  0.38527138565E+03  0.38527138565E+03  0.00000000000E+00 0.  1.
          2   -1    0    0  501    0  0.00000000000E+00 -0.00000000000E+00 -0.29081779327E+04  0.29081779327E+04  0.00000000000E+00 0. -1.
         23    2    1    2    0    0 -0.44952213827E+03  0.33467829156E+03 -0.26570462095E+04  0.27171914240E+04  0.95681573781E+02 0.  0.
         13    1    3    3    0    0 -0.31283136033E+03  0.17738599487E+03 -0.16252563824E+04  0.16645682803E+04  0.00000000000E+00 0. -1.
        -13    1    3    3    0    0 -0.13669077794E+03  0.15729229669E+03 -0.10317898271E+04  0.10526231437E+04  0.00000000000E+00 0.  1.
         22    1    1    2    0    0  0.44952213827E+03 -0.33467829156E+03  0.13413966254E+03  0.57625789427E+03  0.00000000000E+00 0.  1.
<mgrwt>
<rscale>  0 0.21170146E+04</rscale>
<asrwt>0</asrwt>
<pdfrwt beam="1">  1        2 0.44741200E+00 0.21170146E+04</pdfrwt>
<pdfrwt beam="2">  1       -2 0.59272520E-01 0.21170146E+04</pdfrwt>
<totfact> 0.48634404E+00</totfact>
</mgrwt>
</event>
<event>
 6    1  0.8968082E-007  0.3663477E+04  0.7818608E-02  0.8076104E-01
          2   -1    0    0  501    0  0.00000000000E+00  0.00000000000E+00  0.14748898143E+04  0.14748898143E+04  0.00000000000E+00 0. -1.
         -2   -1    0    0    0  501 -0.00000000000E+00 -0.00000000000E+00 -0.22749266085E+04  0.22749266085E+04  0.00000000000E+00 0.  1.
         23    2    1    2    0    0  0.17102841008E+04  0.52879939059E+03 -0.87933507283E+01  0.17925819740E+04  0.92586768629E+02 0.  0.
         13    1    3    3    0    0  0.47080877871E+03  0.17888282539E+03 -0.29292336702E+02  0.50449778227E+03  0.00000000000E+00 0. -1.
        -13    1    3    3    0    0  0.12394753220E+04  0.34991656520E+03  0.20498985974E+02  0.12880841917E+04  0.00000000000E+00 0.  1.
         22    1    1    2    0    0 -0.17102841008E+04 -0.52879939059E+03 -0.79124344348E+03  0.19572344488E+04  0.00000000000E+00 0.  1.
<mgrwt>
<rscale>  0 0.36634771E+04</rscale>
<asrwt>0</asrwt>
<pdfrwt beam="1">  1        2 0.22690612E+00 0.36634771E+04</pdfrwt>
<pdfrwt beam="2">  1       -2 0.34998871E+00 0.36634771E+04</pdfrwt>
<totfact> 0.16541996E-01</totfact>
</mgrwt>
</event>
<event>
 6    1  0.8968082E-007  0.2007250E+04  0.7818608E-02  0.8603238E-01
          1   -1    0    0  501    0  0.00000000000E+00  0.00000000000E+00  0.11280638012E+04  0.11280638012E+04  0.00000000000E+00 0. -1.
         -1   -1    0    0    0  501 -0.00000000000E+00 -0.00000000000E+00 -0.89291363628E+03  0.89291363628E+03  0.00000000000E+00 0.  1.
         23    2    1    2    0    0  0.13498913066E+03 -0.96316670930E+03 -0.12274235708E+03  0.98463809510E+03  0.92381366013E+02 0.  0.
         11    1    3    3    0    0  0.52496433120E+02 -0.65153407619E+03 -0.61784113963E+02  0.65655906411E+03  0.00000000000E+00 0.  1.
        -11    1    3    3    0    0  0.82492697543E+02 -0.31163263312E+03 -0.60958243120E+02  0.32807903099E+03  0.00000000000E+00 0. -1.
         22    1    1    2    0    0 -0.13498913066E+03  0.96316670930E+03  0.35789252203E+03  0.10363393424E+04  0.00000000000E+00 0. -1.
<mgrwt>
<rscale>  0 0.20072504E+04</rscale>
<asrwt>0</asrwt>
<pdfrwt beam="1">  1        1 0.17354828E+00 0.20072504E+04</pdfrwt>
<pdfrwt beam="2">  1       -1 0.13737133E+00 0.20072504E+04</pdfrwt>
<totfact> 0.49319392E+00</totfact>
</mgrwt>
</event>
<event>
 6    1  0.8968082E-007  0.9171417E+03  0.7818608E-02  0.9404404E-01
          1   -1    0    0  501    0  0.00000000000E+00  0.00000000000E+00  0.10096983856E+04  0.10096983856E+04  0.00000000000E+00 0. -1.
         -1   -1    0    0    0  501 -0.00000000000E+00 -0.00000000000E+00 -0.20826735138E+03  0.20826735138E+03  0.00000000000E+00 0.  1.
         23    2    1    2    0    0 -0.19971204064E+03 -0.19813123123E+03 -0.68367002111E+02  0.30380518874E+03  0.92101366772E+02 0.  0.
         13    1    3    3    0    0 -0.11136080552E+03 -0.13424823152E+03  0.12837568358E+01  0.17442896750E+03  0.00000000000E+00 0. -1.
        -13    1    3    3    0    0 -0.88351235126E+02 -0.63882999708E+02 -0.69650758947E+02  0.12937622124E+03  0.00000000000E+00 0.  1.
         22    1    1    2    0    0  0.19971204064E+03  0.19813123123E+03  0.86979803632E+03  0.91416054824E+03  0.00000000000E+00 0. -1.
<mgrwt>
<rscale>  0 0.91714167E+03</rscale>
<asrwt>0</asrwt>
<pdfrwt beam="1">  1        1 0.15533821E+00 0.91714167E+03</pdfrwt>
<pdfrwt beam="2">  1       -1 0.32041132E-01 0.91714167E+03</pdfrwt>
<totfact> 0.13582134E+02</totfact>
</mgrwt>
</event>
<event>
 6    1  0.8968082E-007  0.2715490E+04  0.7818608E-02  0.8329997E-01
         -1   -1    0    0    0  501 -0.00000000000E+00  0.00000000000E+00  0.80985615055E+03  0.80985615055E+03  0.00000000000E+00 0.  1.
          1   -1    0    0  501    0  0.00000000000E+00 -0.00000000000E+00 -0.22762945952E+04  0.22762945952E+04  0.00000000000E+00 0. -1.
         23    2    1    2    0    0 -0.98875918809E+03  0.64549015543E+03 -0.14920326717E+04  0.19050676254E+04  0.93908949950E+02 0.  0.
         11    1    3    3    0    0 -0.37394389644E+03  0.22333023725E+03 -0.48386673448E+03  0.65102799425E+03  0.00000000000E+00 0.  1.
        -11    1    3    3    0    0 -0.61481529165E+03  0.42215991818E+03 -0.10081659372E+04  0.12540396311E+04  0.00000000000E+00 0. -1.
         22    1    1    2    0    0  0.98875918809E+03 -0.64549015543E+03  0.25594227084E+02  0.11810831204E+04  0.00000000000E+00 0.  1.
<mgrwt>
<rscale>  0 0.27154898E+04</rscale>
<asrwt>0</asrwt>
<pdfrwt beam="1">  1        1 0.35019916E+00 0.27154898E+04</pdfrwt>
<pdfrwt beam="2">  1       -1 0.12459326E+00 0.27154898E+04</pdfrwt>
<totfact> 0.95023420E-01</totfact>
</mgrwt>
</event>
<event>
 6    1  0.8968082E-007  0.3915159E+04  0.7818608E-02  0.8021884E-01
         -1   -1    0    0    0  501 -0.00000000000E+00  0.00000000000E+00  0.14136153702E+04  0.14136153702E+04  0.00000000000E+00 0.  1.
          1   -1    0    0  501    0  0.00000000000E+00 -0.00000000000E+00 -0.27108627526E+04  0.27108627526E+04  0.00000000000E+00 0. -1.
         23    2    1    2    0    0  0.35647264214E+03 -0.16556113705E+03 -0.26680813450E+04  0.26984104569E+04  0.90981841247E+02 0.  0.
         13    1    3    3    0    0  0.21190253597E+03 -0.90811324015E+02 -0.12561976750E+04  0.12771773487E+04  0.00000000000E+00 0. -1.
        -13    1    3    3    0    0  0.14457010617E+03 -0.74749813036E+02 -0.14118836700E+04  0.14212331082E+04  0.00000000000E+00 0.  1.
         22    1    1    2    0    0 -0.35647264214E+03  0.16556113705E+03  0.13708339627E+04  0.14260676660E+04  0.00000000000E+00 0.  1.
<mgrwt>
<rscale>  0 0.39151589E+04</rscale>
<asrwt>0</asrwt>
<pdfrwt beam="1">  1        1 0.41705580E+00 0.39151589E+04</pdfrwt>
<pdfrwt beam="2">  1       -1 0.21747929E+00 0.39151589E+04</pdfrwt>
<totfact> 0.86932259E-02</totfact>
</mgrwt>
</event>
<event>
 6    1  0.8968082E-007  0.2681686E+04  0.7818608E-02  0.8340972E-01
          1   -1    0    0  501    0  0.00000000000E+00  0.00000000000E+00  0.21945844072E+04  0.21945844072E+04  0.00000000000E+00 0. -1.
         -1   -1    0    0    0  501 -0.00000000000E+00 -0.00000000000E+00 -0.81922546573E+03  0.81922546573E+03  0.00000000000E+00 0.  1.
         23    2    1    2    0    0  0.60838007783E+03  0.94647292941E+03 -0.12707413664E+03  0.11367796442E+04  0.10090985162E+03 0.  0.
         13    1    3    3    0    0  0.16629283577E+03  0.34119333251E+03 -0.25858460763E+02  0.38044034667E+03  0.00000000000E+00 0.  1.
        -13    1    3    3    0    0  0.44208724206E+03  0.60527959690E+03 -0.10121567587E+03  0.75633929757E+03  0.00000000000E+00 0. -1.
         22    1    1    2    0    0 -0.60838007783E+03 -0.94647292941E+03  0.15024330781E+04  0.18770302287E+04  0.00000000000E+00 0. -1.
<mgrwt>
<rscale>  0 0.26816856E+04</rscale>
<asrwt>0</asrwt>
<pdfrwt beam="1">  1        1 0.33762837E+00 0.26816856E+04</pdfrwt>
<pdfrwt beam="2">  1       -1 0.12603469E+00 0.26816856E+04</pdfrwt>
<totfact> 0.10531235E+00</totfact>
</mgrwt>
</event>
<event>
 6    1  0.8968082E-007  0.1834551E+04  0.7818608E-02  0.8688138E-01
          2   -1    0    0  501    0  0.00000000000E+00  0.00000000000E+00  0.29126172284E+04  0.29126172284E+04  0.00000000000E+00 0. -1.
         -2   -1    0    0    0  501 -0.00000000000E+00 -0.00000000000E+00 -0.28887927506E+03  0.28887927506E+03  0.00000000000E+00 0.  1.
         23    2    1    2    0    0  0.33114428678E+03  0.82498060150E+03  0.93709736113E+03  0.12949273285E+04  0.91846559033E+02 0.  0.
         13    1    3    3    0    0  0.24493609286E+03  0.67388417974E+03  0.71234763333E+03  0.10107189164E+04  0.00000000000E+00 0. -1.
        -13    1    3    3    0    0  0.86208193918E+02  0.15109642176E+03  0.22474972780E+03  0.28420841211E+03  0.00000000000E+00 0.  1.
         22    1    1    2    0    0 -0.33114428678E+03 -0.82498060150E+03  0.16866405922E+04  0.19065691749E+04  0.00000000000E+00 0. -1.
<mgrwt>
<rscale>  0 0.18345514E+04</rscale>
<asrwt>0</asrwt>
<pdfrwt beam="1">  1        2 0.44809494E+00 0.18345514E+04</pdfrwt>
<pdfrwt beam="2">  1       -2 0.44442967E-01 0.18345514E+04</pdfrwt>
<totfact> 0.89471158E+00</totfact>
</mgrwt>
</event>
<event>
 6    1  0.8968082E-007  0.3679133E+04  0.7818608E-02  0.8072602E-01
          1   -1    0    0  501    0  0.00000000000E+00  0.00000000000E+00  0.17313556654E+04  0.17313556654E+04  0.00000000000E+00 0. -1.
         -1   -1    0    0    0  501 -0.00000000000E+00 -0.00000000000E+00 -0.19545408731E+04  0.19545408731E+04  0.00000000000E+00 0.  1.
         23    2    1    2    0    0  0.69784656206E+03 -0.10209733617E+02  0.15921325720E+04  0.17410385221E+04  0.96098623994E+02 0.  0.
         13    1    3    3    0    0  0.50563275242E+03 -0.40895153680E+02  0.12146755245E+04  0.13163485571E+04  0.00000000000E+00 0. -1.
        -13    1    3    3    0    0  0.19221380964E+03  0.30685420063E+02  0.37745704752E+03  0.42468996497E+03  0.00000000000E+00 0.  1.
         22    1    1    2    0    0 -0.69784656206E+03  0.10209733617E+02 -0.18153177797E+04  0.19448580165E+04  0.00000000000E+00 0.  1.
<mgrwt>
<rscale>  0 0.36791333E+04</rscale>
<asrwt>0</asrwt>
<pdfrwt beam="1">  1        1 0.26636241E+00 0.36791333E+04</pdfrwt>
<pdfrwt beam="2">  1       -1 0.30069860E+00 0.36791333E+04</pdfrwt>
<totfact> 0.11916240E-01</totfact>
</mgrwt>
</event>
<event>
 6    1  0.8968082E-007  0.2213727E+04  0.7818608E-02  0.8512736E-01
         -1   -1    0    0    0  501 -0.00000000000E+00  0.00000000000E+00  0.66784701348E+03  0.66784701348E+03  0.00000000000E+00 0.  1.
          1   -1    0    0  501    0  0.00000000000E+00 -0.00000000000E+00 -0.18344726541E+04  0.18344726541E+04  0.00000000000E+00 0. -1.
         23    2    1    2    0    0 -0.87773756201E+03  0.19427270588E+03  0.14190922859E+03  0.91473388535E+03  0.91840839771E+02 0.  0.
         13    1    3    3    0    0 -0.38473764427E+03  0.46765662250E+02  0.87037659636E+02  0.39722240153E+03  0.00000000000E+00 0.  1.
        -13    1    3    3    0    0 -0.49299991774E+03  0.14750704363E+03  0.54871568952E+02  0.51751148382E+03  0.00000000000E+00 0. -1.
         22    1    1    2    0    0  0.87773756201E+03 -0.19427270588E+03 -0.13085348692E+04  0.15875857822E+04  0.00000000000E+00 0. -1.
<mgrwt>
<rscale>  0 0.22137272E+04</rscale>
<asrwt>0</asrwt>
<pdfrwt beam="1">  1        1 0.28222656E+00 0.22137272E+04</pdfrwt>
<pdfrwt beam="2">  1       -1 0.10274569E+00 0.22137272E+04</pdfrwt>
<totfact> 0.31469916E+00</totfact>
</mgrwt>
</event>
<event>
 6    1  0.8968082E-007  0.1737589E+04  0.7818608E-02  0.8740212E-01
         -1   -1    0    0    0  501 -0.00000000000E+00  0.00000000000E+00  0.91730954526E+03  0.91730954526E+03  0.00000000000E+00 0.  1.
          1   -1    0    0  501    0  0.00000000000E+00 -0.00000000000E+00 -0.82284550808E+03  0.82284550808E+03  0.00000000000E+00 0. -1.
         23    2    1    2    0    0 -0.40711686396E+03  0.15989917487E+03 -0.70163989849E+03  0.83180855368E+03  0.91077086979E+02 0.  0.
         11    1    3    3    0    0 -0.77591904160E+02  0.71334456508E+02 -0.17502072583E+03  0.20430703058E+03  0.00000000000E+00 0. -1.
        -11    1    3    3    0    0 -0.32952495980E+03  0.88564718365E+02 -0.52661917267E+03  0.62750152310E+03  0.00000000000E+00 0.  1.
         22    1    1    2    0    0  0.40711686396E+03 -0.15989917487E+03  0.79610393567E+03  0.90834649966E+03  0.00000000000E+00 0.  1.
<mgrwt>
<rscale>  0 0.17375892E+04</rscale>
<asrwt>0</asrwt>
<pdfrwt beam="1">  1        1 0.12659162E+00 0.17375892E+04</pdfrwt>
<pdfrwt beam="2">  1       -1 0.14112454E+00 0.17375892E+04</pdfrwt>
<totfact> 0.82260073E+00</totfact>
</mgrwt>
</event>
<event>
 6    1  0.8968082E-007  0.1748701E+04  0.7818608E-02  0.8734065E-01
         -2   -1    0    0    0  501 -0.00000000000E+00  0.00000000000E+00  0.20495070919E+03  0.20495070919E+03  0.00000000000E+00 0.  1.
          2   -1    0    0  501    0  0.00000000000E+00 -0.00000000000E+00 -0.37301121712E+04  0.37301121712E+04  0.00000000000E+00 0. -1.
         23    2    1    2    0    0  0.19074036771E+03 -0.86602486026E+02 -0.36720873265E+04  0.36791936010E+04  0.91423969395E+02 0.  0.
         11    1    3    3    0    0  0.44139348693E+02 -0.39515249427E+02 -0.52311761060E+03  0.52646155754E+03  0.00000000000E+00 0.  1.
        -11    1    3    3    0    0  0.14660101902E+03 -0.47087236599E+02 -0.31489697159E+04  0.31527320435E+04  0.00000000000E+00 0. -1.
         22    1    1    2    0    0 -0.19074036771E+03  0.86602486026E+02  0.14692586447E+03  0.25586927934E+03  0.00000000000E+00 0.  1.
<mgrwt>
<rscale>  0 0.17487014E+04</rscale>
<asrwt>0</asrwt>
<pdfrwt beam="1">  1        2 0.57386341E+00 0.17487014E+04</pdfrwt>
<pdfrwt beam="2">  1       -2 0.31530878E-01 0.17487014E+04</pdfrwt>
<totfact> 0.49679586E+00</totfact>
</mgrwt>
</event>
<event>
 6    1  0.8968082E-007  0.2108239E+04  0.7818608E-02  0.8557623E-01
         -2   -1    0    0    0  501 -0.00000000000E+00  0.00000000000E+00  0.62776656640E+03  0.62776656640E+03  0.00000000000E+00 0.  1.
          2   -1    0    0  501    0  0.00000000000E+00 -0.00000000000E+00 -0.17700327790E+04  0.17700327790E+04  0.00000000000E+00 0. -1.
         23    2    1    2    0    0  0.93289696238E+02  0.97561430680E+03 -0.10073040634E+04  0.14084859346E+04  0.92978001678E+02 0.  0.
         13    1    3    3    0    0  0.89254841837E+02  0.64303395126E+03 -0.71418208789E+03  0.96515032193E+03  0.00000000000E+00 0. -1.
        -13    1    3    3    0    0  0.40348544002E+01  0.33258035555E+03 -0.29312197552E+03  0.44333561269E+03  0.00000000000E+00 0.  1.
         22    1    1    2    0    0 -0.93289696238E+02 -0.97561430680E+03 -0.13496214920E+03  0.98931341080E+03  0.00000000000E+00 0. -1.
<mgrwt>
<rscale>  0 0.21082385E+04</rscale>
<asrwt>0</asrwt>
<pdfrwt beam="1">  1        2 0.27231273E+00 0.21082385E+04</pdfrwt>
<pdfrwt beam="2">  1       -2 0.96579473E-01 0.21082385E+04</pdfrwt>
<totfact> 0.74038194E+00</totfact>
</mgrwt>
</event>
<event>
 6    1  0.8968082E-007  0.2715981E+04  0.7818608E-02  0.8329838E-01
          2   -1    0    0  501    0  0.00000000000E+00  0.00000000000E+00  0.12950445541E+04  0.12950445541E+04  0.00000000000E+00 0. -1.
         -2   -1    0    0    0  501 -0.00000000000E+00 -0.00000000000E+00 -0.14239957175E+04  0.14239957175E+04  0.00000000000E+00 0.  1.
         23    2    1    2    0    0  0.22681407282E+03  0.13345685650E+04 -0.14979419220E+03  0.13651745803E+04  0.93517144989E+02 0.  0.
         11    1    3    3    0    0  0.17914123931E+03  0.80384942574E+03 -0.72715464574E+02  0.82677265416E+03  0.00000000000E+00 0. -1.
        -11    1    3    3    0    0  0.47672833510E+02  0.53071913926E+03 -0.77078727628E+02  0.53840192616E+03  0.00000000000E+00 0.  1.
         22    1    1    2    0    0 -0.22681407282E+03 -0.13345685650E+04  0.20843028804E+02  0.13538656913E+04  0.00000000000E+00 0.  1.
<mgrwt>
<rscale>  0 0.27159808E+04</rscale>
<asrwt>0</asrwt>
<pdfrwt beam="1">  1        2 0.19923762E+00 0.27159808E+04</pdfrwt>
<pdfrwt beam="2">  1       -2 0.21907626E+00 0.27159808E+04</pdfrwt>
<totfact> 0.14607203E+00</totfact>
</mgrwt>
</event>
<event>
 6    1  0.8968082E-007  0.1789343E+04  0.7818608E-02  0.8711987E-01
         -2   -1    0    0    0  501 -0.00000000000E+00  0.00000000000E+00  0.35026140691E+03  0.35026140691E+03  0.00000000000E+00 0.  1.
          2   -1    0    0  501    0  0.00000000000E+00 -0.00000000000E+00 -0.22852573901E+04  0.22852573901E+04  0.00000000000E+00 0. -1.
         23    2    1    2    0    0  0.12286587308E+03 -0.76766901253E+03 -0.32407461525E+03  0.84680993605E+03  0.87469857509E+02 0.  0.
         11    1    3    3    0    0  0.99821285296E+02 -0.39608468871E+03 -0.19635191731E+03  0.45321236199E+03  0.00000000000E+00 0.  1.
        -11    1    3    3    0    0  0.23044587782E+02 -0.37158432382E+03 -0.12772269794E+03  0.39359757406E+03  0.00000000000E+00 0. -1.
         22    1    1    2    0    0 -0.12286587308E+03  0.76766901253E+03 -0.16109213679E+04  0.17887088609E+04  0.00000000000E+00 0. -1.
<mgrwt>
<rscale>  0 0.17893434E+04</rscale>
<asrwt>0</asrwt>
<pdfrwt beam="1">  1        2 0.35157807E+00 0.17893434E+04</pdfrwt>
<pdfrwt beam="2">  1       -2 0.53886368E-01 0.17893434E+04</pdfrwt>
<totfact> 0.14173546E+01</totfact>
</mgrwt>
</event>
<event>
 6    1  0.8968082E-007  0.1673150E+04  0.7818608E-02  0.8776828E-01
          2   -1    0    0  501    0  0.00000000000E+00  0.00000000000E+00  0.37078302530E+04  0.37078302530E+04  0.00000000000E+00 0. -1.
         -2   -1    0    0    0  501 -0.00000000000E+00 -0.00000000000E+00 -0.18875126254E+03  0.18875126254E+03  0.00000000000E+00 0.  1.
         23    2    1    2    0    0  0.39148196844E+03  0.66900450443E+03  0.10476878227E+04  0.13064850960E+04  0.91806174246E+02 0.  0.
         13    1    3    3    0    0  0.34030645717E+03  0.51664510303E+03  0.85966740322E+03  0.10591311021E+04  0.00000000000E+00 0. -1.
        -13    1    3    3    0    0  0.51175511271E+02  0.15235940139E+03  0.18802041948E+03  0.24735399388E+03  0.00000000000E+00 0.  1.
         22    1    1    2    0    0 -0.39148196844E+03 -0.66900450443E+03  0.24713911678E+04  0.25900964196E+04  0.00000000000E+00 0. -1.
<mgrwt>
<rscale>  0 0.16731499E+04</rscale>
<asrwt>0</asrwt>
<pdfrwt beam="1">  1        2 0.57043537E+00 0.16731499E+04</pdfrwt>
<pdfrwt beam="2">  1       -2 0.29038659E-01 0.16731499E+04</pdfrwt>
<totfact> 0.60643516E+00</totfact>
</mgrwt>
</event>
<event>
 6    1  0.8968082E-007  0.2925487E+04  0.7818608E-02  0.8265334E-01
          2   -1    0    0  501    0  0.00000000000E+00  0.00000000000E+00  0.10983877199E+04  0.10983877199E+04  0.00000000000E+00 0. -1.
         -2   -1    0    0    0  501 -0.00000000000E+00 -0.00000000000E+00 -0.19479629977E+04  0.19479629977E+04  0.00000000000E+00 0.  1.
         23    2    1    2    0    0  0.35328191249E+03  0.62972171443E+03  0.89774254068E+03  0.11557219581E+04  0.91618926449E+02 0.  0.
         13    1    3    3    0    0  0.26963391449E+03  0.54073198540E+03  0.77316902177E+03  0.98126645928E+03  0.00000000000E+00 0. -1.
        -13    1    3    3    0    0  0.83647998008E+02  0.88989729027E+02  0.12457351891E+03  0.17445549879E+03  0.00000000000E+00 0.  1.
         22    1    1    2    0    0 -0.35328191249E+03 -0.62972171443E+03 -0.17473178185E+04  0.18906287595E+04  0.00000000000E+00 0.  1.
<mgrwt>
<rscale>  0 0.29254871E+04</rscale>
<asrwt>0</asrwt>
<pdfrwt beam="1">  1        2 0.16898273E+00 0.29254871E+04</pdfrwt>
<pdfrwt beam="2">  1       -2 0.29968661E+00 0.29254871E+04</pdfrwt>
<totfact> 0.60036172E-01</totfact>
</mgrwt>
</event>
<event>
 6    1  0.8968082E-007  0.1461264E+04  0.7818608E-02  0.8910628E-01
          2   -1    0    0  501    0  0.00000000000E+00  0.00000000000E+00  0.63021487723E+03  0.63021487723E+03  0.00000000000E+00 0. -1.
         -2   -1    0    0    0  501 -0.00000000000E+00 -0.00000000000E+00 -0.84704991232E+03  0.84704991232E+03  0.00000000000E+00 0.  1.
         23    2    1    2    0    0  0.68839057948E+03  0.49793223786E+02 -0.33959446133E+03  0.77624351185E+03  0.10425275286E+03 0.  0.
         11    1    3    3    0    0  0.27000810696E+03  0.61461274023E+02 -0.10296262790E+03  0.29543725015E+03  0.00000000000E+00 0.  1.
        -11    1    3    3    0    0  0.41838247252E+03 -0.11668050237E+02 -0.23663183342E+03  0.48080626171E+03  0.00000000000E+00 0. -1.
         22    1    1    2    0    0 -0.68839057948E+03 -0.49793223786E+02  0.12275942624E+03  0.70102127770E+03  0.00000000000E+00 0. -1.
<mgrwt>
<rscale>  0 0.14612645E+04</rscale>
<asrwt>0</asrwt>
<pdfrwt beam="1">  1        2 0.96956135E-01 0.14612645E+04</pdfrwt>
<pdfrwt beam="2">  1       -2 0.13031537E+00 0.14612645E+04</pdfrwt>
<totfact> 0.19529243E+01</totfact>
</mgrwt>
</event>
<event>
 6    1  0.8968082E-007  0.2330161E+04  0.7818608E-02  0.8466123E-01
          2   -1    0    0  501    0  0.00000000000E+00  0.00000000000E+00  0.26566899546E+04  0.26566899546E+04  0.00000000000E+00 0. -1.
         -2   -1    0    0    0  501 -0.00000000000E+00 -0.00000000000E+00 -0.51094116597E+03  0.51094116597E+03  0.00000000000E+00 0.  1.
         23    2    1    2    0    0  0.14435160588E+02  0.10462622636E+04  0.38361714560E+03  0.11182455967E+04  0.91858597922E+02 0.  0.
         13    1    3    3    0    0  0.40447149716E+02  0.39539594949E+03  0.11613091088E+03  0.41407767056E+03  0.00000000000E+00 0.  1.
        -13    1    3    3    0    0 -0.26011989127E+02  0.65086631412E+03  0.26748623472E+03  0.70416792613E+03  0.00000000000E+00 0. -1.
         22    1    1    2    0    0 -0.14435160588E+02 -0.10462622636E+04  0.17621316430E+04  0.20493855239E+04  0.00000000000E+00 0. -1.
<mgrwt>
<rscale>  0 0.23301607E+04</rscale>
<asrwt>0</asrwt>
<pdfrwt beam="1">  1        2 0.40872152E+00 0.23301607E+04</pdfrwt>
<pdfrwt beam="2">  1       -2 0.78606335E-01 0.23301607E+04</pdfrwt>
<totfact> 0.36646149E+00</totfact>
</mgrwt>
</event>
<event>
 6    1  0.8968082E-007  0.1681697E+04  0.7818608E-02  0.8771873E-01
         -2   -1    0    0    0  501 -0.00000000000E+00  0.00000000000E+00  0.44191444676E+03  0.44191444676E+03  0.00000000000E+00 0.  1.
          2   -1    0    0  501    0  0.00000000000E+00 -0.00000000000E+00 -0.15999160203E+04  0.15999160203E+04  0.00000000000E+00 0. -1.
         23    2    1    2    0    0  0.34776633557E+03 -0.21175261258E+03 -0.14705265410E+04  0.15285542758E+04  0.90825509615E+02 0.  0.
         13    1    3    3    0    0  0.23767089285E+03 -0.10848588908E+03 -0.81403179429E+03  0.85492947286E+03  0.00000000000E+00 0.  1.
        -13    1    3    3    0    0  0.11009544272E+03 -0.10326672350E+03 -0.65649474675E+03  0.67362480299E+03  0.00000000000E+00 0. -1.
         22    1    1    2    0    0 -0.34776633557E+03  0.21175261258E+03  0.31252496754E+03  0.51327619118E+03  0.00000000000E+00 0.  1.
<mgrwt>
<rscale>  0 0.16816968E+04</rscale>
<asrwt>0</asrwt>
<pdfrwt beam="1">  1        2 0.24614092E+00 0.16816968E+04</pdfrwt>
<pdfrwt beam="2">  1       -2 0.67986839E-01 0.16816968E+04</pdfrwt>
<totfact> 0.21051865E+01</totfact>
</mgrwt>
</event>
<event>
 6    1  0.8968082E-007  0.2234756E+04  0.7818608E-02  0.8504100E-01
         -2   -1    0    0    0  501 -0.00000000000E+00  0.00000000000E+00  0.64474146281E+03  0.64474146281E+03  0.00000000000E+00 0.  1.
          2   -1    0    0  501    0  0.00000000000E+00 -0.00000000000E+00 -0.19364866471E+04  0.19364866471E+04  0.00000000000E+00 0. -1.
         23    2    1    2    0    0 -0.49193605438E+03 -0.71997949579E+03 -0.14504354562E+04  0.16949131781E+04  0.92715224319E+02 0.  0.
         11    1    3    3    0    0 -0.18646080428E+03 -0.27395382917E+03 -0.64016776955E+03  0.72085581445E+03  0.00000000000E+00 0.  1.
        -11    1    3    3    0    0 -0.30547525011E+03 -0.44602566662E+03 -0.81026768666E+03  0.97405736369E+03  0.00000000000E+00 0. -1.
         22    1    1    2    0    0  0.49193605438E+03  0.71997949579E+03  0.15869027188E+03  0.88631493181E+03  0.00000000000E+00 0.  1.
<mgrwt>
<rscale>  0 0.22347557E+04</rscale>
<asrwt>0</asrwt>
<pdfrwt beam="1">  1        2 0.29792102E+00 0.22347557E+04</pdfrwt>
<pdfrwt beam="2">  1       -2 0.99190994E-01 0.22347557E+04</pdfrwt>
<totfact> 0.55618482E+00</totfact>
</mgrwt>
</event>
<event>
 6    1  0.8968082E-007  0.3103746E+04  0.7818608E-02  0.8214711E-01
         -2   -1    0    0    0  501 -0.00000000000E+00  0.00000000000E+00  0.12019310017E+04  0.12019310017E+04  0.00000000000E+00 0.  1.
          2   -1    0    0  501    0  0.00000000000E+00 -0.00000000000E+00 -0.20037006594E+04  0.20037006594E+04  0.00000000000E+00 0. -1.
         23    2    1    2    0    0  0.41123825876E+03  0.11397574749E+04  0.59802261284E+03  0.13542585469E+04  0.90670608532E+02 0.  0.
         11    1    3    3    0    0  0.20890250696E+03  0.52295599122E+03  0.32362562259E+03  0.64950501904E+03  0.00000000000E+00 0. -1.
        -11    1    3    3    0    0  0.20233575180E+03  0.61680148371E+03  0.27439699024E+03  0.70475352785E+03  0.00000000000E+00 0.  1.
         22    1    1    2    0    0 -0.41123825876E+03 -0.11397574749E+04 -0.13997922706E+04  0.18513731142E+04  0.00000000000E+00 0. -1.
<mgrwt>
<rscale>  0 0.31037461E+04</rscale>
<asrwt>0</asrwt>
<pdfrwt beam="1">  1        2 0.30826163E+00 0.31037461E+04</pdfrwt>
<pdfrwt beam="2">  1       -2 0.18491247E+00 0.31037461E+04</pdfrwt>
<totfact> 0.94701936E-01</totfact>
</mgrwt>
</event>
<event>
 6    1  0.8968082E-007  0.1701304E+04  0.7818608E-02  0.8760621E-01
          2   -1    0    0  501    0  0.00000000000E+00  0.00000000000E+00  0.18356283849E+04  0.18356283849E+04  0.00000000000E+00 0. -1.
         -2   -1    0    0    0  501 -0.00000000000E+00 -0.00000000000E+00 -0.39420205482E+03  0.39420205482E+03  0.00000000000E+00 0.  1.
         23    2    1    2    0    0 -0.68974765863E+03 -0.24668198674E+03  0.12833052541E+04  0.14804266034E+04  0.90480482895E+02 0.  0.
         13    1    3    3    0    0 -0.62203773642E+03 -0.24821971383E+03  0.11467452948E+04  0.13279942556E+04  0.00000000000E+00 0. -1.
        -13    1    3    3    0    0 -0.67709922206E+02  0.15377270879E+01  0.13655995928E+03  0.15243234778E+03  0.00000000000E+00 0.  1.
         22    1    1    2    0    0  0.68974765863E+03  0.24668198674E+03  0.15812107597E+03  0.74940383628E+03  0.00000000000E+00 0.  1.
<mgrwt>
<rscale>  0 0.17013036E+04</rscale>
<asrwt>0</asrwt>
<pdfrwt beam="1">  1        2 0.28240436E+00 0.17013036E+04</pdfrwt>
<pdfrwt beam="2">  1       -2 0.60646471E-01 0.17013036E+04</pdfrwt>
<totfact> 0.19858886E+01</totfact>
</mgrwt>
</event>
<event>
 6    1  0.8968082E-007  0.3345443E+04  0.7818608E-02  0.8151428E-01
          2   -1    0    0  501    0  0.00000000000E+00  0.00000000000E+00  0.18390040416E+04  0.18390040416E+04  0.00000000000E+00 0. -1.
         -2   -1    0    0    0  501 -0.00000000000E+00 -0.00000000000E+00 -0.15214743720E+04  0.15214743720E+04  0.00000000000E+00 0.  1.
         23    2    1    2    0    0 -0.14959908990E+04 -0.51573856622E+03 -0.38106859009E+03  0.16307343381E+04  0.10052946021E+03 0.  0.
         13    1    3    3    0    0 -0.50176018995E+03 -0.13393754315E+03 -0.15524483708E+03  0.54203645000E+03  0.00000000000E+00 0. -1.
        -13    1    3    3    0    0 -0.99423070907E+03 -0.38180102307E+03 -0.22582375301E+03  0.10886978881E+04  0.00000000000E+00 0.  1.
         22    1    1    2    0    0  0.14959908990E+04  0.51573856622E+03  0.69859825964E+03  0.17297440756E+04  0.00000000000E+00 0. -1.
<mgrwt>
<rscale>  0 0.33454432E+04</rscale>
<asrwt>0</asrwt>
<pdfrwt beam="1">  1        2 0.28292370E+00 0.33454432E+04</pdfrwt>
<pdfrwt beam="2">  1       -2 0.23407298E+00 0.33454432E+04</pdfrwt>
<totfact> 0.55083975E-01</totfact>
</mgrwt>
</event>
<event>
 6    1  0.8968082E-007  0.1330510E+04  0.7818608E-02  0.9005714E-01
          2   -1    0    0  501    0  0.00000000000E+00  0.00000000000E+00  0.27838246866E+04  0.27838246866E+04  0.00000000000E+00 0. -1.
         -2   -1    0    0    0  501 -0.00000000000E+00 -0.00000000000E+00 -0.15897704382E+03  0.15897704382E+03  0.00000000000E+00 0.  1.
         23    2    1    2    0    0  0.25111707403E+03  0.61172303163E+03  0.14094496951E+04  0.15591626794E+04  0.84705168042E+02 0.  0.
         11    1    3    3    0    0  0.10542068574E+03  0.15665188316E+03  0.39423828282E+03  0.43712373205E+03  0.00000000000E+00 0.  1.
        -11    1    3    3    0    0  0.14569638829E+03  0.45507114847E+03  0.10152114123E+04  0.11220389474E+04  0.00000000000E+00 0. -1.
         22    1    1    2    0    0 -0.25111707403E+03 -0.61172303163E+03  0.12153979477E+04  0.13836390510E+04  0.00000000000E+00 0.  1.
<mgrwt>
<rscale>  0 0.13305100E+04</rscale>
<asrwt>0</asrwt>
<pdfrwt beam="1">  1        2 0.42828068E+00 0.13305100E+04</pdfrwt>
<pdfrwt beam="2">  1       -2 0.24458009E-01 0.13305100E+04</pdfrwt>
<totfact> 0.34797160E+01</totfact>
</mgrwt>
</event>
<event>
 6    1  0.8968082E-007  0.2428862E+04  0.7818608E-02  0.8428777E-01
          1   -1    0    0  501    0  0.00000000000E+00  0.00000000000E+00  0.15775934461E+04  0.15775934461E+04  0.00000000000E+00 0. -1.
         -1   -1    0    0    0  501 -0.00000000000E+00 -0.00000000000E+00 -0.93486854012E+03  0.93486854012E+03  0.00000000000E+00 0.  1.
         23    2    1    2    0    0  0.31644057053E+03  0.11249066939E+04  0.65731574043E+03  0.13438035259E+04  0.90521980150E+02 0.  0.
         11    1    3    3    0    0  0.28110721941E+02  0.86166828246E+02  0.80223363715E+02  0.12104017128E+03  0.00000000000E+00 0.  1.
        -11    1    3    3    0    0  0.28832984859E+03  0.10387398656E+04  0.57709237672E+03  0.12227633546E+04  0.00000000000E+00 0. -1.
         22    1    1    2    0    0 -0.31644057053E+03 -0.11249066939E+04 -0.14590834411E+02  0.11686584604E+04  0.00000000000E+00 0.  1.
<mgrwt>
<rscale>  0 0.24288619E+04</rscale>
<asrwt>0</asrwt>
<pdfrwt beam="1">  1        1 0.24270668E+00 0.24288619E+04</pdfrwt>
<pdfrwt beam="2">  1       -1 0.14382593E+00 0.24288619E+04</pdfrwt>
<totfact> 0.20177920E+00</totfact>
</mgrwt>
</event>
<event>
 6    1  0.8968082E-007  0.3854605E+04  0.7818608E-02  0.8034537E-01
          1   -1    0    0  501    0  0.00000000000E+00  0.00000000000E+00  0.23688877065E+04  0.23688877065E+04  0.00000000000E+00 0. -1.
         -1   -1    0    0    0  501 -0.00000000000E+00 -0.00000000000E+00 -0.15680334966E+04  0.15680334966E+04  0.00000000000E+00 0.  1.
         23    2    1    2    0    0  0.45987594003E+03  0.18682506121E+04  0.30297446256E+03  0.19495283199E+04  0.83790903088E+02 0.  0.
         13    1    3    3    0    0  0.35930945106E+03  0.14538029482E+04  0.20044073701E+03  0.15109013147E+04  0.00000000000E+00 0.  1.
        -13    1    3    3    0    0  0.10056648896E+03  0.41444766386E+03  0.10253372555E+03  0.43862700516E+03  0.00000000000E+00 0. -1.
         22    1    1    2    0    0 -0.45987594003E+03 -0.18682506121E+04  0.49787974735E+03  0.19873928833E+04  0.00000000000E+00 0. -1.
<mgrwt>
<rscale>  0 0.38546052E+04</rscale>
<asrwt>0</asrwt>
<pdfrwt beam="1">  1        1 0.36444426E+00 0.38546052E+04</pdfrwt>
<pdfrwt beam="2">  1       -1 0.24123592E+00 0.38546052E+04</pdfrwt>
<totfact> 0.10519817E-01</totfact>
</mgrwt>
</event>
<event>
 6    1  0.8968082E-007  0.2493544E+04  0.7818608E-02  0.8405289E-01
          1   -1    0    0  501    0  0.00000000000E+00  0.00000000000E+00  0.17588840455E+04  0.17588840455E+04  0.00000000000E+00 0. -1.
         -1   -1    0    0    0  501 -0.00000000000E+00 -0.00000000000E+00 -0.88376484891E+03  0.88376484891E+03  0.00000000000E+00 0.  1.
         23    2    1    2    0    0  0.78706890353E+03 -0.14434340472E+03  0.14492296743E+04  0.16578061059E+04  0.87988398483E+02 0.  0.
         13    1    3    3    0    0  0.54204313654E+03 -0.11614665243E+03  0.92367000327E+03  0.10772497768E+04  0.00000000000E+00 0.  1.
        -13    1    3    3    0    0  0.24502576699E+03 -0.28196752299E+02  0.52555967106E+03  0.58055632903E+03  0.00000000000E+00 0. -1.
         22    1    1    2    0    0 -0.78706890353E+03  0.14434340472E+03 -0.57411047778E+03  0.98484278852E+03  0.00000000000E+00 0.  1.
<mgrwt>
<rscale>  0 0.24935436E+04</rscale>
<asrwt>0</asrwt>
<pdfrwt beam="1">  1        1 0.27059755E+00 0.24935436E+04</pdfrwt>
<pdfrwt beam="2">  1       -1 0.13596382E+00 0.24935436E+04</pdfrwt>
<totfact> 0.17468401E+00</totfact>
</mgrwt>
</event>
<event>
 6    1  0.8968082E-007  0.3695125E+04  0.7818608E-02  0.8069043E-01
          2   -1    0    0  501    0  0.00000000000E+00  0.00000000000E+00  0.34919696095E+04  0.34919696095E+04  0.00000000000E+00 0. -1.
         -2   -1    0    0    0  501 -0.00000000000E+00 -0.00000000000E+00 -0.97752491120E+03  0.97752491120E+03  0.00000000000E+00 0.  1.
         23    2    1    2    0    0  0.58580921334E+03 -0.10236749757E+03  0.33724040832E+04  0.34255855950E+04  0.88745868430E+02 0.  0.
         13    1    3    3    0    0  0.28526894874E+03 -0.94894743685E+02  0.16859070183E+04  0.17125028058E+04  0.00000000000E+00 0.  1.
        -13    1    3    3    0    0  0.30054026460E+03 -0.74727538822E+01  0.16864970649E+04  0.17130827892E+04  0.00000000000E+00 0. -1.
         22    1    1    2    0    0 -0.58580921334E+03  0.10236749757E+03 -0.85795938492E+03  0.10439089257E+04  0.00000000000E+00 0.  1.
<mgrwt>
<rscale>  0 0.36951250E+04</rscale>
<asrwt>0</asrwt>
<pdfrwt beam="1">  1        2 0.53722609E+00 0.36951250E+04</pdfrwt>
<pdfrwt beam="2">  1       -2 0.15038845E+00 0.36951250E+04</pdfrwt>
<totfact> 0.19785252E-01</totfact>
</mgrwt>
</event>
<event>
 6    1  0.8968082E-007  0.2088809E+04  0.7818608E-02  0.8566189E-01
          1   -1    0    0  501    0  0.00000000000E+00  0.00000000000E+00  0.34199080116E+04  0.34199080116E+04  0.00000000000E+00 0. -1.
         -1   -1    0    0    0  501 -0.00000000000E+00 -0.00000000000E+00 -0.31895025313E+03  0.31895025313E+03  0.00000000000E+00 0.  1.
         23    2    1    2    0    0  0.23412047073E+03 -0.68176232012E+03  0.20550176068E+03  0.75502219500E+03  0.90638211288E+02 0.  0.
         13    1    3    3    0    0  0.14029878933E+03 -0.43404859008E+03  0.84986687235E+02  0.46400933810E+03  0.00000000000E+00 0.  1.
        -13    1    3    3    0    0  0.93821681410E+02 -0.24771373004E+03  0.12051507345E+03  0.29101285690E+03  0.00000000000E+00 0. -1.
         22    1    1    2    0    0 -0.23412047073E+03  0.68176232012E+03  0.28954559978E+04  0.29838360697E+04  0.00000000000E+00 0. -1.
<mgrwt>
<rscale>  0 0.20888088E+04</rscale>
<asrwt>0</asrwt>
<pdfrwt beam="1">  1        1 0.52613967E+00 0.20888088E+04</pdfrwt>
<pdfrwt beam="2">  1       -1 0.49069272E-01 0.20888088E+04</pdfrwt>
<totfact> 0.11092872E+00</totfact>
</mgrwt>
</event>
<event>
 6    1  0.8968082E-007  0.2416383E+04  0.7818608E-02  0.8433395E-01
         -2   -1    0    0    0  501 -0.00000000000E+00  0.00000000000E+00  0.51250088210E+03  0.51250088210E+03  0.00000000000E+00 0.  1.
          2   -1    0    0  501    0  0.00000000000E+00 -0.00000000000E+00 -0.28482425614E+04  0.28482425614E+04  0.00000000000E+00 0. -1.
         23    2    1    2    0    0  0.28974921214E+03 -0.59709534734E+03 -0.25710884584E+04  0.26565662171E+04  0.79816945969E+02 0.  0.
         11    1    3    3    0    0  0.17343884443E+02 -0.40317385736E+02 -0.10566395417E+03  0.11441666457E+03  0.00000000000E+00 0. -1.
        -11    1    3    3    0    0  0.27240532770E+03 -0.55677796160E+03 -0.24654245043E+04  0.25421495525E+04  0.00000000000E+00 0.  1.
         22    1    1    2    0    0 -0.28974921214E+03  0.59709534734E+03  0.23534677914E+03  0.70417722642E+03  0.00000000000E+00 0.  1.
<mgrwt>
<rscale>  0 0.24163831E+04</rscale>
<asrwt>0</asrwt>
<pdfrwt beam="1">  1        2 0.43819115E+00 0.24163831E+04</pdfrwt>
<pdfrwt beam="2">  1       -2 0.78846292E-01 0.24163831E+04</pdfrwt>
<totfact> 0.27725148E+00</totfact>
</mgrwt>
</event>
<event>
 6    1  0.8968082E-007  0.1994581E+04  0.7818608E-02  0.8609158E-01
          1   -1    0    0  501    0  0.00000000000E+00  0.00000000000E+00  0.47148567040E+03  0.47148567040E+03  0.00000000000E+00 0. -1.
         -1   -1    0    0    0  501 -0.00000000000E+00 -0.00000000000E+00 -0.21094777824E+04  0.21094777824E+04  0.00000000000E+00 0.  1.
         23    2    1    2    0    0  0.38371371706E+03 -0.20619001052E+03 -0.19783051308E+04  0.20281854794E+04  0.10047194335E+03 0.  0.
         11    1    3    3    0    0  0.39449526081E+02 -0.15201889462E+02 -0.36946876895E+03  0.37187973027E+03  0.00000000000E+00 0. -1.
        -11    1    3    3    0    0  0.34426419098E+03 -0.19098812106E+03 -0.16088363618E+04  0.16563057492E+04  0.00000000000E+00 0.  1.
         22    1    1    2    0    0 -0.38371371706E+03  0.20619001052E+03  0.34031301878E+03  0.55277797338E+03  0.00000000000E+00 0. -1.
<mgrwt>
<rscale>  0 0.19945812E+04</rscale>
<asrwt>0</asrwt>
<pdfrwt beam="1">  1        1 0.72536257E-01 0.19945812E+04</pdfrwt>
<pdfrwt beam="2">  1       -1 0.32453504E+00 0.19945812E+04</pdfrwt>
<totfact> 0.10206420E+00</totfact>
</mgrwt>
</event>
<event>
 6    1  0.8968082E-007  0.9209121E+03  0.7818608E-02  0.9399811E-01
          2   -1    0    0  501    0  0.00000000000E+00  0.00000000000E+00  0.53163418558E+03  0.53163418558E+03  0.00000000000E+00 0. -1.
         -2   -1    0    0    0  501 -0.00000000000E+00 -0.00000000000E+00 -0.39880767684E+03  0.39880767684E+03  0.00000000000E+00 0.  1.
         23    2    1    2    0    0  0.25324273852E+03  0.22370366381E+03  0.37566203783E+03  0.51433573653E+03  0.96146083620E+02 0.  0.
         13    1    3    3    0    0  0.51911730654E+02  0.79384624564E+02  0.56792767404E+02  0.11055390009E+03  0.00000000000E+00 0.  1.
        -13    1    3    3    0    0  0.20133100787E+03  0.14431903924E+03  0.31886927043E+03  0.40378183644E+03  0.00000000000E+00 0. -1.
         22    1    1    2    0    0 -0.25324273852E+03 -0.22370366381E+03 -0.24283552909E+03  0.41610612589E+03  0.00000000000E+00 0.  1.
<mgrwt>
<rscale>  0 0.92091214E+03</rscale>
<asrwt>0</asrwt>
<pdfrwt beam="1">  1        2 0.81789875E-01 0.92091214E+03</pdfrwt>
<pdfrwt beam="2">  1       -2 0.61355027E-01 0.92091214E+03</pdfrwt>
<totfact> 0.14197641E+02</totfact>
</mgrwt>
</event>
<event>
 6    1  0.8968082E-007  0.1901520E+04  0.7818608E-02  0.8654100E-01
          2   -1    0    0  501    0  0.00000000000E+00  0.00000000000E+00  0.82054862469E+03  0.82054862469E+03  0.00000000000E+00 0. -1.
         -2   -1    0    0    0  501 -0.00000000000E+00 -0.00000000000E+00 -0.11016340567E+04  0.11016340567E+04  0.00000000000E+00 0.  1.
         23    2    1    2    0    0  0.42085529487E+03 -0.73171270077E+03  0.29682316898E+03  0.89919636342E+03  0.89036232238E+02 0.  0.
         13    1    3    3    0    0  0.11821718290E+03 -0.16380799998E+03  0.10519771866E+03  0.22776067088E+03  0.00000000000E+00 0. -1.
        -13    1    3    3    0    0  0.30263811197E+03 -0.56790470079E+03  0.19162545032E+03  0.67143569254E+03  0.00000000000E+00 0.  1.
         22    1    1    2    0    0 -0.42085529487E+03  0.73171270077E+03 -0.57790860102E+03  0.10229863180E+04  0.00000000000E+00 0.  1.
<mgrwt>
<rscale>  0 0.19015197E+04</rscale>
<asrwt>0</asrwt>
<pdfrwt beam="1">  1        2 0.12623825E+00 0.19015197E+04</pdfrwt>
<pdfrwt beam="2">  1       -2 0.16948216E+00 0.19015197E+04</pdfrwt>
<totfact> 0.66989444E+00</totfact>
</mgrwt>
</event>
<event>
 6    1  0.8968082E-007  0.1093674E+04  0.7818608E-02  0.9211380E-01
         -2   -1    0    0    0  501 -0.00000000000E+00  0.00000000000E+00  0.44815377063E+03  0.44815377063E+03  0.00000000000E+00 0.  1.
          2   -1    0    0  501    0  0.00000000000E+00 -0.00000000000E+00 -0.66725019552E+03  0.66725019552E+03  0.00000000000E+00 0. -1.
         23    2    1    2    0    0 -0.52888467268E+03 -0.12320587541E+03 -0.11204327174E+03  0.56190684571E+03  0.91032542487E+02 0.  0.
         13    1    3    3    0    0 -0.32480364943E+03 -0.92596520748E+02 -0.11107544247E+03  0.35554082784E+03  0.00000000000E+00 0.  1.
        -13    1    3    3    0    0 -0.20408102324E+03 -0.30609354664E+02 -0.96782926717E+00  0.20636601788E+03  0.00000000000E+00 0. -1.
         22    1    1    2    0    0  0.52888467268E+03  0.12320587541E+03 -0.10705315315E+03  0.55349712043E+03  0.00000000000E+00 0. -1.
<mgrwt>
<rscale>  0 0.10936740E+04</rscale>
<asrwt>0</asrwt>
<pdfrwt beam="1">  1        2 0.10265388E+00 0.10936740E+04</pdfrwt>
<pdfrwt beam="2">  1       -2 0.68946734E-01 0.10936740E+04</pdfrwt>
<totfact> 0.83108829E+01</totfact>
</mgrwt>
</event>
<event>
 6    1  0.8968082E-007  0.8115355E+03  0.7818608E-02  0.9543468E-01
         -1   -1    0    0    0  501 -0.00000000000E+00  0.00000000000E+00  0.13880787181E+03  0.13880787181E+03  0.00000000000E+00 0.  1.
          1   -1    0    0  501    0  0.00000000000E+00 -0.00000000000E+00 -0.11861537223E+04  0.11861537223E+04  0.00000000000E+00 0. -1.
         23    2    1    2    0    0 -0.27778037945E+03  0.24492252265E+03 -0.77797917081E+03  0.86702340021E+03  0.96586774369E+02 0.  0.
         11    1    3    3    0    0 -0.16702225308E+03  0.20118802322E+03 -0.49019633033E+03  0.55557672375E+03  0.00000000000E+00 0.  1.
        -11    1    3    3    0    0 -0.11075812637E+03  0.43734499433E+02 -0.28778284048E+03  0.31144667645E+03  0.00000000000E+00 0. -1.
         22    1    1    2    0    0  0.27778037945E+03 -0.24492252265E+03 -0.26936667966E+03  0.45793819389E+03  0.00000000000E+00 0.  1.
<mgrwt>
<rscale>  0 0.81153552E+03</rscale>
<asrwt>0</asrwt>
<pdfrwt beam="1">  1        1 0.18248519E+00 0.81153552E+03</pdfrwt>
<pdfrwt beam="2">  1       -1 0.21355057E-01 0.81153552E+03</pdfrwt>
<totfact> 0.20247860E+02</totfact>
</mgrwt>
</event>
<event>
 6    1  0.8968082E-007  0.1694564E+04  0.7818608E-02  0.8764471E-01
          1   -1    0    0  501    0  0.00000000000E+00  0.00000000000E+00  0.52712579403E+03  0.52712579403E+03  0.00000000000E+00 0. -1.
         -1   -1    0    0    0  501 -0.00000000000E+00 -0.00000000000E+00 -0.13618894986E+04  0.13618894986E+04  0.00000000000E+00 0.  1.
         23    2    1    2    0    0  0.46878693546E+03 -0.27159614464E+03  0.30399368706E+03  0.62794667687E+03  0.91538028108E+02 0.  0.
         13    1    3    3    0    0  0.35004051334E+03 -0.20505303815E+03  0.18000050480E+03  0.44381898469E+03  0.00000000000E+00 0. -1.
        -13    1    3    3    0    0  0.11874642211E+03 -0.66543106484E+02  0.12399318225E+03  0.18412769219E+03  0.00000000000E+00 0.  1.
         22    1    1    2    0    0 -0.46878693546E+03  0.27159614464E+03 -0.11387573916E+04  0.12610686157E+04  0.00000000000E+00 0.  1.
<mgrwt>
<rscale>  0 0.16945643E+04</rscale>
<asrwt>0</asrwt>
<pdfrwt beam="1">  1        1 0.81096276E-01 0.16945643E+04</pdfrwt>
<pdfrwt beam="2">  1       -1 0.20952146E+00 0.16945643E+04</pdfrwt>
<totfact> 0.50772726E+00</totfact>
</mgrwt>
</event>
<event>
 6    1  0.8968082E-007  0.6653024E+03  0.7818608E-02  0.9778481E-01
          2   -1    0    0  501    0  0.00000000000E+00  0.00000000000E+00  0.94371385236E+03  0.94371385236E+03  0.00000000000E+00 0. -1.
         -2   -1    0    0    0  501 -0.00000000000E+00 -0.00000000000E+00 -0.11725676277E+03  0.11725676277E+03  0.00000000000E+00 0.  1.
         23    2    1    2    0    0 -0.29424263521E+03  0.13497265850E+03  0.35456662297E+03  0.48871458903E+03  0.91258492703E+02 0.  0.
         13    1    3    3    0    0 -0.22138646173E+03  0.10346045738E+03  0.31871218026E+03  0.40161360227E+03  0.00000000000E+00 0. -1.
        -13    1    3    3    0    0 -0.72856173475E+02  0.31512201118E+02  0.35854442704E+02  0.87100986758E+02  0.00000000000E+00 0.  1.
         22    1    1    2    0    0  0.29424263521E+03 -0.13497265850E+03  0.47189046662E+03  0.57225602609E+03  0.00000000000E+00 0. -1.
<mgrwt>
<rscale>  0 0.66530243E+03</rscale>
<asrwt>0</asrwt>
<pdfrwt beam="1">  1        2 0.14518674E+00 0.66530243E+03</pdfrwt>
<pdfrwt beam="2">  1       -2 0.18039503E-01 0.66530243E+03</pdfrwt>
<totfact> 0.70507333E+02</totfact>
</mgrwt>
</event>
<event>
 6    1  0.8968082E-007  0.3574234E+04  0.7818608E-02  0.8096419E-01
         -2   -1    0    0    0  501 -0.00000000000E+00  0.00000000000E+00  0.16074597555E+04  0.16074597555E+04  0.00000000000E+00 0.  1.
          2   -1    0    0  501    0  0.00000000000E+00 -0.00000000000E+00 -0.19868534557E+04  0.19868534557E+04  0.00000000000E+00 0. -1.
         23    2    1    2    0    0 -0.96883618351E+03 -0.14916623781E+04 -0.28204353972E+02  0.17812952417E+04  0.92287873794E+02 0.  0.
         13    1    3    3    0    0 -0.55736693889E+03 -0.82942749331E+03 -0.58881430833E+02  0.10010369095E+04  0.00000000000E+00 0. -1.
        -13    1    3    3    0    0 -0.41146924462E+03 -0.66223488479E+03  0.30677076862E+02  0.78025833219E+03  0.00000000000E+00 0.  1.
         22    1    1    2    0    0  0.96883618351E+03  0.14916623781E+04 -0.35118934622E+03  0.18130179695E+04  0.00000000000E+00 0.  1.
<mgrwt>
<rscale>  0 0.35742339E+04</rscale>
<asrwt>0</asrwt>
<pdfrwt beam="1">  1        2 0.30566976E+00 0.35742339E+04</pdfrwt>
<pdfrwt beam="2">  1       -2 0.24730150E+00 0.35742339E+04</pdfrwt>
<totfact> 0.37056785E-01</totfact>
</mgrwt>
</event>
<event>
 6    1  0.8968082E-007  0.1963926E+04  0.7818608E-02  0.8623674E-01
         -2   -1    0    0    0  501 -0.00000000000E+00  0.00000000000E+00  0.43066135130E+03  0.43066135130E+03  0.00000000000E+00 0.  1.
          2   -1    0    0  501    0  0.00000000000E+00 -0.00000000000E+00 -0.22390024219E+04  0.22390024219E+04  0.00000000000E+00 0. -1.
         23    2    1    2    0    0  0.11278517261E+03 -0.35595544354E+03 -0.21375580132E+04  0.21718600285E+04  0.91634877279E+02 0.  0.
         11    1    3    3    0    0  0.52466325782E+02 -0.49872182296E+02 -0.42405493305E+03  0.43018895401E+03  0.00000000000E+00 0.  1.
        -11    1    3    3    0    0  0.60318846831E+02 -0.30608326124E+03 -0.17135030801E+04  0.17416710745E+04  0.00000000000E+00 0. -1.
         22    1    1    2    0    0 -0.11278517261E+03  0.35595544354E+03  0.32921694259E+03  0.49780374469E+03  0.00000000000E+00 0.  1.
<mgrwt>
<rscale>  0 0.19639265E+04</rscale>
<asrwt>0</asrwt>
<pdfrwt beam="1">  1        2 0.34446191E+00 0.19639265E+04</pdfrwt>
<pdfrwt beam="2">  1       -2 0.66255593E-01 0.19639265E+04</pdfrwt>
<totfact> 0.95829739E+00</totfact>
</mgrwt>
</event>
<event>
 6    1  0.8968082E-007  0.9692951E+03  0.7818608E-02  0.9342878E-01
          2   -1    0    0  501    0  0.00000000000E+00  0.00000000000E+00  0.86467802856E+03  0.86467802856E+03  0.00000000000E+00 0. -1.
         -2   -1    0    0    0  501 -0.00000000000E+00 -0.00000000000E+00 -0.27164241410E+03  0.27164241410E+03  0.00000000000E+00 0.  1.
         23    2    1    2    0    0  0.22959188011E+03  0.28458541667E+03  0.66423471045E+03  0.76380117864E+03  0.92104284005E+02 0.  0.
         13    1    3    3    0    0  0.17057244615E+03  0.16261112288E+03  0.48386940071E+03  0.53820714750E+03  0.00000000000E+00 0. -1.
        -13    1    3    3    0    0  0.59019433956E+02  0.12197429380E+03  0.18036530973E+03  0.22559403114E+03  0.00000000000E+00 0.  1.
         22    1    1    2    0    0 -0.22959188011E+03 -0.28458541667E+03 -0.71199095989E+02  0.37251926402E+03  0.00000000000E+00 0.  1.
<mgrwt>
<rscale>  0 0.96929506E+03</rscale>
<asrwt>0</asrwt>
<pdfrwt beam="1">  1        2 0.13302739E+00 0.96929506E+03</pdfrwt>
<pdfrwt beam="2">  1       -2 0.41791141E-01 0.96929506E+03</pdfrwt>
<totfact> 0.16807908E+02</totfact>
</mgrwt>
</event>
<event>
 6    1  0.8968082E-007  0.2491314E+04  0.7818608E-02  0.8406087E-01
          1   -1    0    0  501    0  0.00000000000E+00  0.00000000000E+00  0.92574328542E+03  0.92574328542E+03  0.00000000000E+00 0. -1.
         -1   -1    0    0    0  501 -0.00000000000E+00 -0.00000000000E+00 -0.16761245129E+04  0.16761245129E+04  0.00000000000E+00 0.  1.
         23    2    1    2    0    0 -0.33934782475E+03 -0.64141351874E+03 -0.14308396378E+04  0.16070854621E+04  0.94092323687E+02 0.  0.
         13    1    3    3    0    0 -0.67987808787E+01 -0.69651043106E+02 -0.12374098479E+03  0.14215949685E+03  0.00000000000E+00 0. -1.
        -13    1    3    3    0    0 -0.33254904387E+03 -0.57176247563E+03 -0.13070986530E+04  0.14649259653E+04  0.00000000000E+00 0.  1.
         22    1    1    2    0    0  0.33934782475E+03  0.64141351874E+03  0.68045841032E+03  0.99478233617E+03  0.00000000000E+00 0. -1.
<mgrwt>
<rscale>  0 0.24913137E+04</rscale>
<asrwt>0</asrwt>
<pdfrwt beam="1">  1        1 0.14242204E+00 0.24913137E+04</pdfrwt>
<pdfrwt beam="2">  1       -1 0.25786531E+00 0.24913137E+04</pdfrwt>
<totfact> 0.95489477E-01</totfact>
</mgrwt>
</event>
<event>
 6    1  0.8968082E-007  0.3867275E+03  0.7818608E-02  0.1048475E+00
          2   -1    0    0  501    0  0.00000000000E+00  0.00000000000E+00  0.21280128453E+03  0.21280128453E+03  0.00000000000E+00 0. -1.
         -2   -1    0    0    0  501 -0.00000000000E+00 -0.00000000000E+00 -0.17570168855E+03  0.17570168855E+03  0.00000000000E+00 0.  1.
         23    2    1    2    0    0 -0.12599642572E+03  0.91103839429E+02  0.11507431903E+03  0.21456313783E+03  0.92845206446E+02 0.  0.
         13    1    3    3    0    0 -0.74324861570E+02  0.22262040617E+02  0.92263730822E+01  0.78133920035E+02  0.00000000000E+00 0.  1.
        -13    1    3    3    0    0 -0.51671564153E+02  0.68841798811E+02  0.10584794595E+03  0.13642921779E+03  0.00000000000E+00 0. -1.
         22    1    1    2    0    0  0.12599642572E+03 -0.91103839429E+02 -0.77974723055E+02  0.17393983526E+03  0.00000000000E+00 0.  1.
<mgrwt>
<rscale>  0 0.38672753E+03</rscale>
<asrwt>0</asrwt>
<pdfrwt beam="1">  1        2 0.32738659E-01 0.38672753E+03</pdfrwt>
<pdfrwt beam="2">  1       -2 0.27031029E-01 0.38672753E+03</pdfrwt>
<totfact> 0.19800785E+03</totfact>
</mgrwt>
</event>
<event>
 6    1  0.8968082E-007  0.1731685E+04  0.7818608E-02  0.8743497E-01
          1   -1    0    0  501    0  0.00000000000E+00  0.00000000000E+00  0.76591499938E+03  0.76591499938E+03  0.00000000000E+00 0. -1.
         -1   -1    0    0    0  501 -0.00000000000E+00 -0.00000000000E+00 -0.97880681016E+03  0.97880681016E+03  0.00000000000E+00 0.  1.
         23    2    1    2    0    0  0.61968505829E+03 -0.20417045192E+03  0.46235220293E+03  0.80575981726E+03  0.98915007215E+02 0.  0.
         13    1    3    3    0    0  0.37899753938E+03 -0.91874613260E+02  0.22916480046E+03  0.45232354039E+03  0.00000000000E+00 0.  1.
        -13    1    3    3    0    0  0.24068751891E+03 -0.11229583866E+03  0.23318740247E+03  0.35343627687E+03  0.00000000000E+00 0. -1.
         22    1    1    2    0    0 -0.61968505829E+03  0.20417045192E+03 -0.67524401370E+03  0.93896199228E+03  0.00000000000E+00 0.  1.
<mgrwt>
<rscale>  0 0.17316845E+04</rscale>
<asrwt>0</asrwt>
<pdfrwt beam="1">  1        1 0.11783308E+00 0.17316845E+04</pdfrwt>
<pdfrwt beam="2">  1       -1 0.15058566E+00 0.17316845E+04</pdfrwt>
<totfact> 0.77656661E+00</totfact>
</mgrwt>
</event>
<event>
 6    1  0.8968082E-007  0.2095449E+04  0.7818608E-02  0.8563251E-01
          1   -1    0    0  501    0  0.00000000000E+00  0.00000000000E+00  0.23438380541E+04  0.23438380541E+04  0.00000000000E+00 0. -1.
         -1   -1    0    0    0  501 -0.00000000000E+00 -0.00000000000E+00 -0.46834582264E+03  0.46834582264E+03  0.00000000000E+00 0.  1.
         23    2    1    2    0    0 -0.16800503856E+03 -0.54987815989E+03 -0.23476505937E+03  0.62499903837E+03  0.70124754192E+02 0.  0.
         13    1    3    3    0    0 -0.80166681396E+02 -0.17716539899E+03 -0.55719033211E+02  0.20228417157E+03  0.00000000000E+00 0. -1.
        -13    1    3    3    0    0 -0.87838357161E+02 -0.37271276090E+03 -0.17904602616E+03  0.42271486679E+03  0.00000000000E+00 0.  1.
         22    1    1    2    0    0  0.16800503856E+03  0.54987815989E+03  0.21102572908E+04  0.21871848383E+04  0.00000000000E+00 0. -1.
<mgrwt>
<rscale>  0 0.20954491E+04</rscale>
<asrwt>0</asrwt>
<pdfrwt beam="1">  1        1 0.36059046E+00 0.20954491E+04</pdfrwt>
<pdfrwt beam="2">  1       -1 0.72053205E-01 0.20954491E+04</pdfrwt>
<totfact> 0.31056487E+00</totfact>
</mgrwt>
</event>
<event>
 6    1  0.8968082E-007  0.1687063E+04  0.7818608E-02  0.8768778E-01
          1   -1    0    0  501    0  0.00000000000E+00  0.00000000000E+00  0.95839353760E+03  0.95839353760E+03  0.00000000000E+00 0. -1.
         -1   -1    0    0    0  501 -0.00000000000E+00 -0.00000000000E+00 -0.74243510050E+03  0.74243510050E+03  0.00000000000E+00 0.  1.
         23    2    1    2    0    0 -0.68118740404E+02  0.70933239258E+03 -0.34200409400E+03  0.79577903059E+03  0.92221793769E+02 0.  0.
         11    1    3    3    0    0  0.13988659056E+02  0.17858566492E+03 -0.11395207210E+03  0.21230543336E+03  0.00000000000E+00 0.  1.
        -11    1    3    3    0    0 -0.82107399460E+02  0.53074672766E+03 -0.22805202190E+03  0.58347359723E+03  0.00000000000E+00 0. -1.
         22    1    1    2    0    0  0.68118740404E+02 -0.70933239258E+03  0.55796253109E+03  0.90504960752E+03  0.00000000000E+00 0. -1.
<mgrwt>
<rscale>  0 0.16870625E+04</rscale>
<asrwt>0</asrwt>
<pdfrwt beam="1">  1        1 0.14744516E+00 0.16870625E+04</pdfrwt>
<pdfrwt beam="2">  1       -1 0.11422078E+00 0.16870625E+04</pdfrwt>
<totfact> 0.10850026E+01</totfact>
</mgrwt>
</event>
<event>
 6    1  0.8968082E-007  0.4337183E+04  0.7818608E-02  0.7939778E-01
         -2   -1    0    0    0  501 -0.00000000000E+00  0.00000000000E+00  0.19366128772E+04  0.19366128772E+04  0.00000000000E+00 0.  1.
          2   -1    0    0  501    0  0.00000000000E+00 -0.00000000000E+00 -0.24283578595E+04  0.24283578595E+04  0.00000000000E+00 0. -1.
         23    2    1    2    0    0  0.12746412376E+04  0.12279072759E+04 -0.15054360353E+04  0.23253540782E+04  0.92018312517E+02 0.  0.
         11    1    3    3    0    0  0.10357577933E+03  0.12098920529E+03 -0.10834086121E+03  0.19262417312E+03  0.00000000000E+00 0. -1.
        -11    1    3    3    0    0  0.11710654582E+04  0.11069180707E+04 -0.13970951741E+04  0.21327299051E+04  0.00000000000E+00 0.  1.
         22    1    1    2    0    0 -0.12746412376E+04 -0.12279072759E+04  0.10136910530E+04  0.20396166585E+04  0.00000000000E+00 0.  1.
<mgrwt>
<rscale>  0 0.43371830E+04</rscale>
<asrwt>0</asrwt>
<pdfrwt beam="1">  1        2 0.37359352E+00 0.43371830E+04</pdfrwt>
<pdfrwt beam="2">  1       -2 0.29794044E+00 0.43371830E+04</pdfrwt>
<totfact> 0.96190198E-02</totfact>
</mgrwt>
</event>
<event>
 6    1  0.8968082E-007  0.3379641E+04  0.7818608E-02  0.8142921E-01
         -2   -1    0    0    0  501 -0.00000000000E+00  0.00000000000E+00  0.79171785526E+03  0.79171785526E+03  0.00000000000E+00 0.  1.
          2   -1    0    0  501    0  0.00000000000E+00 -0.00000000000E+00 -0.36067062345E+04  0.36067062345E+04  0.00000000000E+00 0. -1.
         23    2    1    2    0    0 -0.11146444179E+04  0.82284964883E+03 -0.15218024884E+03  0.13967477477E+04  0.90728825544E+02 0.  0.
         13    1    3    3    0    0 -0.23821130062E+03  0.16756593292E+03  0.44470321213E+01  0.29127777415E+03  0.00000000000E+00 0.  1.
        -13    1    3    3    0    0 -0.87643311727E+03  0.65528371591E+03 -0.15662728096E+03  0.11054699736E+04  0.00000000000E+00 0. -1.
         22    1    1    2    0    0  0.11146444179E+04 -0.82284964883E+03 -0.26628081304E+04  0.30016763420E+04  0.00000000000E+00 0. -1.
<mgrwt>
<rscale>  0 0.33796412E+04</rscale>
<asrwt>0</asrwt>
<pdfrwt beam="1">  1        2 0.55487788E+00 0.33796412E+04</pdfrwt>
<pdfrwt beam="2">  1       -2 0.12180275E+00 0.33796412E+04</pdfrwt>
<totfact> 0.28938621E-01</totfact>
</mgrwt>
</event>
<event>
 6    1  0.8968082E-007  0.3885776E+04  0.7818608E-02  0.8027994E-01
         -2   -1    0    0    0  501 -0.00000000000E+00  0.00000000000E+00  0.25247910178E+04  0.25247910178E+04  0.00000000000E+00 0.  1.
          2   -1    0    0  501    0  0.00000000000E+00 -0.00000000000E+00 -0.14950997986E+04  0.14950997986E+04  0.00000000000E+00 0. -1.
         23    2    1    2    0    0 -0.78353836739E+03 -0.22331253429E+03 -0.13083833059E+04  0.15439277016E+04  0.89693987880E+02 0.  0.
         13    1    3    3    0    0 -0.35093661734E+03 -0.12356918861E+03 -0.66959812459E+03  0.76602056253E+03  0.00000000000E+00 0.  1.
        -13    1    3    3    0    0 -0.43260175005E+03 -0.99743345673E+02 -0.63878518133E+03  0.77790713908E+03  0.00000000000E+00 0. -1.
         22    1    1    2    0    0  0.78353836739E+03  0.22331253429E+03  0.23380745250E+04  0.24759631148E+04  0.00000000000E+00 0.  1.
<mgrwt>
<rscale>  0 0.38857764E+04</rscale>
<asrwt>0</asrwt>
<pdfrwt beam="1">  1        2 0.23001535E+00 0.38857764E+04</pdfrwt>
<pdfrwt beam="2">  1       -2 0.38842939E+00 0.38857764E+04</pdfrwt>
<totfact> 0.89764236E-02</totfact>
</mgrwt>
</event>
<event>
 6    1  0.8968082E-007  0.2167667E+04  0.7818608E-02  0.8532008E-01
          2   -1    0    0  501    0  0.00000000000E+00  0.00000000000E+00  0.25589042817E+04  0.25589042817E+04  0.00000000000E+00 0. -1.
         -2   -1    0    0    0  501 -0.00000000000E+00 -0.00000000000E+00 -0.45906177430E+03  0.45906177430E+03  0.00000000000E+00 0.  1.
         23    2    1    2    0    0 -0.16400836559E+03 -0.57824427962E+03 -0.20109874147E+03  0.63981639257E+03  0.87516406905E+02 0.  0.
         13    1    3    3    0    0 -0.13320417667E+03 -0.34404696523E+03 -0.14924724191E+03  0.39797789661E+03  0.00000000000E+00 0. -1.
        -13    1    3    3    0    0 -0.30804188911E+02 -0.23419731439E+03 -0.51851499565E+02  0.24183849596E+03  0.00000000000E+00 0.  1.
         22    1    1    2    0    0  0.16400836559E+03  0.57824427962E+03  0.23009412489E+04  0.23781496635E+04  0.00000000000E+00 0. -1.
<mgrwt>
<rscale>  0 0.21676671E+04</rscale>
<asrwt>0</asrwt>
<pdfrwt beam="1">  1        2 0.39367757E+00 0.21676671E+04</pdfrwt>
<pdfrwt beam="2">  1       -2 0.70624890E-01 0.21676671E+04</pdfrwt>
<totfact> 0.53760122E+00</totfact>
</mgrwt>
</event>
<event>
 6    1  0.8968082E-007  0.5648073E+03  0.7818608E-02  0.9981236E-01
          4   -1    0    0  501    0  0.00000000000E+00  0.00000000000E+00  0.42945653404E+03  0.42945653404E+03  0.00000000000E+00 0. -1.
         -4   -1    0    0    0  501 -0.00000000000E+00 -0.00000000000E+00 -0.18570405105E+03  0.18570405105E+03  0.00000000000E+00 0.  1.
         23    2    1    2    0    0  0.15989419071E+03  0.75571414458E+02  0.35445607137E+03  0.40651620969E+03  0.91318844173E+02 0.  0.
         13    1    3    3    0    0  0.51981576116E+02  0.74505552276E+02  0.15143208691E+03  0.17659229462E+03  0.00000000000E+00 0.  1.
        -13    1    3    3    0    0  0.10791261460E+03  0.10658621820E+01  0.20302398446E+03  0.22992391506E+03  0.00000000000E+00 0. -1.
         22    1    1    2    0    0 -0.15989419071E+03 -0.75571414458E+02 -0.11070358838E+03  0.20864437540E+03  0.00000000000E+00 0.  1.
<mgrwt>
<rscale>  0 0.56480729E+03</rscale>
<asrwt>0</asrwt>
<pdfrwt beam="1">  1        4 0.66070236E-01 0.56480729E+03</pdfrwt>
<pdfrwt beam="2">  1       -4 0.28569854E-01 0.56480729E+03</pdfrwt>
<totfact> 0.49371741E+01</totfact>
</mgrwt>
</event>
<event>
 6    1  0.8968082E-007  0.2469433E+04  0.7818608E-02  0.8413957E-01
         -2   -1    0    0    0  501 -0.00000000000E+00  0.00000000000E+00  0.54787206272E+03  0.54787206272E+03  0.00000000000E+00 0.  1.
          2   -1    0    0  501    0  0.00000000000E+00 -0.00000000000E+00 -0.27826296248E+04  0.27826296248E+04  0.00000000000E+00 0. -1.
         23    2    1    2    0    0 -0.30019649550E+03 -0.39840497037E+03 -0.26397136883E+04  0.26879801544E+04  0.91129018440E+02 0.  0.
         13    1    3    3    0    0 -0.12974961428E+03 -0.24740760828E+03 -0.14665359005E+04  0.14929075773E+04  0.00000000000E+00 0. -1.
        -13    1    3    3    0    0 -0.17044688121E+03 -0.15099736209E+03 -0.11731777878E+04  0.11950725771E+04  0.00000000000E+00 0.  1.
         22    1    1    2    0    0  0.30019649550E+03  0.39840497037E+03  0.40495612622E+03  0.64252153309E+03  0.00000000000E+00 0.  1.
<mgrwt>
<rscale>  0 0.24694332E+04</rscale>
<asrwt>0</asrwt>
<pdfrwt beam="1">  1        2 0.42809687E+00 0.24694332E+04</pdfrwt>
<pdfrwt beam="2">  1       -2 0.84288009E-01 0.24694332E+04</pdfrwt>
<totfact> 0.26015780E+00</totfact>
</mgrwt>
</event>
<event>
 6    1  0.8968082E-007  0.3007642E+04  0.7818608E-02  0.8241552E-01
         -2   -1    0    0    0  501 -0.00000000000E+00  0.00000000000E+00  0.13055057813E+04  0.13055057813E+04  0.00000000000E+00 0.  1.
          2   -1    0    0  501    0  0.00000000000E+00 -0.00000000000E+00 -0.17322611040E+04  0.17322611040E+04  0.00000000000E+00 0. -1.
         23    2    1    2    0    0 -0.13091186710E+04 -0.40853932908E+03 -0.83337785333E+03  0.16073690524E+04  0.91763532515E+02 0.  0.
         13    1    3    3    0    0 -0.99231298081E+03 -0.31005169598E+03 -0.58481905568E+03  0.11928245613E+04  0.00000000000E+00 0. -1.
        -13    1    3    3    0    0 -0.31680569019E+03 -0.98487633103E+02 -0.24855879765E+03  0.41454449110E+03  0.00000000000E+00 0.  1.
         22    1    1    2    0    0  0.13091186710E+04  0.40853932908E+03  0.40662253067E+03  0.14303978330E+04  0.00000000000E+00 0.  1.
<mgrwt>
<rscale>  0 0.30076415E+04</rscale>
<asrwt>0</asrwt>
<pdfrwt beam="1">  1        2 0.26650171E+00 0.30076415E+04</pdfrwt>
<pdfrwt beam="2">  1       -2 0.20084704E+00 0.30076415E+04</pdfrwt>
<totfact> 0.10571384E+00</totfact>
</mgrwt>
</event>
<event>
 6    1  0.8968082E-007  0.4337397E+04  0.7818608E-02  0.7939739E-01
          1   -1    0    0  501    0  0.00000000000E+00  0.00000000000E+00  0.16791711630E+04  0.16791711630E+04  0.00000000000E+00 0. -1.
         -1   -1    0    0    0  501 -0.00000000000E+00 -0.00000000000E+00 -0.28009371716E+04  0.28009371716E+04  0.00000000000E+00 0.  1.
         23    2    1    2    0    0 -0.12375681532E+04 -0.37045864527E+03  0.12370414911E+04  0.17907241370E+04  0.87216640915E+02 0.  0.
         13    1    3    3    0    0 -0.60345710417E+03 -0.13555116602E+03  0.59876365533E+03  0.86084406842E+03  0.00000000000E+00 0.  1.
        -13    1    3    3    0    0 -0.63411104901E+03 -0.23490747925E+03  0.63827783577E+03  0.92988006857E+03  0.00000000000E+00 0. -1.
         22    1    1    2    0    0  0.12375681532E+04  0.37045864527E+03 -0.23588074997E+04  0.26893841976E+04  0.00000000000E+00 0.  1.
<mgrwt>
<rscale>  0 0.43373969E+04</rscale>
<asrwt>0</asrwt>
<pdfrwt beam="1">  1        1 0.25833403E+00 0.43373969E+04</pdfrwt>
<pdfrwt beam="2">  1       -1 0.43091341E+00 0.43373969E+04</pdfrwt>
<totfact> 0.16438429E-02</totfact>
</mgrwt>
</event>
<event>
 6    1  0.8968082E-007  0.2766822E+04  0.7818608E-02  0.8313644E-01
         -1   -1    0    0    0  501 -0.00000000000E+00  0.00000000000E+00  0.71469931110E+03  0.71469931110E+03  0.00000000000E+00 0.  1.
          1   -1    0    0  501    0  0.00000000000E+00 -0.00000000000E+00 -0.26778051082E+04  0.26778051082E+04  0.00000000000E+00 0. -1.
         23    2    1    2    0    0  0.32576413483E+03  0.45715647255E+03 -0.25309738209E+04  0.25940130890E+04  0.89225063518E+02 0.  0.
         13    1    3    3    0    0  0.18142312131E+03  0.29026192405E+03 -0.13587254169E+04  0.14011784655E+04  0.00000000000E+00 0. -1.
        -13    1    3    3    0    0  0.14434101352E+03  0.16689454850E+03 -0.11722484040E+04  0.11928346236E+04  0.00000000000E+00 0.  1.
         22    1    1    2    0    0 -0.32576413483E+03 -0.45715647255E+03  0.56786802386E+03  0.79849133023E+03  0.00000000000E+00 0.  1.
<mgrwt>
<rscale>  0 0.27668216E+04</rscale>
<asrwt>0</asrwt>
<pdfrwt beam="1">  1        1 0.41197001E+00 0.27668216E+04</pdfrwt>
<pdfrwt beam="2">  1       -1 0.10995374E+00 0.27668216E+04</pdfrwt>
<totfact> 0.67444111E-01</totfact>
</mgrwt>
</event>
<event>
 6    1  0.8968082E-007  0.3172237E+04  0.7818608E-02  0.8196188E-01
         -1   -1    0    0    0  501 -0.00000000000E+00  0.00000000000E+00  0.93016520310E+03  0.93016520310E+03  0.00000000000E+00 0.  1.
          1   -1    0    0  501    0  0.00000000000E+00 -0.00000000000E+00 -0.27046503508E+04  0.27046503508E+04  0.00000000000E+00 0. -1.
         23    2    1    2    0    0 -0.13509497962E+04  0.29357364727E+03 -0.17759048255E+04  0.22523348656E+04  0.89014376396E+02 0.  0.
         11    1    3    3    0    0 -0.96384451131E+03  0.17769417006E+03 -0.12146142767E+04  0.15607239670E+04  0.00000000000E+00 0. -1.
        -11    1    3    3    0    0 -0.38710528491E+03  0.11587947721E+03 -0.56129054878E+03  0.69161089855E+03  0.00000000000E+00 0.  1.
         22    1    1    2    0    0  0.13509497962E+04 -0.29357364727E+03  0.14196777204E+01  0.13824806884E+04  0.00000000000E+00 0.  1.
<mgrwt>
<rscale>  0 0.31722368E+04</rscale>
<asrwt>0</asrwt>
<pdfrwt beam="1">  1        1 0.41610006E+00 0.31722368E+04</pdfrwt>
<pdfrwt beam="2">  1       -1 0.14310234E+00 0.31722368E+04</pdfrwt>
<totfact> 0.32301390E-01</totfact>
</mgrwt>
</event>
<event>
 6    1  0.8968082E-007  0.3299822E+04  0.7818608E-02  0.8162941E-01
          2   -1    0    0  501    0  0.00000000000E+00  0.00000000000E+00  0.14689424830E+04  0.14689424830E+04  0.00000000000E+00 0. -1.
         -2   -1    0    0    0  501 -0.00000000000E+00 -0.00000000000E+00 -0.18531742752E+04  0.18531742752E+04  0.00000000000E+00 0.  1.
         23    2    1    2    0    0  0.14179888718E+03 -0.81286826959E+03 -0.16291042959E+04  0.18286077028E+04  0.94676162376E+02 0.  0.
         13    1    3    3    0    0  0.19360331897E+02 -0.28889472178E+03 -0.49849202433E+03  0.57648007862E+03  0.00000000000E+00 0. -1.
        -13    1    3    3    0    0  0.12243855529E+03 -0.52397354781E+03 -0.11306122715E+04  0.12521276242E+04  0.00000000000E+00 0.  1.
         22    1    1    2    0    0 -0.14179888718E+03  0.81286826959E+03  0.12448725037E+04  0.14935090554E+04  0.00000000000E+00 0. -1.
<mgrwt>
<rscale>  0 0.32998221E+04</rscale>
<asrwt>0</asrwt>
<pdfrwt beam="1">  1        2 0.22599115E+00 0.32998221E+04</pdfrwt>
<pdfrwt beam="2">  1       -2 0.28510373E+00 0.32998221E+04</pdfrwt>
<totfact> 0.43273877E-01</totfact>
</mgrwt>
</event>
<event>
 6    1  0.8968082E-007  0.4562094E+04  0.7818608E-02  0.7899855E-01
          2   -1    0    0  501    0  0.00000000000E+00  0.00000000000E+00  0.43162293477E+04  0.43162293477E+04  0.00000000000E+00 0. -1.
         -2   -1    0    0    0  501 -0.00000000000E+00 -0.00000000000E+00 -0.12054911530E+04  0.12054911530E+04  0.00000000000E+00 0.  1.
         23    2    1    2    0    0  0.11525784618E+04  0.86807552194E+03 -0.58111602134E+03  0.15579117546E+04  0.86028962937E+02 0.  0.
         13    1    3    3    0    0  0.39017584983E+03  0.33639764933E+03 -0.18219474581E+03  0.54643892400E+03  0.00000000000E+00 0. -1.
        -13    1    3    3    0    0  0.76240261201E+03  0.53167787261E+03 -0.39892127554E+03  0.10114728306E+04  0.00000000000E+00 0.  1.
         22    1    1    2    0    0 -0.11525784618E+04 -0.86807552194E+03  0.36918542160E+04  0.39638087460E+04  0.00000000000E+00 0. -1.
<mgrwt>
<rscale>  0 0.45620944E+04</rscale>
<asrwt>0</asrwt>
<pdfrwt beam="1">  1        2 0.66403527E+00 0.45620944E+04</pdfrwt>
<pdfrwt beam="2">  1       -2 0.18546018E+00 0.45620944E+04</pdfrwt>
<totfact> 0.22840732E-02</totfact>
</mgrwt>
</event>
<event>
 6    1  0.8968082E-007  0.4787745E+03  0.7818608E-02  0.1019473E+00
          2   -1    0    0  501    0  0.00000000000E+00  0.00000000000E+00  0.14137169014E+03  0.14137169014E+03  0.00000000000E+00 0. -1.
         -2   -1    0    0    0  501 -0.00000000000E+00 -0.00000000000E+00 -0.40535883353E+03  0.40535883353E+03  0.00000000000E+00 0.  1.
         23    2    1    2    0    0  0.64012962013E+02  0.20669961969E+03 -0.22807066540E+03  0.32738516704E+03  0.91336887926E+02 0.  0.
         11    1    3    3    0    0  0.78008610126E+02  0.10092267190E+03 -0.13593968405E+03  0.18641439498E+03  0.00000000000E+00 0.  1.
        -11    1    3    3    0    0 -0.13995648114E+02  0.10577694779E+03 -0.92130981349E+02  0.14097077205E+03  0.00000000000E+00 0. -1.
         22    1    1    2    0    0 -0.64012962013E+02 -0.20669961969E+03 -0.35916477987E+02  0.21934535663E+03  0.00000000000E+00 0. -1.
<mgrwt>
<rscale>  0 0.47877453E+03</rscale>
<asrwt>0</asrwt>
<pdfrwt beam="1">  1        2 0.21749491E-01 0.47877453E+03</pdfrwt>
<pdfrwt beam="2">  1       -2 0.62362897E-01 0.47877453E+03</pdfrwt>
<totfact> 0.61852778E+02</totfact>
</mgrwt>
</event>
<event>
 6    1  0.8968082E-007  0.2012686E+04  0.7818608E-02  0.8600713E-01
         -2   -1    0    0    0  501 -0.00000000000E+00  0.00000000000E+00  0.55096533432E+03  0.55096533432E+03  0.00000000000E+00 0.  1.
          2   -1    0    0  501    0  0.00000000000E+00 -0.00000000000E+00 -0.18380933863E+04  0.18380933863E+04  0.00000000000E+00 0. -1.
         23    2    1    2    0    0 -0.21862927107E+03 -0.67452916130E+03 -0.14890058606E+04  0.16518050348E+04  0.92374631860E+02 0.  0.
         11    1    3    3    0    0 -0.10643854543E+02 -0.11925832059E+03 -0.20287382320E+03  0.23557085306E+03  0.00000000000E+00 0. -1.
        -11    1    3    3    0    0 -0.20798541653E+03 -0.55527084071E+03 -0.12861320373E+04  0.14162341817E+04  0.00000000000E+00 0.  1.
         22    1    1    2    0    0  0.21862927107E+03  0.67452916130E+03  0.20187780860E+03  0.73725368580E+03  0.00000000000E+00 0.  1.
<mgrwt>
<rscale>  0 0.20126855E+04</rscale>
<asrwt>0</asrwt>
<pdfrwt beam="1">  1        2 0.28278360E+00 0.20126855E+04</pdfrwt>
<pdfrwt beam="2">  1       -2 0.84763896E-01 0.20126855E+04</pdfrwt>
<totfact> 0.92487035E+00</totfact>
</mgrwt>
</event>
<event>
 6    1  0.8968082E-007  0.7593579E+03  0.7818608E-02  0.9620783E-01
          2   -1    0    0  501    0  0.00000000000E+00  0.00000000000E+00  0.39105222719E+03  0.39105222719E+03  0.00000000000E+00 0. -1.
         -2   -1    0    0    0  501 -0.00000000000E+00 -0.00000000000E+00 -0.36863649126E+03  0.36863649126E+03  0.00000000000E+00 0.  1.
         23    2    1    2    0    0 -0.58899719829E+02 -0.83227188522E+02 -0.34740357098E+03  0.37607138090E+03  0.10170791756E+03 0.  0.
         13    1    3    3    0    0  0.84077466821E+01  0.10629636250E+01 -0.15706286322E+03  0.15729133192E+03  0.00000000000E+00 0. -1.
        -13    1    3    3    0    0 -0.67307466511E+02 -0.84290152147E+02 -0.19034070777E+03  0.21878004898E+03  0.00000000000E+00 0.  1.
         22    1    1    2    0    0  0.58899719829E+02  0.83227188522E+02  0.36981930692E+03  0.38361733756E+03  0.00000000000E+00 0. -1.
<mgrwt>
<rscale>  0 0.75935794E+03</rscale>
<asrwt>0</asrwt>
<pdfrwt beam="1">  1        2 0.60161881E-01 0.75935794E+03</pdfrwt>
<pdfrwt beam="2">  1       -2 0.56713306E-01 0.75935794E+03</pdfrwt>
<totfact> 0.23992919E+02</totfact>
</mgrwt>
</event>
<event>
 6    1  0.8968082E-007  0.3239842E+04  0.7818608E-02  0.8178374E-01
          2   -1    0    0  501    0  0.00000000000E+00  0.00000000000E+00  0.12547224196E+04  0.12547224196E+04  0.00000000000E+00 0. -1.
         -2   -1    0    0    0  501 -0.00000000000E+00 -0.00000000000E+00 -0.20914136650E+04  0.20914136650E+04  0.00000000000E+00 0.  1.
         23    2    1    2    0    0  0.29582572670E+03 -0.91742512169E+03  0.92438194670E+03  0.13385104963E+04  0.89143989801E+02 0.  0.
         13    1    3    3    0    0  0.21883600337E+03 -0.54822570027E+03  0.58732600551E+03  0.83270189837E+03  0.00000000000E+00 0.  1.
        -13    1    3    3    0    0  0.76989723333E+02 -0.36919942142E+03  0.33705594118E+03  0.50580859795E+03  0.00000000000E+00 0. -1.
         22    1    1    2    0    0 -0.29582572670E+03  0.91742512169E+03 -0.17610731921E+04  0.20076255882E+04  0.00000000000E+00 0.  1.
<mgrwt>
<rscale>  0 0.32398417E+04</rscale>
<asrwt>0</asrwt>
<pdfrwt beam="1">  1        2 0.19303422E+00 0.32398417E+04</pdfrwt>
<pdfrwt beam="2">  1       -2 0.32175595E+00 0.32398417E+04</pdfrwt>
<totfact> 0.34438737E-01</totfact>
</mgrwt>
</event>
<event>
 6    1  0.8968082E-007  0.2305955E+04  0.7818608E-02  0.8475577E-01
          2   -1    0    0  501    0  0.00000000000E+00  0.00000000000E+00  0.13635976529E+04  0.13635976529E+04  0.00000000000E+00 0. -1.
         -2   -1    0    0    0  501 -0.00000000000E+00 -0.00000000000E+00 -0.97488957432E+03  0.97488957432E+03  0.00000000000E+00 0.  1.
         23    2    1    2    0    0 -0.25766765823E+03  0.41437748851E+03  0.12520947189E+04  0.13467524766E+04  0.88880386415E+02 0.  0.
         13    1    3    3    0    0 -0.18584356682E+03  0.21567882426E+03  0.71706528044E+03  0.77151656040E+03  0.00000000000E+00 0. -1.
        -13    1    3    3    0    0 -0.71824091410E+02  0.19869866425E+03  0.53502943842E+03  0.57523591618E+03  0.00000000000E+00 0.  1.
         22    1    1    2    0    0  0.25766765823E+03 -0.41437748851E+03 -0.86338664026E+03  0.99173475066E+03  0.00000000000E+00 0.  1.
<mgrwt>
<rscale>  0 0.23059550E+04</rscale>
<asrwt>0</asrwt>
<pdfrwt beam="1">  1        2 0.20978426E+00 0.23059550E+04</pdfrwt>
<pdfrwt beam="2">  1       -2 0.14998301E+00 0.23059550E+04</pdfrwt>
<totfact> 0.41246556E+00</totfact>
</mgrwt>
</event>
<event>
 6    1  0.8968082E-007  0.1769927E+04  0.7818608E-02  0.8722457E-01
         -1   -1    0    0    0  501 -0.00000000000E+00  0.00000000000E+00  0.43170818718E+03  0.43170818718E+03  0.00000000000E+00 0.  1.
          1   -1    0    0  501    0  0.00000000000E+00 -0.00000000000E+00 -0.18140967214E+04  0.18140967214E+04  0.00000000000E+00 0. -1.
         23    2    1    2    0    0  0.10079024050E+02  0.79419725589E+03 -0.20456264843E+03  0.82519775486E+03  0.90854771436E+02 0.  0.
         11    1    3    3    0    0 -0.19063875299E+02  0.43120969968E+03 -0.71610272157E+02  0.43753087607E+03  0.00000000000E+00 0.  1.
        -11    1    3    3    0    0  0.29142899349E+02  0.36298755621E+03 -0.13295237628E+03  0.38766687878E+03  0.00000000000E+00 0. -1.
         22    1    1    2    0    0 -0.10079024050E+02 -0.79419725589E+03 -0.11778258858E+04  0.14206071538E+04  0.00000000000E+00 0. -1.
<mgrwt>
<rscale>  0 0.17699270E+04</rscale>
<asrwt>0</asrwt>
<pdfrwt beam="1">  1        1 0.27909180E+00 0.17699270E+04</pdfrwt>
<pdfrwt beam="2">  1       -1 0.66416646E-01 0.17699270E+04</pdfrwt>
<totfact> 0.86601957E+00</totfact>
</mgrwt>
</event>
<event>
 6    1  0.8968082E-007  0.9546758E+03  0.7818608E-02  0.9359702E-01
          3   -1    0    0  501    0  0.00000000000E+00  0.00000000000E+00  0.68727114832E+03  0.68727114832E+03  0.00000000000E+00 0. -1.
         -3   -1    0    0    0  501 -0.00000000000E+00 -0.00000000000E+00 -0.33153067104E+03  0.33153067104E+03  0.00000000000E+00 0.  1.
         23    2    1    2    0    0  0.21850498610E+03  0.22703846257E+03 -0.19665850664E+03  0.38284936055E+03  0.92780236061E+02 0.  0.
         11    1    3    3    0    0  0.12108830258E+03  0.64795098118E+02 -0.62567235299E+02  0.15091534281E+03  0.00000000000E+00 0. -1.
        -11    1    3    3    0    0  0.97416683522E+02  0.16224336445E+03 -0.13409127134E+03  0.23193401774E+03  0.00000000000E+00 0.  1.
         22    1    1    2    0    0 -0.21850498610E+03 -0.22703846257E+03  0.55239898392E+03  0.63595245882E+03  0.00000000000E+00 0. -1.
<mgrwt>
<rscale>  0 0.95467579E+03</rscale>
<asrwt>0</asrwt>
<pdfrwt beam="1">  1        3 0.10573402E+00 0.95467579E+03</pdfrwt>
<pdfrwt beam="2">  1       -3 0.51004719E-01 0.95467579E+03</pdfrwt>
<totfact> 0.76621028E+00</totfact>
</mgrwt>
</event>
<event>
 6    1  0.8968082E-007  0.1695625E+04  0.7818608E-02  0.8763863E-01
          2   -1    0    0  501    0  0.00000000000E+00  0.00000000000E+00  0.12339304709E+04  0.12339304709E+04  0.00000000000E+00 0. -1.
         -2   -1    0    0    0  501 -0.00000000000E+00 -0.00000000000E+00 -0.58251779499E+03  0.58251779499E+03  0.00000000000E+00 0.  1.
         23    2    1    2    0    0  0.29709965389E+03  0.44459069970E+03  0.10281893630E+04  0.11623154303E+04  0.88739499316E+02 0.  0.
         11    1    3    3    0    0  0.77542925836E+02  0.15949890797E+03  0.41560901381E+03  0.45186686021E+03  0.00000000000E+00 0. -1.
        -11    1    3    3    0    0  0.21955672805E+03  0.28509179173E+03  0.61258034921E+03  0.71044857012E+03  0.00000000000E+00 0.  1.
         22    1    1    2    0    0 -0.29709965389E+03 -0.44459069970E+03 -0.37677668711E+03  0.65413283556E+03  0.00000000000E+00 0.  1.
<mgrwt>
<rscale>  0 0.16956255E+04</rscale>
<asrwt>0</asrwt>
<pdfrwt beam="1">  1        2 0.18983546E+00 0.16956255E+04</pdfrwt>
<pdfrwt beam="2">  1       -2 0.89618123E-01 0.16956255E+04</pdfrwt>
<totfact> 0.18369041E+01</totfact>
</mgrwt>
</event>
<event>
 6    1  0.8968082E-007  0.1539049E+04  0.7818608E-02  0.8858893E-01
          1   -1    0    0  501    0  0.00000000000E+00  0.00000000000E+00  0.16799015206E+04  0.16799015206E+04  0.00000000000E+00 0. -1.
         -1   -1    0    0    0  501 -0.00000000000E+00 -0.00000000000E+00 -0.35250155956E+03  0.35250155956E+03  0.00000000000E+00 0.  1.
         23    2    1    2    0    0 -0.34274503688E+03  0.32138029608E+03 -0.13450365577E+03  0.49685052819E+03  0.89497256568E+02 0.  0.
         13    1    3    3    0    0 -0.24611401948E+03  0.28086653920E+03 -0.10870882610E+03  0.38894181094E+03  0.00000000000E+00 0.  1.
        -13    1    3    3    0    0 -0.96631017398E+02  0.40513756877E+02 -0.25794829671E+02  0.10790871724E+03  0.00000000000E+00 0. -1.
         22    1    1    2    0    0  0.34274503688E+03 -0.32138029608E+03  0.14619036168E+04  0.15355525519E+04  0.00000000000E+00 0. -1.
<mgrwt>
<rscale>  0 0.15390489E+04</rscale>
<asrwt>0</asrwt>
<pdfrwt beam="1">  1        1 0.25844638E+00 0.15390489E+04</pdfrwt>
<pdfrwt beam="2">  1       -1 0.54231010E-01 0.15390489E+04</pdfrwt>
<totfact> 0.16287762E+01</totfact>
</mgrwt>
</event>
<event>
 6    1  0.8968082E-007  0.1273954E+04  0.7818608E-02  0.9050479E-01
         -1   -1    0    0    0  501 -0.00000000000E+00  0.00000000000E+00  0.23426477247E+03  0.23426477247E+03  0.00000000000E+00 0.  1.
          1   -1    0    0  501    0  0.00000000000E+00 -0.00000000000E+00 -0.17319709183E+04  0.17319709183E+04  0.00000000000E+00 0. -1.
         23    2    1    2    0    0 -0.55397719646E+03  0.26634654863E+03 -0.51088748132E+03  0.80363417057E+03  0.83610067443E+02 0.  0.
         13    1    3    3    0    0 -0.46583090156E+03  0.25594697328E+03 -0.44191903374E+03  0.69123057974E+03  0.00000000000E+00 0.  1.
        -13    1    3    3    0    0 -0.88146294895E+02  0.10399575356E+02 -0.68968447584E+02  0.11240359084E+03  0.00000000000E+00 0. -1.
         22    1    1    2    0    0  0.55397719646E+03 -0.26634654863E+03 -0.98681866454E+03  0.11626015202E+04  0.00000000000E+00 0.  1.
<mgrwt>
<rscale>  0 0.12739541E+04</rscale>
<asrwt>0</asrwt>
<pdfrwt beam="1">  1        1 0.26645706E+00 0.12739541E+04</pdfrwt>
<pdfrwt beam="2">  1       -1 0.36040735E-01 0.12739541E+04</pdfrwt>
<totfact> 0.32855722E+01</totfact>
</mgrwt>
</event>
<event>
 6    1  0.8968082E-007  0.3440900E+04  0.7818608E-02  0.8127940E-01
         -2   -1    0    0    0  501 -0.00000000000E+00  0.00000000000E+00  0.12147359516E+04  0.12147359516E+04  0.00000000000E+00 0.  1.
          2   -1    0    0  501    0  0.00000000000E+00 -0.00000000000E+00 -0.24367011476E+04  0.24367011476E+04  0.00000000000E+00 0. -1.
         23    2    1    2    0    0 -0.91344273048E+03  0.51667585681E+03 -0.20565760441E+04  0.23105766178E+04  0.89037737113E+02 0.  0.
         13    1    3    3    0    0 -0.40561091482E+03  0.27970909445E+03 -0.97895533708E+03  0.10959520718E+04  0.00000000000E+00 0. -1.
        -13    1    3    3    0    0 -0.50783181567E+03  0.23696676235E+03 -0.10776207071E+04  0.12146245460E+04  0.00000000000E+00 0.  1.
         22    1    1    2    0    0  0.91344273048E+03 -0.51667585681E+03  0.83461084811E+03  0.13408604814E+04  0.00000000000E+00 0.  1.
<mgrwt>
<rscale>  0 0.34409002E+04</rscale>
<asrwt>0</asrwt>
<pdfrwt beam="1">  1        2 0.37487710E+00 0.34409002E+04</pdfrwt>
<pdfrwt beam="2">  1       -2 0.18688246E+00 0.34409002E+04</pdfrwt>
<totfact> 0.50867178E-01</totfact>
</mgrwt>
</event>
<event>
 6    1  0.8968082E-007  0.4140023E+04  0.7818608E-02  0.7976880E-01
         -1   -1    0    0    0  501 -0.00000000000E+00  0.00000000000E+00  0.18532206568E+04  0.18532206568E+04  0.00000000000E+00 0.  1.
          1   -1    0    0  501    0  0.00000000000E+00 -0.00000000000E+00 -0.23121631105E+04  0.23121631105E+04  0.00000000000E+00 0. -1.
         23    2    1    2    0    0  0.77275161750E+03 -0.66919113745E+03 -0.20394497308E+04  0.22831071953E+04  0.90892354231E+02 0.  0.
         11    1    3    3    0    0  0.15997444022E+03 -0.18845480940E+03 -0.47132120809E+03  0.53221303809E+03  0.00000000000E+00 0. -1.
        -11    1    3    3    0    0  0.61277717728E+03 -0.48073632805E+03 -0.15681285227E+04  0.17508941572E+04  0.00000000000E+00 0.  1.
         22    1    1    2    0    0 -0.77275161750E+03  0.66919113745E+03  0.15805072771E+04  0.18822765721E+04  0.00000000000E+00 0.  1.
<mgrwt>
<rscale>  0 0.41400234E+04</rscale>
<asrwt>0</asrwt>
<pdfrwt beam="1">  1        1 0.35571740E+00 0.41400234E+04</pdfrwt>
<pdfrwt beam="2">  1       -1 0.28511087E+00 0.41400234E+04</pdfrwt>
<totfact> 0.58264965E-02</totfact>
</mgrwt>
</event>
<event>
 6    1  0.8968082E-007  0.1271186E+04  0.7818608E-02  0.9052732E-01
         -1   -1    0    0    0  501 -0.00000000000E+00  0.00000000000E+00  0.65961364961E+03  0.65961364961E+03  0.00000000000E+00 0.  1.
          1   -1    0    0  501    0  0.00000000000E+00 -0.00000000000E+00 -0.61244745326E+03  0.61244745326E+03  0.00000000000E+00 0. -1.
         23    2    1    2    0    0 -0.29857764359E+03  0.15856609031E+03  0.55857310005E+03  0.65901229944E+03  0.89451039449E+02 0.  0.
         11    1    3    3    0    0 -0.10811020215E+03  0.34928246638E+02  0.26131752493E+03  0.28494674425E+03  0.00000000000E+00 0.  1.
        -11    1    3    3    0    0 -0.19046744144E+03  0.12363784367E+03  0.29725557512E+03  0.37406555519E+03  0.00000000000E+00 0. -1.
         22    1    1    2    0    0  0.29857764359E+03 -0.15856609031E+03 -0.51140690369E+03  0.61304880344E+03  0.00000000000E+00 0. -1.
<mgrwt>
<rscale>  0 0.12711864E+04</rscale>
<asrwt>0</asrwt>
<pdfrwt beam="1">  1        1 0.94222685E-01 0.12711864E+04</pdfrwt>
<pdfrwt beam="2">  1       -1 0.10147902E+00 0.12711864E+04</pdfrwt>
<totfact> 0.30176043E+01</totfact>
</mgrwt>
</event>
<event>
 6    1  0.8968082E-007  0.1900712E+04  0.7818608E-02  0.8654502E-01
         -2   -1    0    0    0  501 -0.00000000000E+00  0.00000000000E+00  0.14273209950E+04  0.14273209950E+04  0.00000000000E+00 0.  1.
          2   -1    0    0  501    0  0.00000000000E+00 -0.00000000000E+00 -0.63277772487E+03  0.63277772487E+03  0.00000000000E+00 0. -1.
         23    2    1    2    0    0 -0.26548850180E+03  0.89152395952E+03  0.19985015197E+03  0.95603394833E+03  0.93604017660E+02 0.  0.
         11    1    3    3    0    0 -0.22460691749E+03  0.79791133304E+03  0.20451255618E+03  0.85377757550E+03  0.00000000000E+00 0. -1.
        -11    1    3    3    0    0 -0.40881584310E+02  0.93612626478E+02 -0.46624042065E+01  0.10225637283E+03  0.00000000000E+00 0.  1.
         22    1    1    2    0    0  0.26548850180E+03 -0.89152395952E+03  0.59469311816E+03  0.11040647715E+04  0.00000000000E+00 0.  1.
<mgrwt>
<rscale>  0 0.19007124E+04</rscale>
<asrwt>0</asrwt>
<pdfrwt beam="1">  1        2 0.97350420E-01 0.19007124E+04</pdfrwt>
<pdfrwt beam="2">  1       -2 0.21958784E+00 0.19007124E+04</pdfrwt>
<totfact> 0.43253035E+00</totfact>
</mgrwt>
</event>
<event>
 6    1  0.8968082E-007  0.2029733E+04  0.7818608E-02  0.8592845E-01
          1   -1    0    0  501    0  0.00000000000E+00  0.00000000000E+00  0.31899688960E+04  0.31899688960E+04  0.00000000000E+00 0. -1.
         -1   -1    0    0    0  501 -0.00000000000E+00 -0.00000000000E+00 -0.32287259518E+03  0.32287259518E+03  0.00000000000E+00 0.  1.
         23    2    1    2    0    0  0.57310011980E+03  0.58236534128E+03  0.40000841971E+03  0.91397332385E+03  0.88019104897E+02 0.  0.
         13    1    3    3    0    0  0.29130560778E+03  0.23527555227E+03  0.17085745279E+03  0.41158937280E+03  0.00000000000E+00 0. -1.
        -13    1    3    3    0    0  0.28179451202E+03  0.34708978901E+03  0.22915096691E+03  0.50238395105E+03  0.00000000000E+00 0.  1.
         22    1    1    2    0    0 -0.57310011980E+03 -0.58236534128E+03  0.24670878811E+04  0.25988681673E+04  0.00000000000E+00 0. -1.
<mgrwt>
<rscale>  0 0.20297325E+04</rscale>
<asrwt>0</asrwt>
<pdfrwt beam="1">  1        1 0.49076442E+00 0.20297325E+04</pdfrwt>
<pdfrwt beam="2">  1       -1 0.49672709E-01 0.20297325E+04</pdfrwt>
<totfact> 0.16306414E+00</totfact>
</mgrwt>
</event>
<event>
 6    1  0.8968082E-007  0.1913461E+04  0.7818608E-02  0.8648185E-01
          2   -1    0    0  501    0  0.00000000000E+00  0.00000000000E+00  0.70604909681E+03  0.70604909681E+03  0.00000000000E+00 0. -1.
         -2   -1    0    0    0  501 -0.00000000000E+00 -0.00000000000E+00 -0.12964161463E+04  0.12964161463E+04  0.00000000000E+00 0.  1.
         23    2    1    2    0    0 -0.71360482088E+03  0.59386359011E+03 -0.61790483048E+02  0.93414928302E+03  0.83132515503E+02 0.  0.
         11    1    3    3    0    0 -0.53576350400E+03  0.49003397469E+03 -0.42389651004E+02  0.72730510179E+03  0.00000000000E+00 0.  1.
        -11    1    3    3    0    0 -0.17784131688E+03  0.10382961542E+03 -0.19400832044E+02  0.20684418124E+03  0.00000000000E+00 0. -1.
         22    1    1    2    0    0  0.71360482088E+03 -0.59386359011E+03 -0.52857656648E+03  0.10683159601E+04  0.00000000000E+00 0. -1.
<mgrwt>
<rscale>  0 0.19134612E+04</rscale>
<asrwt>0</asrwt>
<pdfrwt beam="1">  1        2 0.10862294E+00 0.19134612E+04</pdfrwt>
<pdfrwt beam="2">  1       -2 0.19944864E+00 0.19134612E+04</pdfrwt>
<totfact> 0.50816626E+00</totfact>
</mgrwt>
</event>
<event>
 6    1  0.8968082E-007  0.2942097E+04  0.7818608E-02  0.8260461E-01
          1   -1    0    0  501    0  0.00000000000E+00  0.00000000000E+00  0.11282382739E+04  0.11282382739E+04  0.00000000000E+00 0. -1.
         -1   -1    0    0    0  501 -0.00000000000E+00 -0.00000000000E+00 -0.19180205795E+04  0.19180205795E+04  0.00000000000E+00 0.  1.
         23    2    1    2    0    0 -0.75584407412E+03  0.83573746814E+03 -0.13720989959E+04  0.17778543012E+04  0.91394102253E+02 0.  0.
         13    1    3    3    0    0 -0.24823646320E+03  0.22597900823E+03 -0.44985686575E+03  0.56130121458E+03  0.00000000000E+00 0.  1.
        -13    1    3    3    0    0 -0.50760761092E+03  0.60975845992E+03 -0.92224213013E+03  0.12165530867E+04  0.00000000000E+00 0. -1.
         22    1    1    2    0    0  0.75584407412E+03 -0.83573746814E+03  0.58231669028E+03  0.12684045521E+04  0.00000000000E+00 0. -1.
<mgrwt>
<rscale>  0 0.29420974E+04</rscale>
<asrwt>0</asrwt>
<pdfrwt beam="1">  1        1 0.17357512E+00 0.29420974E+04</pdfrwt>
<pdfrwt beam="2">  1       -1 0.29508009E+00 0.29420974E+04</pdfrwt>
<totfact> 0.36701072E-01</totfact>
</mgrwt>
</event>
<event>
 6    1  0.8968082E-007  0.1727031E+04  0.7818608E-02  0.8746096E-01
          1   -1    0    0  501    0  0.00000000000E+00  0.00000000000E+00  0.34949929783E+04  0.34949929783E+04  0.00000000000E+00 0. -1.
         -1   -1    0    0    0  501 -0.00000000000E+00 -0.00000000000E+00 -0.21335069363E+03  0.21335069363E+03  0.00000000000E+00 0.  1.
         23    2    1    2    0    0  0.50442945142E+03  0.43647701087E+03  0.28147392095E+04  0.28941202787E+04  0.90631769357E+02 0.  0.
         11    1    3    3    0    0  0.30242874227E+03  0.22900303638E+03  0.17550750334E+04  0.17956040509E+04  0.00000000000E+00 0. -1.
        -11    1    3    3    0    0  0.20200070915E+03  0.20747397448E+03  0.10596641762E+04  0.10985162278E+04  0.00000000000E+00 0.  1.
         22    1    1    2    0    0 -0.50442945142E+03 -0.43647701087E+03  0.46690307518E+03  0.81422339323E+03  0.00000000000E+00 0.  1.
<mgrwt>
<rscale>  0 0.17270312E+04</rscale>
<asrwt>0</asrwt>
<pdfrwt beam="1">  1        1 0.53769119E+00 0.17270312E+04</pdfrwt>
<pdfrwt beam="2">  1       -1 0.32823186E-01 0.17270312E+04</pdfrwt>
<totfact> 0.20996834E+00</totfact>
</mgrwt>
</event>
<event>
 6    1  0.8968082E-007  0.3568294E+04  0.7818608E-02  0.8097793E-01
         -1   -1    0    0    0  501 -0.00000000000E+00  0.00000000000E+00  0.14894549447E+04  0.14894549447E+04  0.00000000000E+00 0.  1.
          1   -1    0    0  501    0  0.00000000000E+00 -0.00000000000E+00 -0.21371445304E+04  0.21371445304E+04  0.00000000000E+00 0. -1.
         23    2    1    2    0    0 -0.21263799615E+03 -0.16998951498E+04 -0.82597903891E+03  0.19042041758E+04  0.94306588339E+02 0.  0.
         11    1    3    3    0    0 -0.45610700283E+02 -0.53146032010E+03 -0.30013153428E+03  0.61205338467E+03  0.00000000000E+00 0. -1.
        -11    1    3    3    0    0 -0.16702729587E+03 -0.11684348297E+04 -0.52584750463E+03  0.12921507911E+04  0.00000000000E+00 0.  1.
         22    1    1    2    0    0  0.21263799615E+03  0.16998951498E+04  0.17828945325E+03  0.17223952993E+04  0.00000000000E+00 0.  1.
<mgrwt>
<rscale>  0 0.35682940E+04</rscale>
<asrwt>0</asrwt>
<pdfrwt beam="1">  1        1 0.32879147E+00 0.35682940E+04</pdfrwt>
<pdfrwt beam="2">  1       -1 0.22914691E+00 0.35682940E+04</pdfrwt>
<totfact> 0.18653584E-01</totfact>
</mgrwt>
</event>
<event>
 6    1  0.8968082E-007  0.2547399E+04  0.7818608E-02  0.8386291E-01
          1   -1    0    0  501    0  0.00000000000E+00  0.00000000000E+00  0.11021856234E+04  0.11021856234E+04  0.00000000000E+00 0. -1.
         -1   -1    0    0    0  501 -0.00000000000E+00 -0.00000000000E+00 -0.14719034010E+04  0.14719034010E+04  0.00000000000E+00 0.  1.
         23    2    1    2    0    0  0.23857264422E+03  0.11365627453E+04  0.33935518700E+03  0.12133994015E+04  0.92110715665E+02 0.  0.
         11    1    3    3    0    0  0.21124176113E+03  0.10900190932E+04  0.31453859296E+03  0.11539927346E+04  0.00000000000E+00 0. -1.
        -11    1    3    3    0    0  0.27330883096E+02  0.46543652164E+02  0.24816594042E+02  0.59406666860E+02  0.00000000000E+00 0.  1.
         22    1    1    2    0    0 -0.23857264422E+03 -0.11365627453E+04 -0.70907296461E+03  0.13606896229E+04  0.00000000000E+00 0.  1.
<mgrwt>
<rscale>  0 0.25473993E+04</rscale>
<asrwt>0</asrwt>
<pdfrwt beam="1">  1        1 0.16956702E+00 0.25473993E+04</pdfrwt>
<pdfrwt beam="2">  1       -1 0.22644668E+00 0.25473993E+04</pdfrwt>
<totfact> 0.11137500E+00</totfact>
</mgrwt>
</event>
<event>
 6    1  0.8968082E-007  0.8171288E+03  0.7818608E-02  0.9535550E-01
          2   -1    0    0  501    0  0.00000000000E+00  0.00000000000E+00  0.46328752166E+03  0.46328752166E+03  0.00000000000E+00 0. -1.
         -2   -1    0    0    0  501 -0.00000000000E+00 -0.00000000000E+00 -0.36030513897E+03  0.36030513897E+03  0.00000000000E+00 0.  1.
         23    2    1    2    0    0 -0.52794582549E+02 -0.62561304010E+02 -0.34610304035E+03  0.36710728092E+03  0.90990419617E+02 0.  0.
         11    1    3    3    0    0 -0.59725433553E+02 -0.11048266866E+02 -0.25581550681E+03  0.26292730010E+03  0.00000000000E+00 0. -1.
        -11    1    3    3    0    0  0.69308510043E+01 -0.51513037144E+02 -0.90287533532E+02  0.10417998082E+03  0.00000000000E+00 0.  1.
         22    1    1    2    0    0  0.52794582549E+02  0.62561304010E+02  0.44908542304E+03  0.45648537971E+03  0.00000000000E+00 0. -1.
<mgrwt>
<rscale>  0 0.81712881E+03</rscale>
<asrwt>0</asrwt>
<pdfrwt beam="1">  1        2 0.71275004E-01 0.81712881E+03</pdfrwt>
<pdfrwt beam="2">  1       -2 0.55431560E-01 0.81712881E+03</pdfrwt>
<totfact> 0.20716166E+02</totfact>
</mgrwt>
</event>
<event>
 6    1  0.8968082E-007  0.1807696E+04  0.7818608E-02  0.8702218E-01
         -1   -1    0    0    0  501 -0.00000000000E+00  0.00000000000E+00  0.95045244451E+03  0.95045244451E+03  0.00000000000E+00 0.  1.
          1   -1    0    0  501    0  0.00000000000E+00 -0.00000000000E+00 -0.85952872600E+03  0.85952872600E+03  0.00000000000E+00 0. -1.
         23    2    1    2    0    0  0.32262563064E+03 -0.65504111327E+03  0.57504996048E+03  0.93388507088E+03  0.91064323156E+02 0.  0.
         11    1    3    3    0    0  0.18392302401E+03 -0.45953723252E+03  0.36260180827E+03  0.61358146826E+03  0.00000000000E+00 0. -1.
        -11    1    3    3    0    0  0.13870260664E+03 -0.19550388074E+03  0.21244815221E+03  0.32030360262E+03  0.00000000000E+00 0.  1.
         22    1    1    2    0    0 -0.32262563064E+03  0.65504111327E+03 -0.48412624198E+03  0.87609609963E+03  0.00000000000E+00 0.  1.
<mgrwt>
<rscale>  0 0.18076960E+04</rscale>
<asrwt>0</asrwt>
<pdfrwt beam="1">  1        1 0.13223519E+00 0.18076960E+04</pdfrwt>
<pdfrwt beam="2">  1       -1 0.14622345E+00 0.18076960E+04</pdfrwt>
<totfact> 0.69276685E+00</totfact>
</mgrwt>
</event>
<event>
 6    1  0.8968082E-007  0.2729423E+04  0.7818608E-02  0.8325521E-01
         -1   -1    0    0    0  501 -0.00000000000E+00  0.00000000000E+00  0.20379938823E+04  0.20379938823E+04  0.00000000000E+00 0.  1.
          1   -1    0    0  501    0  0.00000000000E+00 -0.00000000000E+00 -0.91385796333E+03  0.91385796333E+03  0.00000000000E+00 0. -1.
         23    2    1    2    0    0 -0.48618403476E+03 -0.69922642463E+03 -0.58913811118E+03  0.10385822852E+04  0.79227145028E+02 0.  0.
         11    1    3    3    0    0 -0.31872500361E+03 -0.39250657077E+03 -0.36059581355E+03  0.62102848306E+03  0.00000000000E+00 0. -1.
        -11    1    3    3    0    0 -0.16745903115E+03 -0.30671985386E+03 -0.22854229763E+03  0.41755380213E+03  0.00000000000E+00 0.  1.
         22    1    1    2    0    0  0.48618403476E+03  0.69922642463E+03  0.17132740301E+04  0.19132695604E+04  0.00000000000E+00 0.  1.
<mgrwt>
<rscale>  0 0.27294226E+04</rscale>
<asrwt>0</asrwt>
<pdfrwt beam="1">  1        1 0.14059353E+00 0.27294226E+04</pdfrwt>
<pdfrwt beam="2">  1       -1 0.31353752E+00 0.27294226E+04</pdfrwt>
<totfact> 0.41637795E-01</totfact>
</mgrwt>
</event>
<event>
 6    1  0.8968082E-007  0.2454609E+04  0.7818608E-02  0.8419337E-01
         -1   -1    0    0    0  501 -0.00000000000E+00  0.00000000000E+00  0.16362272371E+04  0.16362272371E+04  0.00000000000E+00 0.  1.
          1   -1    0    0  501    0  0.00000000000E+00 -0.00000000000E+00 -0.92057879032E+03  0.92057879032E+03  0.00000000000E+00 0. -1.
         23    2    1    2    0    0 -0.47543015480E+03  0.72042444646E+03  0.12647496184E+04  0.15337921899E+04  0.88778766340E+02 0.  0.
         13    1    3    3    0    0 -0.31408043510E+03  0.53907306706E+03  0.94415546915E+03  0.11316694929E+04  0.00000000000E+00 0. -1.
        -13    1    3    3    0    0 -0.16134971970E+03  0.18135137940E+03  0.32059414925E+03  0.40212269694E+03  0.00000000000E+00 0.  1.
         22    1    1    2    0    0  0.47543015480E+03 -0.72042444646E+03 -0.54910117162E+03  0.10230138375E+04  0.00000000000E+00 0. -1.
<mgrwt>
<rscale>  0 0.24546088E+04</rscale>
<asrwt>0</asrwt>
<pdfrwt beam="1">  1        1 0.14162751E+00 0.24546088E+04</pdfrwt>
<pdfrwt beam="2">  1       -1 0.25172727E+00 0.24546088E+04</pdfrwt>
<totfact> 0.10605694E+00</totfact>
</mgrwt>
</event>
<event>
 6    1  0.8968082E-007  0.3031425E+04  0.7818608E-02  0.8234814E-01
         -2   -1    0    0    0  501 -0.00000000000E+00  0.00000000000E+00  0.74220856324E+03  0.74220856324E+03  0.00000000000E+00 0.  1.
          2   -1    0    0  501    0  0.00000000000E+00 -0.00000000000E+00 -0.30953362183E+04  0.30953362183E+04  0.00000000000E+00 0. -1.
         23    2    1    2    0    0  0.10014396153E+04  0.66350067864E+03 -0.10401764090E+02  0.12047745573E+04  0.90879500314E+02 0.  0.
         13    1    3    3    0    0  0.35684028049E+03  0.18689309945E+03  0.80273115713E+01  0.40290005477E+03  0.00000000000E+00 0.  1.
        -13    1    3    3    0    0  0.64459933477E+03  0.47660757919E+03 -0.18429075662E+02  0.80187450250E+03  0.00000000000E+00 0. -1.
         22    1    1    2    0    0 -0.10014396153E+04 -0.66350067864E+03 -0.23427258909E+04  0.26327702242E+04  0.00000000000E+00 0. -1.
<mgrwt>
<rscale>  0 0.30314254E+04</rscale>
<asrwt>0</asrwt>
<pdfrwt beam="1">  1        2 0.47620557E+00 0.30314254E+04</pdfrwt>
<pdfrwt beam="2">  1       -2 0.11418593E+00 0.30314254E+04</pdfrwt>
<totfact> 0.77564898E-01</totfact>
</mgrwt>
</event>
<event>
 6    1  0.8968082E-007  0.2183114E+04  0.7818608E-02  0.8525489E-01
         -1   -1    0    0    0  501 -0.00000000000E+00  0.00000000000E+00  0.83648758097E+03  0.83648758097E+03  0.00000000000E+00 0.  1.
          1   -1    0    0  501    0  0.00000000000E+00 -0.00000000000E+00 -0.14244044717E+04  0.14244044717E+04  0.00000000000E+00 0. -1.
         23    2    1    2    0    0 -0.57271898040E+03  0.30317884154E+03  0.61296711405E+03  0.89632368376E+03  0.87994446971E+02 0.  0.
         13    1    3    3    0    0 -0.49400834542E+03  0.22808952049E+03  0.52918866431E+03  0.75901891751E+03  0.00000000000E+00 0.  1.
        -13    1    3    3    0    0 -0.78710634978E+02  0.75089321054E+02  0.83778449741E+02  0.13730476625E+03  0.00000000000E+00 0. -1.
         22    1    1    2    0    0  0.57271898040E+03 -0.30317884154E+03 -0.12008840048E+04  0.13645683689E+04  0.00000000000E+00 0. -1.
<mgrwt>
<rscale>  0 0.21831140E+04</rscale>
<asrwt>0</asrwt>
<pdfrwt beam="1">  1        1 0.21913915E+00 0.21831140E+04</pdfrwt>
<pdfrwt beam="2">  1       -1 0.12869040E+00 0.21831140E+04</pdfrwt>
<totfact> 0.35086573E+00</totfact>
</mgrwt>
</event>
<event>
 6    1  0.8968082E-007  0.2973976E+04  0.7818608E-02  0.8251201E-01
         -1   -1    0    0    0  501 -0.00000000000E+00  0.00000000000E+00  0.85396181993E+03  0.85396181993E+03  0.00000000000E+00 0.  1.
          1   -1    0    0  501    0  0.00000000000E+00 -0.00000000000E+00 -0.25892651777E+04  0.25892651777E+04  0.00000000000E+00 0. -1.
         23    2    1    2    0    0  0.11795340824E+04 -0.78605218495E+03 -0.13834711450E+04  0.19827597454E+04  0.90360997923E+02 0.  0.
         11    1    3    3    0    0  0.98590271869E+03 -0.69461720399E+03 -0.11636866710E+04  0.16759068885E+04  0.00000000000E+00 0.  1.
        -11    1    3    3    0    0  0.19363136367E+03 -0.91434980966E+02 -0.21978447398E+03  0.30685285683E+03  0.00000000000E+00 0. -1.
         22    1    1    2    0    0 -0.11795340824E+04  0.78605218495E+03 -0.35183221277E+03  0.14604672522E+04  0.00000000000E+00 0.  1.
<mgrwt>
<rscale>  0 0.29739762E+04</rscale>
<asrwt>0</asrwt>
<pdfrwt beam="1">  1        1 0.39834849E+00 0.29739762E+04</pdfrwt>
<pdfrwt beam="2">  1       -1 0.13137874E+00 0.29739762E+04</pdfrwt>
<totfact> 0.49419007E-01</totfact>
</mgrwt>
</event>
<event>
 6    1  0.8968082E-007  0.2146434E+04  0.7818608E-02  0.8541060E-01
          1   -1    0    0  501    0  0.00000000000E+00  0.00000000000E+00  0.11935187383E+04  0.11935187383E+04  0.00000000000E+00 0. -1.
         -1   -1    0    0    0  501 -0.00000000000E+00 -0.00000000000E+00 -0.96504131150E+03  0.96504131150E+03  0.00000000000E+00 0.  1.
         23    2    1    2    0    0  0.23114978956E+03 -0.74387265571E+03 -0.62540455769E+03  0.10027524548E+04  0.87205915962E+02 0.  0.
         13    1    3    3    0    0  0.45484598570E+02 -0.28246115527E+03 -0.24308761655E+03  0.37542608095E+03  0.00000000000E+00 0.  1.
        -13    1    3    3    0    0  0.18566519099E+03 -0.46141150045E+03 -0.38231694114E+03  0.62732637389E+03  0.00000000000E+00 0. -1.
         22    1    1    2    0    0 -0.23114978956E+03  0.74387265571E+03  0.85388198451E+03  0.11558075950E+04  0.00000000000E+00 0. -1.
<mgrwt>
<rscale>  0 0.21464341E+04</rscale>
<asrwt>0</asrwt>
<pdfrwt beam="1">  1        1 0.18361827E+00 0.21464341E+04</pdfrwt>
<pdfrwt beam="2">  1       -1 0.14846789E+00 0.21464341E+04</pdfrwt>
<totfact> 0.35496642E+00</totfact>
</mgrwt>
</event>
<event>
 6    1  0.8968082E-007  0.2171652E+04  0.7818608E-02  0.8530321E-01
          1   -1    0    0  501    0  0.00000000000E+00  0.00000000000E+00  0.83590018293E+03  0.83590018293E+03  0.00000000000E+00 0. -1.
         -1   -1    0    0    0  501 -0.00000000000E+00 -0.00000000000E+00 -0.14104775368E+04  0.14104775368E+04  0.00000000000E+00 0.  1.
         23    2    1    2    0    0  0.20035458339E+01 -0.41335673961E+03 -0.13242570582E+04  0.13902892503E+04  0.91540345914E+02 0.  0.
         11    1    3    3    0    0 -0.29795199809E+02 -0.26604123960E+03 -0.94495393878E+03  0.98214237334E+03  0.00000000000E+00 0.  1.
        -11    1    3    3    0    0  0.31798745643E+02 -0.14731550001E+03 -0.37930311939E+03  0.40814687693E+03  0.00000000000E+00 0. -1.
         22    1    1    2    0    0 -0.20035458339E+01  0.41335673961E+03  0.74967970434E+03  0.85608846942E+03  0.00000000000E+00 0. -1.
<mgrwt>
<rscale>  0 0.21716523E+04</rscale>
<asrwt>0</asrwt>
<pdfrwt beam="1">  1        1 0.12860003E+00 0.21716523E+04</pdfrwt>
<pdfrwt beam="2">  1       -1 0.21699654E+00 0.21716523E+04</pdfrwt>
<totfact> 0.21690343E+00</totfact>
</mgrwt>
</event>
<event>
 6    1  0.8968082E-007  0.1854139E+04  0.7818608E-02  0.8678027E-01
          2   -1    0    0  501    0  0.00000000000E+00  0.00000000000E+00  0.22693643722E+04  0.22693643722E+04  0.00000000000E+00 0. -1.
         -2   -1    0    0    0  501 -0.00000000000E+00 -0.00000000000E+00 -0.37872177728E+03  0.37872177728E+03  0.00000000000E+00 0.  1.
         23    2    1    2    0    0  0.81356549174E+03 -0.39310306313E+03  0.12290589107E+04  0.15282148181E+04  0.91847137811E+02 0.  0.
         13    1    3    3    0    0  0.43849718808E+03 -0.18921023418E+03  0.71776460219E+03  0.86212894675E+03  0.00000000000E+00 0. -1.
        -13    1    3    3    0    0  0.37506830366E+03 -0.20389282895E+03  0.51129430856E+03  0.66608587139E+03  0.00000000000E+00 0.  1.
         22    1    1    2    0    0 -0.81356549174E+03  0.39310306313E+03  0.66158368420E+03  0.11198713314E+04  0.00000000000E+00 0. -1.
<mgrwt>
<rscale>  0 0.18541388E+04</rscale>
<asrwt>0</asrwt>
<pdfrwt beam="1">  1        2 0.34913297E+00 0.18541388E+04</pdfrwt>
<pdfrwt beam="2">  1       -2 0.58264890E-01 0.18541388E+04</pdfrwt>
<totfact> 0.12225692E+01</totfact>
</mgrwt>
</event>
<event>
 6    1  0.8968082E-007  0.3681947E+04  0.7818608E-02  0.8071974E-01
          2   -1    0    0  501    0  0.00000000000E+00  0.00000000000E+00  0.31665538920E+04  0.31665538920E+04  0.00000000000E+00 0. -1.
         -2   -1    0    0    0  501 -0.00000000000E+00 -0.00000000000E+00 -0.10703065932E+04  0.10703065932E+04  0.00000000000E+00 0.  1.
         23    2    1    2    0    0  0.71156839830E+03  0.64000604025E+03  0.28569601746E+04  0.30143133915E+04  0.89030704290E+02 0.  0.
         11    1    3    3    0    0  0.27043200761E+03  0.28927518869E+03  0.12656944803E+04  0.13261961103E+04  0.00000000000E+00 0. -1.
        -11    1    3    3    0    0  0.44113639069E+03  0.35073085156E+03  0.15912656942E+04  0.16881172812E+04  0.00000000000E+00 0.  1.
         22    1    1    2    0    0 -0.71156839830E+03 -0.64000604025E+03 -0.76071287575E+03  0.12225470937E+04  0.00000000000E+00 0.  1.
<mgrwt>
<rscale>  0 0.36819470E+04</rscale>
<asrwt>0</asrwt>
<pdfrwt beam="1">  1        2 0.48716213E+00 0.36819470E+04</pdfrwt>
<pdfrwt beam="2">  1       -2 0.16466255E+00 0.36819470E+04</pdfrwt>
<totfact> 0.25674555E-01</totfact>
</mgrwt>
</event>
<event>
 6    1  0.8968082E-007  0.1202642E+04  0.7818608E-02  0.9110547E-01
         -1   -1    0    0    0  501 -0.00000000000E+00  0.00000000000E+00  0.13442958972E+03  0.13442958972E+03  0.00000000000E+00 0.  1.
          1   -1    0    0  501    0  0.00000000000E+00 -0.00000000000E+00 -0.26897850396E+04  0.26897850396E+04  0.00000000000E+00 0. -1.
         23    2    1    2    0    0  0.29586082107E+03  0.47970990509E+03 -0.17538981782E+04  0.18444243575E+04  0.89928707764E+02 0.  0.
         13    1    3    3    0    0  0.26587750551E+03  0.36907569703E+03 -0.14474287772E+04  0.15172204135E+04  0.00000000000E+00 0.  1.
        -13    1    3    3    0    0  0.29983315560E+02  0.11063420806E+03 -0.30646940095E+03  0.32720394393E+03  0.00000000000E+00 0. -1.
         22    1    1    2    0    0 -0.29586082107E+03 -0.47970990509E+03 -0.80145727172E+03  0.97979027188E+03  0.00000000000E+00 0.  1.
<mgrwt>
<rscale>  0 0.12026416E+04</rscale>
<asrwt>0</asrwt>
<pdfrwt beam="1">  1        1 0.41381306E+00 0.12026416E+04</pdfrwt>
<pdfrwt beam="2">  1       -1 0.20681477E-01 0.12026416E+04</pdfrwt>
<totfact> 0.19256025E+01</totfact>
</mgrwt>
</event>
<event>
 6    1  0.8968082E-007  0.1955344E+04  0.7818608E-02  0.8627788E-01
          2   -1    0    0  501    0  0.00000000000E+00  0.00000000000E+00  0.15410484428E+04  0.15410484428E+04  0.00000000000E+00 0. -1.
         -2   -1    0    0    0  501 -0.00000000000E+00 -0.00000000000E+00 -0.62025476164E+03  0.62025476164E+03  0.00000000000E+00 0.  1.
         23    2    1    2    0    0  0.79023070774E+03 -0.18391435980E+03 -0.13715371690E+03  0.82805838061E+03  0.92630861202E+02 0.  0.
         11    1    3    3    0    0  0.59159995727E+03 -0.12525634457E+03 -0.62636289020E+02  0.60794980550E+03  0.00000000000E+00 0.  1.
        -11    1    3    3    0    0  0.19863075047E+03 -0.58658015231E+02 -0.74517427880E+02  0.22010857512E+03  0.00000000000E+00 0. -1.
         22    1    1    2    0    0 -0.79023070774E+03  0.18391435980E+03  0.10579473981E+04  0.13332448238E+04  0.00000000000E+00 0. -1.
<mgrwt>
<rscale>  0 0.19553441E+04</rscale>
<asrwt>0</asrwt>
<pdfrwt beam="1">  1        2 0.23708437E+00 0.19553441E+04</pdfrwt>
<pdfrwt beam="2">  1       -2 0.95423810E-01 0.19553441E+04</pdfrwt>
<totfact> 0.10350841E+01</totfact>
</mgrwt>
</event>
<event>
 6    1  0.8968082E-007  0.3292467E+04  0.7818608E-02  0.8164815E-01
          2   -1    0    0  501    0  0.00000000000E+00  0.00000000000E+00  0.10282698603E+04  0.10282698603E+04  0.00000000000E+00 0. -1.
         -2   -1    0    0    0  501 -0.00000000000E+00 -0.00000000000E+00 -0.26355776569E+04  0.26355776569E+04  0.00000000000E+00 0.  1.
         23    2    1    2    0    0  0.10090602108E+04  0.86430770175E+03  0.27503187764E+03  0.13598438364E+04  0.91117580277E+02 0.  0.
         13    1    3    3    0    0  0.42678859353E+03  0.36465583540E+03  0.70348521660E+02  0.56574843912E+03  0.00000000000E+00 0. -1.
        -13    1    3    3    0    0  0.58227161722E+03  0.49965186635E+03  0.20468335598E+03  0.79409539728E+03  0.00000000000E+00 0.  1.
         22    1    1    2    0    0 -0.10090602108E+04 -0.86430770175E+03 -0.18823396742E+04  0.23040036808E+04  0.00000000000E+00 0.  1.
<mgrwt>
<rscale>  0 0.32924672E+04</rscale>
<asrwt>0</asrwt>
<pdfrwt beam="1">  1        2 0.15819537E+00 0.32924672E+04</pdfrwt>
<pdfrwt beam="2">  1       -2 0.40547348E+00 0.32924672E+04</pdfrwt>
<totfact> 0.13786088E-01</totfact>
</mgrwt>
</event>
<event>
 6    1  0.8968082E-007  0.2612294E+04  0.7818608E-02  0.8364037E-01
          1   -1    0    0  501    0  0.00000000000E+00  0.00000000000E+00  0.17059246242E+04  0.17059246242E+04  0.00000000000E+00 0. -1.
         -1   -1    0    0    0  501 -0.00000000000E+00 -0.00000000000E+00 -0.10000555551E+04  0.10000555551E+04  0.00000000000E+00 0.  1.
         23    2    1    2    0    0  0.68187955699E+03  0.51732756757E+03  0.13731962095E+04  0.16206631497E+04  0.91069602264E+02 0.  0.
         11    1    3    3    0    0  0.49001813204E+03  0.33690143581E+03  0.10093671306E+04  0.11715128474E+04  0.00000000000E+00 0.  1.
        -11    1    3    3    0    0  0.19186142495E+03  0.18042613175E+03  0.36382907892E+03  0.44915030232E+03  0.00000000000E+00 0. -1.
         22    1    1    2    0    0 -0.68187955699E+03 -0.51732756757E+03 -0.66732714041E+03  0.10853170296E+04  0.00000000000E+00 0.  1.
<mgrwt>
<rscale>  0 0.26122935E+04</rscale>
<asrwt>0</asrwt>
<pdfrwt beam="1">  1        1 0.26244994E+00 0.26122935E+04</pdfrwt>
<pdfrwt beam="2">  1       -1 0.15385470E+00 0.26122935E+04</pdfrwt>
<totfact> 0.13529159E+00</totfact>
</mgrwt>
</event>
<event>
 6    1  0.8968082E-007  0.3110372E+04  0.7818608E-02  0.8212897E-01
          1   -1    0    0  501    0  0.00000000000E+00  0.00000000000E+00  0.43710053326E+03  0.43710053326E+03  0.00000000000E+00 0. -1.
         -1   -1    0    0    0  501 -0.00000000000E+00 -0.00000000000E+00 -0.55332902365E+04  0.55332902365E+04  0.00000000000E+00 0.  1.
         23    2    1    2    0    0 -0.18036758236E+02 -0.14106243013E+04 -0.13000083742E+04  0.19205538684E+04  0.91209344530E+02 0.  0.
         11    1    3    3    0    0 -0.52769204968E+02 -0.89438146349E+03 -0.84424708167E+03  0.12310385559E+04  0.00000000000E+00 0.  1.
        -11    1    3    3    0    0  0.34732446732E+02 -0.51624283784E+03 -0.45576129250E+03  0.68951531253E+03  0.00000000000E+00 0. -1.
         22    1    1    2    0    0  0.18036758236E+02  0.14106243013E+04 -0.37961813291E+04  0.40498369013E+04  0.00000000000E+00 0. -1.
<mgrwt>
<rscale>  0 0.31103724E+04</rscale>
<asrwt>0</asrwt>
<pdfrwt beam="1">  1        1 0.67246241E-01 0.31103724E+04</pdfrwt>
<pdfrwt beam="2">  1       -1 0.85127536E+00 0.31103724E+04</pdfrwt>
<totfact> 0.13035763E-03</totfact>
</mgrwt>
</event>
<event>
 6    1  0.8968082E-007  0.1606576E+04  0.7818608E-02  0.8816518E-01
         -2   -1    0    0    0  501 -0.00000000000E+00  0.00000000000E+00  0.61849643167E+03  0.61849643167E+03  0.00000000000E+00 0.  1.
          2   -1    0    0  501    0  0.00000000000E+00 -0.00000000000E+00 -0.10432912460E+04  0.10432912460E+04  0.00000000000E+00 0. -1.
         23    2    1    2    0    0  0.20346299136E+03 -0.27207723698E+03  0.53683025560E+03  0.64191220152E+03  0.91876762019E+02 0.  0.
         11    1    3    3    0    0  0.16825431765E+03 -0.16744366582E+03  0.41005337904E+03  0.47380446419E+03  0.00000000000E+00 0. -1.
        -11    1    3    3    0    0  0.35208673714E+02 -0.10463357116E+03  0.12677687657E+03  0.16810773733E+03  0.00000000000E+00 0.  1.
         22    1    1    2    0    0 -0.20346299136E+03  0.27207723698E+03 -0.96162506993E+03  0.10198754762E+04  0.00000000000E+00 0. -1.
<mgrwt>
<rscale>  0 0.16065764E+04</rscale>
<asrwt>0</asrwt>
<pdfrwt beam="1">  1        2 0.16050635E+00 0.16065764E+04</pdfrwt>
<pdfrwt beam="2">  1       -2 0.95153297E-01 0.16065764E+04</pdfrwt>
<totfact> 0.21039832E+01</totfact>
</mgrwt>
</event>
<event>
 6    1  0.8968082E-007  0.2187583E+04  0.7818608E-02  0.8523614E-01
          1   -1    0    0  501    0  0.00000000000E+00  0.00000000000E+00  0.12265712388E+04  0.12265712388E+04  0.00000000000E+00 0. -1.
         -1   -1    0    0    0  501 -0.00000000000E+00 -0.00000000000E+00 -0.97538548027E+03  0.97538548027E+03  0.00000000000E+00 0.  1.
         23    2    1    2    0    0  0.87066664103E+03 -0.65048277485E+03  0.23138570768E+03  0.11149515295E+04  0.91593270666E+02 0.  0.
         13    1    3    3    0    0  0.41714287879E+03 -0.36866026792E+03  0.12143555880E+03  0.56979397102E+03  0.00000000000E+00 0. -1.
        -13    1    3    3    0    0  0.45352376224E+03 -0.28182250693E+03  0.10995014888E+03  0.54515755848E+03  0.00000000000E+00 0.  1.
         22    1    1    2    0    0 -0.87066664103E+03  0.65048277485E+03  0.19800050864E+02  0.10870051896E+04  0.00000000000E+00 0.  1.
<mgrwt>
<rscale>  0 0.21875829E+04</rscale>
<asrwt>0</asrwt>
<pdfrwt beam="1">  1        1 0.18870327E+00 0.21875829E+04</pdfrwt>
<pdfrwt beam="2">  1       -1 0.15005931E+00 0.21875829E+04</pdfrwt>
<totfact> 0.32509838E+00</totfact>
</mgrwt>
</event>
<event>
 6    1  0.8968082E-007  0.2696554E+04  0.7818608E-02  0.8336124E-01
         -2   -1    0    0    0  501 -0.00000000000E+00  0.00000000000E+00  0.78833149869E+03  0.78833149869E+03  0.00000000000E+00 0.  1.
          2   -1    0    0  501    0  0.00000000000E+00 -0.00000000000E+00 -0.23059478011E+04  0.23059478011E+04  0.00000000000E+00 0. -1.
         23    2    1    2    0    0  0.11179992987E+04 -0.53488561550E+03 -0.15524321280E+03  0.12525177819E+04  0.93141211424E+02 0.  0.
         13    1    3    3    0    0  0.49129750907E+03 -0.25639569252E+03 -0.11186425487E+03  0.56535440661E+03  0.00000000000E+00 0.  1.
        -13    1    3    3    0    0  0.62670178964E+03 -0.27848992298E+03 -0.43378957929E+02  0.68716337528E+03  0.00000000000E+00 0. -1.
         22    1    1    2    0    0 -0.11179992987E+04  0.53488561550E+03 -0.13623730896E+04  0.18417615179E+04  0.00000000000E+00 0. -1.
<mgrwt>
<rscale>  0 0.26965543E+04</rscale>
<asrwt>0</asrwt>
<pdfrwt beam="1">  1        2 0.35476120E+00 0.26965543E+04</pdfrwt>
<pdfrwt beam="2">  1       -2 0.12128177E+00 0.26965543E+04</pdfrwt>
<totfact> 0.20411546E+00</totfact>
</mgrwt>
</event>
<event>
 6    1  0.8968082E-007  0.1505453E+04  0.7818608E-02  0.8880835E-01
         -2   -1    0    0    0  501 -0.00000000000E+00  0.00000000000E+00  0.29869432210E+03  0.29869432210E+03  0.00000000000E+00 0.  1.
          2   -1    0    0  501    0  0.00000000000E+00 -0.00000000000E+00 -0.18969140232E+04  0.18969140232E+04  0.00000000000E+00 0. -1.
         23    2    1    2    0    0 -0.54903117937E+03 -0.30929837076E+03 -0.13950787844E+04  0.15335154892E+04  0.91237178369E+02 0.  0.
         11    1    3    3    0    0 -0.80913379058E+02 -0.28856078679E+02 -0.26509914093E+03  0.27867041951E+03  0.00000000000E+00 0. -1.
        -11    1    3    3    0    0 -0.46811780032E+03 -0.28044229208E+03 -0.11299796435E+04  0.12548450697E+04  0.00000000000E+00 0.  1.
         22    1    1    2    0    0  0.54903117937E+03  0.30929837076E+03 -0.20314091665E+03  0.66209285610E+03  0.00000000000E+00 0.  1.
<mgrwt>
<rscale>  0 0.15054534E+04</rscale>
<asrwt>0</asrwt>
<pdfrwt beam="1">  1        2 0.29183292E+00 0.15054534E+04</pdfrwt>
<pdfrwt beam="2">  1       -2 0.45952974E-01 0.15054534E+04</pdfrwt>
<totfact> 0.33065204E+01</totfact>
</mgrwt>
</event>
<event>
 6    1  0.8968082E-007  0.1374495E+04  0.7818608E-02  0.8972490E-01
          2   -1    0    0  501    0  0.00000000000E+00  0.00000000000E+00  0.16735953825E+04  0.16735953825E+04  0.00000000000E+00 0. -1.
         -2   -1    0    0    0  501 -0.00000000000E+00 -0.00000000000E+00 -0.28221206664E+03  0.28221206664E+03  0.00000000000E+00 0.  1.
         23    2    1    2    0    0 -0.60502040418E+03  0.31278392306E+03  0.60697316273E+03  0.91697023363E+03  0.92382450089E+02 0.  0.
         11    1    3    3    0    0 -0.21265367677E+03  0.80242712573E+02  0.15682481385E+03  0.27614217607E+03  0.00000000000E+00 0.  1.
        -11    1    3    3    0    0 -0.39236672740E+03  0.23254121049E+03  0.45014834888E+03  0.64082805756E+03  0.00000000000E+00 0. -1.
         22    1    1    2    0    0  0.60502040418E+03 -0.31278392306E+03  0.78441015315E+03  0.10388372155E+04  0.00000000000E+00 0. -1.
<mgrwt>
<rscale>  0 0.13744945E+04</rscale>
<asrwt>0</asrwt>
<pdfrwt beam="1">  1        2 0.25747621E+00 0.13744945E+04</pdfrwt>
<pdfrwt beam="2">  1       -2 0.43417242E-01 0.13744945E+04</pdfrwt>
<totfact> 0.49750254E+01</totfact>
</mgrwt>
</event>
<event>
 6    1  0.8968082E-007  0.2390201E+04  0.7818608E-02  0.8443181E-01
         -2   -1    0    0    0  501 -0.00000000000E+00  0.00000000000E+00  0.17437078300E+04  0.17437078300E+04  0.00000000000E+00 0.  1.
          2   -1    0    0  501    0  0.00000000000E+00 -0.00000000000E+00 -0.81909654079E+03  0.81909654079E+03  0.00000000000E+00 0. -1.
         23    2    1    2    0    0 -0.37856345020E+03 -0.11114423009E+04  0.23425378397E+03  0.12007442550E+04  0.91091473331E+02 0.  0.
         11    1    3    3    0    0 -0.13339424235E+03 -0.51901522755E+03  0.12630532092E+03  0.55056685735E+03  0.00000000000E+00 0.  1.
        -11    1    3    3    0    0 -0.24516920785E+03 -0.59242707333E+03  0.10794846305E+03  0.65017739762E+03  0.00000000000E+00 0. -1.
         22    1    1    2    0    0  0.37856345020E+03  0.11114423009E+04  0.69035750521E+03  0.13620601158E+04  0.00000000000E+00 0. -1.
<mgrwt>
<rscale>  0 0.23902009E+04</rscale>
<asrwt>0</asrwt>
<pdfrwt beam="1">  1        2 0.12601485E+00 0.23902009E+04</pdfrwt>
<pdfrwt beam="2">  1       -2 0.26826274E+00 0.23902009E+04</pdfrwt>
<totfact> 0.14916956E+00</totfact>
</mgrwt>
</event>
<event>
 6    1  0.8968082E-007  0.1605129E+04  0.7818608E-02  0.8817403E-01
          1   -1    0    0  501    0  0.00000000000E+00  0.00000000000E+00  0.12303615833E+04  0.12303615833E+04  0.00000000000E+00 0. -1.
         -1   -1    0    0    0  501 -0.00000000000E+00 -0.00000000000E+00 -0.52351285824E+03  0.52351285824E+03  0.00000000000E+00 0.  1.
         23    2    1    2    0    0 -0.71842358252E+03 -0.22030189180E+03  0.65569067596E+03  0.10006928476E+04  0.82404764658E+02 0.  0.
         11    1    3    3    0    0 -0.28481290047E+03 -0.12976326305E+03  0.27312135534E+03  0.41539399063E+03  0.00000000000E+00 0. -1.
        -11    1    3    3    0    0 -0.43361068205E+03 -0.90538628758E+02  0.38256932062E+03  0.58529885697E+03  0.00000000000E+00 0.  1.
         22    1    1    2    0    0  0.71842358252E+03  0.22030189180E+03  0.51158049075E+02  0.75318159393E+03  0.00000000000E+00 0.  1.
<mgrwt>
<rscale>  0 0.16051294E+04</rscale>
<asrwt>0</asrwt>
<pdfrwt beam="1">  1        1 0.18928640E+00 0.16051294E+04</pdfrwt>
<pdfrwt beam="2">  1       -1 0.80540440E-01 0.16051294E+04</pdfrwt>
<totfact> 0.14976662E+01</totfact>
</mgrwt>
</event>
<event>
 6    1  0.8968082E-007  0.4677893E+04  0.7818608E-02  0.7880212E-01
         -1   -1    0    0    0  501 -0.00000000000E+00  0.00000000000E+00  0.21956820756E+04  0.21956820756E+04  0.00000000000E+00 0.  1.
          1   -1    0    0  501    0  0.00000000000E+00 -0.00000000000E+00 -0.24915586278E+04  0.24915586278E+04  0.00000000000E+00 0. -1.
         23    2    1    2    0    0 -0.37406498244E+01  0.84633740264E+03 -0.23318492320E+04  0.24823629870E+04  0.91127201127E+02 0.  0.
         11    1    3    3    0    0 -0.19163380390E+02  0.69116514816E+03 -0.19879414262E+04  0.21047535750E+04  0.00000000000E+00 0. -1.
        -11    1    3    3    0    0  0.15422730566E+02  0.15517225448E+03 -0.34390780578E+03  0.37760941203E+03  0.00000000000E+00 0.  1.
         22    1    1    2    0    0  0.37406498244E+01 -0.84633740264E+03  0.20359726797E+04  0.22048777164E+04  0.00000000000E+00 0.  1.
<mgrwt>
<rscale>  0 0.46778930E+04</rscale>
<asrwt>0</asrwt>
<pdfrwt beam="1">  1        1 0.38331671E+00 0.46778930E+04</pdfrwt>
<pdfrwt beam="2">  1       -1 0.33779725E+00 0.46778930E+04</pdfrwt>
<totfact> 0.19028898E-02</totfact>
</mgrwt>
</event>
<event>
 6    1  0.8968082E-007  0.7660160E+04  0.7818608E-02  0.7512937E-01
         -1   -1    0    0    0  501 -0.00000000000E+00  0.00000000000E+00  0.48839377521E+04  0.48839377521E+04  0.00000000000E+00 0.  1.
          1   -1    0    0  501    0  0.00000000000E+00 -0.00000000000E+00 -0.30036238289E+04  0.30036238289E+04  0.00000000000E+00 0. -1.
         23    2    1    2    0    0 -0.58924672202E+03 -0.24003976712E+04 -0.20716470032E+04  0.32263261394E+04  0.91314688662E+02 0.  0.
         11    1    3    3    0    0 -0.24870443280E+03 -0.10412563316E+04 -0.95583036078E+03  0.14351586399E+04  0.00000000000E+00 0. -1.
        -11    1    3    3    0    0 -0.34054228921E+03 -0.13591413396E+04 -0.11158166424E+04  0.17911674995E+04  0.00000000000E+00 0.  1.
         22    1    1    2    0    0  0.58924672202E+03  0.24003976712E+04  0.39519609263E+04  0.46612354416E+04  0.00000000000E+00 0.  1.
<mgrwt>
<rscale>  0 0.76601597E+04</rscale>
<asrwt>0</asrwt>
<pdfrwt beam="1">  1        1 0.46209597E+00 0.76601597E+04</pdfrwt>
<pdfrwt beam="2">  1       -1 0.75137504E+00 0.76601597E+04</pdfrwt>
<totfact> 0.45025948E-05</totfact>
</mgrwt>
</event>
<event>
 6    1  0.8968082E-007  0.1802958E+04  0.7818608E-02  0.8704728E-01
          1   -1    0    0  501    0  0.00000000000E+00  0.00000000000E+00  0.22594097835E+04  0.22594097835E+04  0.00000000000E+00 0. -1.
         -1   -1    0    0    0  501 -0.00000000000E+00 -0.00000000000E+00 -0.35967983747E+03  0.35967983747E+03  0.00000000000E+00 0.  1.
         23    2    1    2    0    0 -0.76069492798E+03  0.28140090496E+03  0.15163107619E+04  0.17219533361E+04  0.89898401315E+02 0.  0.
         11    1    3    3    0    0 -0.53107428796E+03  0.18077937355E+03  0.11269507149E+04  0.12588641686E+04  0.00000000000E+00 0. -1.
        -11    1    3    3    0    0 -0.22962064002E+03  0.10062153141E+03  0.38936004698E+03  0.46308916754E+03  0.00000000000E+00 0.  1.
         22    1    1    2    0    0  0.76069492798E+03 -0.28140090496E+03  0.38341918418E+03  0.89713628483E+03  0.00000000000E+00 0.  1.
<mgrwt>
<rscale>  0 0.18029577E+04</rscale>
<asrwt>0</asrwt>
<pdfrwt beam="1">  1        1 0.34760150E+00 0.18029577E+04</pdfrwt>
<pdfrwt beam="2">  1       -1 0.55335361E-01 0.18029577E+04</pdfrwt>
<totfact> 0.61834421E+00</totfact>
</mgrwt>
</event>
<event>
 6    1  0.8968082E-007  0.3439151E+04  0.7818608E-02  0.8128364E-01
         -2   -1    0    0    0  501 -0.00000000000E+00  0.00000000000E+00  0.22671111125E+04  0.22671111125E+04  0.00000000000E+00 0.  1.
          2   -1    0    0  501    0  0.00000000000E+00 -0.00000000000E+00 -0.13042766407E+04  0.13042766407E+04  0.00000000000E+00 0. -1.
         23    2    1    2    0    0 -0.14966674338E+04  0.34725850301E+03 -0.31765250963E+03  0.15713255580E+04  0.86942607980E+02 0.  0.
         13    1    3    3    0    0 -0.19206258328E+03  0.74241217127E+02 -0.36281311431E+02  0.20908402085E+03  0.00000000000E+00 0. -1.
        -13    1    3    3    0    0 -0.13046048505E+04  0.27301728588E+03 -0.28137119820E+03  0.13622415371E+04  0.00000000000E+00 0.  1.
         22    1    1    2    0    0  0.14966674338E+04 -0.34725850301E+03  0.12804869814E+04  0.20000621952E+04  0.00000000000E+00 0.  1.
<mgrwt>
<rscale>  0 0.34391511E+04</rscale>
<asrwt>0</asrwt>
<pdfrwt beam="1">  1        2 0.20065795E+00 0.34391511E+04</pdfrwt>
<pdfrwt beam="2">  1       -2 0.34878632E+00 0.34391511E+04</pdfrwt>
<totfact> 0.21484004E-01</totfact>
</mgrwt>
</event>
<event>
 6    1  0.8968082E-007  0.2890228E+04  0.7818608E-02  0.8275791E-01
         -2   -1    0    0    0  501 -0.00000000000E+00  0.00000000000E+00  0.76623348609E+03  0.76623348609E+03  0.00000000000E+00 0.  1.
          2   -1    0    0  501    0  0.00000000000E+00 -0.00000000000E+00 -0.27254798539E+04  0.27254798539E+04  0.00000000000E+00 0. -1.
         23    2    1    2    0    0 -0.10708894234E+04 -0.85162330506E+03 -0.15367454786E+04  0.20597310035E+04  0.94014518975E+02 0.  0.
         13    1    3    3    0    0 -0.38609214538E+03 -0.33851607892E+03 -0.63444078522E+03  0.81619568141E+03  0.00000000000E+00 0. -1.
        -13    1    3    3    0    0 -0.68479727798E+03 -0.51310722613E+03 -0.90230469342E+03  0.12435353221E+04  0.00000000000E+00 0.  1.
         22    1    1    2    0    0  0.10708894234E+04  0.85162330506E+03 -0.42250088920E+03  0.14319823365E+04  0.00000000000E+00 0.  1.
<mgrwt>
<rscale>  0 0.28902276E+04</rscale>
<asrwt>0</asrwt>
<pdfrwt beam="1">  1        2 0.41930460E+00 0.28902276E+04</pdfrwt>
<pdfrwt beam="2">  1       -2 0.11788207E+00 0.28902276E+04</pdfrwt>
<totfact> 0.12286178E+00</totfact>
</mgrwt>
</event>
<event>
 6    1  0.8968082E-007  0.3694771E+04  0.7818608E-02  0.8069122E-01
         -2   -1    0    0    0  501 -0.00000000000E+00  0.00000000000E+00  0.23463760938E+04  0.23463760938E+04  0.00000000000E+00 0.  1.
          2   -1    0    0  501    0  0.00000000000E+00 -0.00000000000E+00 -0.14545120787E+04  0.14545120787E+04  0.00000000000E+00 0. -1.
         23    2    1    2    0    0  0.74105838147E+03 -0.95063390194E+03  0.18848828928E+04  0.22391715427E+04  0.90737741401E+02 0.  0.
         13    1    3    3    0    0  0.26653633154E+03 -0.36305495026E+03  0.78303114086E+03  0.90332069638E+03  0.00000000000E+00 0. -1.
        -13    1    3    3    0    0  0.47452204993E+03 -0.58757895168E+03  0.11018517520E+04  0.13358508463E+04  0.00000000000E+00 0.  1.
         22    1    1    2    0    0 -0.74105838147E+03  0.95063390194E+03 -0.99301887778E+03  0.15617166298E+04  0.00000000000E+00 0. -1.
<mgrwt>
<rscale>  0 0.36947706E+04</rscale>
<asrwt>0</asrwt>
<pdfrwt beam="1">  1        2 0.22377109E+00 0.36947706E+04</pdfrwt>
<pdfrwt beam="2">  1       -2 0.36098094E+00 0.36947706E+04</pdfrwt>
<totfact> 0.14433986E-01</totfact>
</mgrwt>
</event>
<event>
 6    1  0.8968082E-007  0.2968169E+04  0.7818608E-02  0.8252879E-01
         -1   -1    0    0    0  501 -0.00000000000E+00  0.00000000000E+00  0.87532622039E+03  0.87532622039E+03  0.00000000000E+00 0.  1.
          1   -1    0    0  501    0  0.00000000000E+00 -0.00000000000E+00 -0.25162119315E+04  0.25162119315E+04  0.00000000000E+00 0. -1.
         23    2    1    2    0    0  0.42582821379E+03  0.64012536269E+03 -0.22697181724E+04  0.23983008127E+04  0.95582730050E+02 0.  0.
         13    1    3    3    0    0  0.93347996575E+02  0.79222815008E+02 -0.38244334690E+03  0.40156321604E+03  0.00000000000E+00 0.  1.
        -13    1    3    3    0    0  0.33248021722E+03  0.56090254769E+03 -0.18872748255E+04  0.19967375966E+04  0.00000000000E+00 0. -1.
         22    1    1    2    0    0 -0.42582821379E+03 -0.64012536269E+03  0.62883246129E+03  0.99323733921E+03  0.00000000000E+00 0.  1.
<mgrwt>
<rscale>  0 0.29681686E+04</rscale>
<asrwt>0</asrwt>
<pdfrwt beam="1">  1        1 0.38710952E+00 0.29681686E+04</pdfrwt>
<pdfrwt beam="2">  1       -1 0.13466557E+00 0.29681686E+04</pdfrwt>
<totfact> 0.52201085E-01</totfact>
</mgrwt>
</event>
<event>
 6    1  0.8968082E-007  0.1037017E+04  0.7818608E-02  0.9268852E-01
         -1   -1    0    0    0  501 -0.00000000000E+00  0.00000000000E+00  0.47359806169E+03  0.47359806169E+03  0.00000000000E+00 0.  1.
          1   -1    0    0  501    0  0.00000000000E+00 -0.00000000000E+00 -0.56767777776E+03  0.56767777776E+03  0.00000000000E+00 0. -1.
         23    2    1    2    0    0 -0.26995093533E+03  0.13676946684E+03 -0.46457225897E+03  0.56289929437E+03  0.97205129804E+02 0.  0.
         13    1    3    3    0    0 -0.89067987736E+02  0.13226925099E+02 -0.20057553871E+03  0.21986042099E+03  0.00000000000E+00 0. -1.
        -13    1    3    3    0    0 -0.18088294759E+03  0.12354254174E+03 -0.26399672025E+03  0.34303887338E+03  0.00000000000E+00 0.  1.
         22    1    1    2    0    0  0.26995093533E+03 -0.13676946684E+03  0.37049254289E+03  0.47837654508E+03  0.00000000000E+00 0.  1.
<mgrwt>
<rscale>  0 0.10370171E+04</rscale>
<asrwt>0</asrwt>
<pdfrwt beam="1">  1        1 0.87335043E-01 0.10370171E+04</pdfrwt>
<pdfrwt beam="2">  1       -1 0.72861240E-01 0.10370171E+04</pdfrwt>
<totfact> 0.70497563E+01</totfact>
</mgrwt>
</event>
<event>
 6    1  0.8968082E-007  0.1032381E+04  0.7818608E-02  0.9273726E-01
          1   -1    0    0  501    0  0.00000000000E+00  0.00000000000E+00  0.67841266094E+03  0.67841266094E+03  0.00000000000E+00 0. -1.
         -1   -1    0    0    0  501 -0.00000000000E+00 -0.00000000000E+00 -0.39275923584E+03  0.39275923584E+03  0.00000000000E+00 0.  1.
         23    2    1    2    0    0 -0.47266165775E+02 -0.41257402126E+03 -0.16344754860E+03  0.45949951876E+03  0.10942254405E+03 0.  0.
         11    1    3    3    0    0 -0.20698093110E+02 -0.69483584284E+02 -0.74750927353E+02  0.10413491577E+03  0.00000000000E+00 0.  1.
        -11    1    3    3    0    0 -0.26568072665E+02 -0.34309043698E+03 -0.88696621249E+02  0.35536460298E+03  0.00000000000E+00 0. -1.
         22    1    1    2    0    0  0.47266165775E+02  0.41257402126E+03  0.44910097371E+03  0.61167237802E+03  0.00000000000E+00 0. -1.
<mgrwt>
<rscale>  0 0.10323814E+04</rscale>
<asrwt>0</asrwt>
<pdfrwt beam="1">  1        1 0.10437118E+00 0.10323814E+04</pdfrwt>
<pdfrwt beam="2">  1       -1 0.60424498E-01 0.10323814E+04</pdfrwt>
<totfact> 0.79413770E+01</totfact>
</mgrwt>
</event>
<event>
 6    1  0.8968082E-007  0.2264770E+04  0.7818608E-02  0.8491943E-01
          1   -1    0    0  501    0  0.00000000000E+00  0.00000000000E+00  0.13843126235E+04  0.13843126235E+04  0.00000000000E+00 0. -1.
         -1   -1    0    0    0  501 -0.00000000000E+00 -0.00000000000E+00 -0.92630516345E+03  0.92630516345E+03  0.00000000000E+00 0.  1.
         23    2    1    2    0    0 -0.10064394671E+03  0.11206935559E+04  0.11829963047E+03  0.11352520312E+04  0.93376237187E+02 0.  0.
         11    1    3    3    0    0 -0.60764416394E+02  0.32396742232E+03  0.60712530168E+01  0.32967266362E+03  0.00000000000E+00 0.  1.
        -11    1    3    3    0    0 -0.39879530314E+02  0.79672613355E+03  0.11222837745E+03  0.80557936761E+03  0.00000000000E+00 0. -1.
         22    1    1    2    0    0  0.10064394671E+03 -0.11206935559E+04  0.33970782956E+03  0.11753657557E+04  0.00000000000E+00 0. -1.
<mgrwt>
<rscale>  0 0.22647701E+04</rscale>
<asrwt>0</asrwt>
<pdfrwt beam="1">  1        1 0.21297117E+00 0.22647701E+04</pdfrwt>
<pdfrwt beam="2">  1       -1 0.14250849E+00 0.22647701E+04</pdfrwt>
<totfact> 0.28584049E+00</totfact>
</mgrwt>
</event>
<event>
 6    1  0.8968082E-007  0.2052205E+04  0.7818608E-02  0.8582595E-01
         -1   -1    0    0    0  501 -0.00000000000E+00  0.00000000000E+00  0.55837550963E+03  0.55837550963E+03  0.00000000000E+00 0.  1.
          1   -1    0    0  501    0  0.00000000000E+00 -0.00000000000E+00 -0.18856242005E+04  0.18856242005E+04  0.00000000000E+00 0. -1.
         23    2    1    2    0    0  0.51347690280E+03  0.37091521808E+03 -0.16230062469E+04  0.17449223463E+04  0.96788886702E+02 0.  0.
         11    1    3    3    0    0  0.99266104793E+02  0.12289706422E+03 -0.40578849928E+03  0.43545580040E+03  0.00000000000E+00 0. -1.
        -11    1    3    3    0    0  0.41421079800E+03  0.24801815386E+03 -0.12172177476E+04  0.13094665459E+04  0.00000000000E+00 0.  1.
         22    1    1    2    0    0 -0.51347690280E+03 -0.37091521808E+03  0.29575755598E+03  0.69907736384E+03  0.00000000000E+00 0.  1.
<mgrwt>
<rscale>  0 0.20522050E+04</rscale>
<asrwt>0</asrwt>
<pdfrwt beam="1">  1        1 0.29009603E+00 0.20522050E+04</pdfrwt>
<pdfrwt beam="2">  1       -1 0.85903925E-01 0.20522050E+04</pdfrwt>
<totfact> 0.44021714E+00</totfact>
</mgrwt>
</event>
<event>
 6    1  0.8968082E-007  0.5106489E+04  0.7818608E-02  0.7812287E-01
          2   -1    0    0  501    0  0.00000000000E+00  0.00000000000E+00  0.27868361233E+04  0.27868361233E+04  0.00000000000E+00 0. -1.
         -2   -1    0    0    0  501 -0.00000000000E+00 -0.00000000000E+00 -0.23392326509E+04  0.23392326509E+04  0.00000000000E+00 0.  1.
         23    2    1    2    0    0  0.88078467496E+03 -0.17081461335E+04  0.19100054003E+04  0.27110813506E+04  0.91085693809E+02 0.  0.
         13    1    3    3    0    0  0.82537233186E+03 -0.16176936903E+04  0.18302304296E+04  0.25783552485E+04  0.00000000000E+00 0.  1.
        -13    1    3    3    0    0  0.55412343101E+02 -0.90452443234E+02  0.79774970631E+02  0.13272610216E+03  0.00000000000E+00 0. -1.
         22    1    1    2    0    0 -0.88078467496E+03  0.17081461335E+04 -0.14624019279E+04  0.24149874235E+04  0.00000000000E+00 0.  1.
<mgrwt>
<rscale>  0 0.51064892E+04</rscale>
<asrwt>0</asrwt>
<pdfrwt beam="1">  1        2 0.42874402E+00 0.51064892E+04</pdfrwt>
<pdfrwt beam="2">  1       -2 0.35988195E+00 0.51064892E+04</pdfrwt>
<totfact> 0.22903745E-02</totfact>
</mgrwt>
</event>
<event>
 6    1  0.8968082E-007  0.2342370E+04  0.7818608E-02  0.8461400E-01
         -2   -1    0    0    0  501 -0.00000000000E+00  0.00000000000E+00  0.53658944080E+03  0.53658944080E+03  0.00000000000E+00 0.  1.
          2   -1    0    0  501    0  0.00000000000E+00 -0.00000000000E+00 -0.25562818368E+04  0.25562818368E+04  0.00000000000E+00 0. -1.
         23    2    1    2    0    0 -0.43591764085E+03 -0.90966509875E+03 -0.17925263840E+04  0.20588890831E+04  0.91425585130E+02 0.  0.
         11    1    3    3    0    0 -0.29828077380E+03 -0.64739353111E+03 -0.11817045469E+04  0.13800418256E+04  0.00000000000E+00 0.  1.
        -11    1    3    3    0    0 -0.13763686705E+03 -0.26227156763E+03 -0.61082183710E+03  0.67884725751E+03  0.00000000000E+00 0. -1.
         22    1    1    2    0    0  0.43591764085E+03  0.90966509875E+03 -0.22716601193E+03  0.10339821945E+04  0.00000000000E+00 0.  1.
<mgrwt>
<rscale>  0 0.23423696E+04</rscale>
<asrwt>0</asrwt>
<pdfrwt beam="1">  1        2 0.39327413E+00 0.23423696E+04</pdfrwt>
<pdfrwt beam="2">  1       -2 0.82552220E-01 0.23423696E+04</pdfrwt>
<totfact> 0.37553791E+00</totfact>
</mgrwt>
</event>
<event>
 6    1  0.9711385E-007  0.2091226E+04  0.7818608E-02  0.8565118E-01
          2   -1    0    0  501    0  0.00000000000E+00  0.00000000000E+00  0.80041830712E+03  0.80041830712E+03  0.00000000000E+00 0. -1.
         -2   -1    0    0    0  501 -0.00000000000E+00 -0.00000000000E+00 -0.13659187854E+04  0.13659187854E+04  0.00000000000E+00 0.  1.
         23    2    1    2    0    0 -0.16215975320E+03  0.48382297872E+02 -0.13500744679E+04  0.13637207599E+04  0.91633016704E+02 0.  0.
         11    1    3    3    0    0 -0.85111712316E+02  0.71855820097E+02 -0.73407692364E+03  0.74247975883E+03  0.00000000000E+00 0. -1.
        -11    1    3    3    0    0 -0.77048040882E+02 -0.23473522226E+02 -0.61599754423E+03  0.62124100102E+03  0.00000000000E+00 0.  1.
         22    1    1    2    0    0  0.16215975320E+03 -0.48382297872E+02  0.78457398960E+03  0.80261633267E+03  0.00000000000E+00 0. -1.
<mgrwt>
<rscale>  0 0.20912259E+04</rscale>
<asrwt>0</asrwt>
<pdfrwt beam="1">  1        2 0.12314128E+00 0.20912259E+04</pdfrwt>
<pdfrwt beam="2">  1       -2 0.21014135E+00 0.20912259E+04</pdfrwt>
<totfact> 0.36257338E+00</totfact>
</mgrwt>
</event>
<event>
 6    1  0.8968082E-007  0.1940111E+04  0.7818608E-02  0.8635144E-01
          2   -1    0    0  501    0  0.00000000000E+00  0.00000000000E+00  0.41083717955E+04  0.41083717955E+04  0.00000000000E+00 0. -1.
         -2   -1    0    0    0  501 -0.00000000000E+00 -0.00000000000E+00 -0.22904635590E+03  0.22904635590E+03  0.00000000000E+00 0.  1.
         23    2    1    2    0    0  0.18158971550E+01 -0.24914887932E+03  0.40348868532E+04  0.40436872967E+04  0.94955642547E+02 0.  0.
         13    1    3    3    0    0 -0.38798016126E+02 -0.13186680629E+03  0.17247304879E+04  0.17301992361E+04  0.00000000000E+00 0. -1.
        -13    1    3    3    0    0  0.40613913281E+02 -0.11728207302E+03  0.23101563653E+04  0.23134880607E+04  0.00000000000E+00 0.  1.
         22    1    1    2    0    0 -0.18158971550E+01  0.24914887932E+03 -0.15556141364E+03  0.29373085463E+03  0.00000000000E+00 0.  1.
<mgrwt>
<rscale>  0 0.19401109E+04</rscale>
<asrwt>0</asrwt>
<pdfrwt beam="1">  1        2 0.63205714E+00 0.19401109E+04</pdfrwt>
<pdfrwt beam="2">  1       -2 0.35237904E-01 0.19401109E+04</pdfrwt>
<totfact> 0.19915039E+00</totfact>
</mgrwt>
</event>
<event>
 6    1  0.8968082E-007  0.1718894E+04  0.7818608E-02  0.8750661E-01
         -2   -1    0    0    0  501 -0.00000000000E+00  0.00000000000E+00  0.75197987619E+03  0.75197987619E+03  0.00000000000E+00 0.  1.
          2   -1    0    0  501    0  0.00000000000E+00 -0.00000000000E+00 -0.98227296929E+03  0.98227296929E+03  0.00000000000E+00 0. -1.
         23    2    1    2    0    0 -0.26753696092E+03  0.78303008609E+03  0.10931442232E+03  0.83980027228E+03  0.92750812468E+02 0.  0.
         13    1    3    3    0    0 -0.21301414542E+03  0.51486231850E+03  0.47187779945E+02  0.55918236716E+03  0.00000000000E+00 0.  1.
        -13    1    3    3    0    0 -0.54522815499E+02  0.26816776759E+03  0.62126642374E+02  0.28061790512E+03  0.00000000000E+00 0. -1.
         22    1    1    2    0    0  0.26753696092E+03 -0.78303008609E+03 -0.33960751542E+03  0.89445257320E+03  0.00000000000E+00 0. -1.
<mgrwt>
<rscale>  0 0.17188944E+04</rscale>
<asrwt>0</asrwt>
<pdfrwt beam="1">  1        2 0.15111892E+00 0.17188944E+04</pdfrwt>
<pdfrwt beam="2">  1       -2 0.11568921E+00 0.17188944E+04</pdfrwt>
<totfact> 0.14280128E+01</totfact>
</mgrwt>
</event>
<event>
 6    1  0.8968082E-007  0.7211522E+04  0.7818608E-02  0.7556006E-01
          1   -1    0    0  501    0  0.00000000000E+00  0.00000000000E+00  0.35269981185E+04  0.35269981185E+04  0.00000000000E+00 0. -1.
         -1   -1    0    0    0  501 -0.00000000000E+00 -0.00000000000E+00 -0.36862830122E+04  0.36862830122E+04  0.00000000000E+00 0.  1.
         23    2    1    2    0    0 -0.14427400080E+04  0.18862339906E+04 -0.27928871772E+04  0.36671228734E+04  0.90520641540E+02 0.  0.
         11    1    3    3    0    0 -0.90986043009E+03  0.11714384122E+04 -0.18093807321E+04  0.23396522369E+04  0.00000000000E+00 0.  1.
        -11    1    3    3    0    0 -0.53287957790E+03  0.71479557838E+03 -0.98350644506E+03  0.13274706365E+04  0.00000000000E+00 0. -1.
         22    1    1    2    0    0  0.14427400080E+04 -0.18862339906E+04  0.26336022835E+04  0.35461582572E+04  0.00000000000E+00 0. -1.
<mgrwt>
<rscale>  0 0.72115222E+04</rscale>
<asrwt>0</asrwt>
<pdfrwt beam="1">  1        1 0.54261510E+00 0.72115222E+04</pdfrwt>
<pdfrwt beam="2">  1       -1 0.56712046E+00 0.72115222E+04</pdfrwt>
<totfact> 0.91571740E-05</totfact>
</mgrwt>
</event>
<event>
 6    1  0.8968082E-007  0.1534082E+04  0.7818608E-02  0.8862100E-01
         -2   -1    0    0    0  501 -0.00000000000E+00  0.00000000000E+00  0.51283460588E+03  0.51283460588E+03  0.00000000000E+00 0.  1.
          2   -1    0    0  501    0  0.00000000000E+00 -0.00000000000E+00 -0.11472550502E+04  0.11472550502E+04  0.00000000000E+00 0. -1.
         23    2    1    2    0    0 -0.25856638082E+03 -0.71937774226E+03 -0.33117808686E+03  0.83770480896E+03  0.87803829034E+02 0.  0.
         13    1    3    3    0    0 -0.25117773448E+02 -0.15878020640E+03 -0.90567945429E+02  0.18451181324E+03  0.00000000000E+00 0.  1.
        -13    1    3    3    0    0 -0.23344860737E+03 -0.56059753587E+03 -0.24061014143E+03  0.65319299572E+03  0.00000000000E+00 0. -1.
         22    1    1    2    0    0  0.25856638082E+03  0.71937774226E+03 -0.30324235741E+03  0.82238484706E+03  0.00000000000E+00 0. -1.
<mgrwt>
<rscale>  0 0.15340823E+04</rscale>
<asrwt>0</asrwt>
<pdfrwt beam="1">  1        2 0.17650078E+00 0.15340823E+04</pdfrwt>
<pdfrwt beam="2">  1       -2 0.78897631E-01 0.15340823E+04</pdfrwt>
<totfact> 0.28014650E+01</totfact>
</mgrwt>
</event>
<event>
 6    1  0.8968082E-007  0.9216335E+03  0.7818608E-02  0.9398935E-01
          2   -1    0    0  501    0  0.00000000000E+00  0.00000000000E+00  0.11624689281E+04  0.11624689281E+04  0.00000000000E+00 0. -1.
         -2   -1    0    0    0  501 -0.00000000000E+00 -0.00000000000E+00 -0.18267334318E+03  0.18267334318E+03  0.00000000000E+00 0.  1.
         23    2    1    2    0    0  0.89865885020E+02 -0.43594705897E+03  0.34372653167E+03  0.56879856130E+03  0.85194831115E+02 0.  0.
         11    1    3    3    0    0  0.10094193970E+03 -0.31866336326E+03  0.27129445413E+03  0.43050702098E+03  0.00000000000E+00 0. -1.
        -11    1    3    3    0    0 -0.11076054678E+02 -0.11728369571E+03  0.72432077545E+02  0.13829154032E+03  0.00000000000E+00 0.  1.
         22    1    1    2    0    0 -0.89865885020E+02  0.43594705897E+03  0.63606905327E+03  0.77634370999E+03  0.00000000000E+00 0.  1.
<mgrwt>
<rscale>  0 0.92163352E+03</rscale>
<asrwt>0</asrwt>
<pdfrwt beam="1">  1        2 0.17884137E+00 0.92163352E+03</pdfrwt>
<pdfrwt beam="2">  1       -2 0.28103592E-01 0.92163352E+03</pdfrwt>
<totfact> 0.23105543E+02</totfact>
</mgrwt>
</event>
<event>
 6    1  0.9624743E-007  0.2242514E+04  0.7818608E-02  0.8500938E-01
          2   -1    0    0  501    0  0.00000000000E+00  0.00000000000E+00  0.21315877506E+04  0.21315877506E+04  0.00000000000E+00 0. -1.
         -2   -1    0    0    0  501 -0.00000000000E+00 -0.00000000000E+00 -0.58980309808E+03  0.58980309808E+03  0.00000000000E+00 0.  1.
         23    2    1    2    0    0  0.65334343996E+03 -0.20158787578E+03 -0.30336535265E+03  0.75363225989E+03  0.91846196157E+02 0.  0.
         11    1    3    3    0    0  0.26718764350E+03 -0.38309535754E+02 -0.10230338251E+03  0.28865695807E+03  0.00000000000E+00 0. -1.
        -11    1    3    3    0    0  0.38615579646E+03 -0.16327834003E+03 -0.20106197014E+03  0.46497530182E+03  0.00000000000E+00 0.  1.
         22    1    1    2    0    0 -0.65334343996E+03  0.20158787578E+03  0.18451500052E+04  0.19677585888E+04  0.00000000000E+00 0. -1.
<mgrwt>
<rscale>  0 0.22425138E+04</rscale>
<asrwt>0</asrwt>
<pdfrwt beam="1">  1        2 0.32793657E+00 0.22425138E+04</pdfrwt>
<pdfrwt beam="2">  1       -2 0.90738939E-01 0.22425138E+04</pdfrwt>
<totfact> 0.53282047E+00</totfact>
</mgrwt>
</event>
<event>
 6    1  0.8968082E-007  0.6182556E+04  0.7818608E-02  0.7668170E-01
         -2   -1    0    0    0  501 -0.00000000000E+00  0.00000000000E+00  0.27688144591E+04  0.27688144591E+04  0.00000000000E+00 0.  1.
          2   -1    0    0  501    0  0.00000000000E+00 -0.00000000000E+00 -0.34512969499E+04  0.34512969499E+04  0.00000000000E+00 0. -1.
         23    2    1    2    0    0  0.18183785306E+04 -0.83670553950E+03  0.20278781966E+04  0.28507447481E+04  0.88763720374E+02 0.  0.
         13    1    3    3    0    0  0.17368583529E+03 -0.82451043598E+02  0.23351392218E+03  0.30247924859E+03  0.00000000000E+00 0. -1.
        -13    1    3    3    0    0  0.16446926953E+04 -0.75425449590E+03  0.17943642744E+04  0.25482654995E+04  0.00000000000E+00 0.  1.
         22    1    1    2    0    0 -0.18183785306E+04  0.83670553950E+03 -0.27103606874E+04  0.33693666610E+04  0.00000000000E+00 0. -1.
<mgrwt>
<rscale>  0 0.61825564E+04</rscale>
<asrwt>0</asrwt>
<pdfrwt beam="1">  1        2 0.53096876E+00 0.61825564E+04</pdfrwt>
<pdfrwt beam="2">  1       -2 0.42597146E+00 0.61825564E+04</pdfrwt>
<totfact> 0.29237678E-03</totfact>
</mgrwt>
</event>
<event>
 6    1  0.8968082E-007  0.4681282E+03  0.7818608E-02  0.1022450E+00
          1   -1    0    0  501    0  0.00000000000E+00  0.00000000000E+00  0.25807695127E+03  0.25807695127E+03  0.00000000000E+00 0. -1.
         -1   -1    0    0    0  501 -0.00000000000E+00 -0.00000000000E+00 -0.21228550819E+03  0.21228550819E+03  0.00000000000E+00 0.  1.
         23    2    1    2    0    0  0.16395647104E+03  0.42074398710E+02 -0.12573789172E+03  0.22937637663E+03  0.90285797978E+02 0.  0.
         11    1    3    3    0    0  0.81704716960E+02  0.65654058915E+02 -0.83193918770E+02  0.13381832590E+03  0.00000000000E+00 0. -1.
        -11    1    3    3    0    0  0.82251754081E+02 -0.23579660205E+02 -0.42543972954E+02  0.95558050731E+02  0.00000000000E+00 0.  1.
         22    1    1    2    0    0 -0.16395647104E+03 -0.42074398710E+02  0.17152933480E+03  0.24098608284E+03  0.00000000000E+00 0. -1.
<mgrwt>
<rscale>  0 0.46812817E+03</rscale>
<asrwt>0</asrwt>
<pdfrwt beam="1">  1        1 0.39704147E-01 0.46812817E+03</pdfrwt>
<pdfrwt beam="2">  1       -1 0.32659309E-01 0.46812817E+03</pdfrwt>
<totfact> 0.93936528E+02</totfact>
</mgrwt>
</event>
<event>
 6    1  0.8968082E-007  0.2491203E+04  0.7818608E-02  0.8406126E-01
          2   -1    0    0  501    0  0.00000000000E+00  0.00000000000E+00  0.17129980562E+04  0.17129980562E+04  0.00000000000E+00 0. -1.
         -2   -1    0    0    0  501 -0.00000000000E+00 -0.00000000000E+00 -0.90573540525E+03  0.90573540525E+03  0.00000000000E+00 0.  1.
         23    2    1    2    0    0 -0.56513809582E+03 -0.98599408291E+03  0.93569671438E+03  0.14750286448E+04  0.92821133907E+02 0.  0.
         11    1    3    3    0    0 -0.21371921465E+03 -0.29837660493E+03  0.33090840457E+03  0.49417089483E+03  0.00000000000E+00 0. -1.
        -11    1    3    3    0    0 -0.35141888117E+03 -0.68761747798E+03  0.60478830981E+03  0.98085775001E+03  0.00000000000E+00 0.  1.
         22    1    1    2    0    0  0.56513809582E+03  0.98599408291E+03 -0.12843406344E+03  0.11437048166E+04  0.00000000000E+00 0.  1.
<mgrwt>
<rscale>  0 0.24912029E+04</rscale>
<asrwt>0</asrwt>
<pdfrwt beam="1">  1        2 0.26353816E+00 0.24912029E+04</pdfrwt>
<pdfrwt beam="2">  1       -2 0.13934391E+00 0.24912029E+04</pdfrwt>
<totfact> 0.31302102E+00</totfact>
</mgrwt>
</event>
<event>
 6    1  0.8968082E-007  0.1004795E+04  0.7818608E-02  0.9303301E-01
         -1   -1    0    0    0  501 -0.00000000000E+00  0.00000000000E+00  0.39793191518E+03  0.39793191518E+03  0.00000000000E+00 0.  1.
          1   -1    0    0  501    0  0.00000000000E+00 -0.00000000000E+00 -0.63428761800E+03  0.63428761800E+03  0.00000000000E+00 0. -1.
         23    2    1    2    0    0  0.45017041594E+03 -0.27888765948E+02  0.98555231763E+02  0.47043975360E+03  0.90383855868E+02 0.  0.
         13    1    3    3    0    0  0.30075727770E+03 -0.24853281969E+02  0.10842803108E+03  0.32067002298E+03  0.00000000000E+00 0.  1.
        -13    1    3    3    0    0  0.14941313824E+03 -0.30354839793E+01 -0.98727993215E+01  0.14976973062E+03  0.00000000000E+00 0. -1.
         22    1    1    2    0    0 -0.45017041594E+03  0.27888765948E+02 -0.33491093458E+03  0.56177977959E+03  0.00000000000E+00 0.  1.
<mgrwt>
<rscale>  0 0.10047951E+04</rscale>
<asrwt>0</asrwt>
<pdfrwt beam="1">  1        1 0.97582710E-01 0.10047951E+04</pdfrwt>
<pdfrwt beam="2">  1       -1 0.61220295E-01 0.10047951E+04</pdfrwt>
<totfact> 0.85670814E+01</totfact>
</mgrwt>
</event>
<event>
 6    1  0.8968082E-007  0.3890689E+04  0.7818608E-02  0.8026968E-01
          2   -1    0    0  501    0  0.00000000000E+00  0.00000000000E+00  0.25103532278E+04  0.25103532278E+04  0.00000000000E+00 0. -1.
         -2   -1    0    0    0  501 -0.00000000000E+00 -0.00000000000E+00 -0.15075031743E+04  0.15075031743E+04  0.00000000000E+00 0.  1.
         23    2    1    2    0    0  0.21673572373E+02  0.16710432776E+04 -0.52453417958E+03  0.17538427152E+04  0.89290450599E+02 0.  0.
         13    1    3    3    0    0  0.38154971135E+02  0.52716655142E+03 -0.19443559115E+03  0.56317455008E+03  0.00000000000E+00 0. -1.
        -13    1    3    3    0    0 -0.16481398762E+02  0.11438767262E+04 -0.33009858843E+03  0.11906681651E+04  0.00000000000E+00 0.  1.
         22    1    1    2    0    0 -0.21673572373E+02 -0.16710432776E+04  0.15273842330E+04  0.22640136870E+04  0.00000000000E+00 0.  1.
<mgrwt>
<rscale>  0 0.38906891E+04</rscale>
<asrwt>0</asrwt>
<pdfrwt beam="1">  1        2 0.38620819E+00 0.38906891E+04</pdfrwt>
<pdfrwt beam="2">  1       -2 0.23192357E+00 0.38906891E+04</pdfrwt>
<totfact> 0.22723440E-01</totfact>
</mgrwt>
</event>
<event>
 6    1  0.8968082E-007  0.3811446E+04  0.7818608E-02  0.8043703E-01
         -2   -1    0    0    0  501 -0.00000000000E+00  0.00000000000E+00  0.18517964717E+04  0.18517964717E+04  0.00000000000E+00 0.  1.
          2   -1    0    0  501    0  0.00000000000E+00 -0.00000000000E+00 -0.19612196595E+04  0.19612196595E+04  0.00000000000E+00 0. -1.
         23    2    1    2    0    0  0.12800787323E+04 -0.66386539585E+03  0.11901496873E+04  0.18718287414E+04  0.89262164961E+02 0.  0.
         13    1    3    3    0    0  0.64234847520E+03 -0.28288609157E+03  0.57695197220E+03  0.90857563396E+03  0.00000000000E+00 0.  1.
        -13    1    3    3    0    0  0.63773025710E+03 -0.38097930428E+03  0.61319771510E+03  0.96325310740E+03  0.00000000000E+00 0. -1.
         22    1    1    2    0    0 -0.12800787323E+04  0.66386539585E+03 -0.12995728751E+04  0.19411873898E+04  0.00000000000E+00 0. -1.
<mgrwt>
<rscale>  0 0.38114457E+04</rscale>
<asrwt>0</asrwt>
<pdfrwt beam="1">  1        2 0.30172610E+00 0.38114457E+04</pdfrwt>
<pdfrwt beam="2">  1       -2 0.28489177E+00 0.38114457E+04</pdfrwt>
<totfact> 0.22114353E-01</totfact>
</mgrwt>
</event>
<event>
 6    1  0.8968082E-007  0.4756558E+03  0.7818608E-02  0.1020336E+00
         -2   -1    0    0    0  501 -0.00000000000E+00  0.00000000000E+00  0.23611523048E+03  0.23611523048E+03  0.00000000000E+00 0.  1.
          2   -1    0    0  501    0  0.00000000000E+00 -0.00000000000E+00 -0.23955297520E+03  0.23955297520E+03  0.00000000000E+00 0. -1.
         23    2    1    2    0    0 -0.65621708904E+02 -0.34633550237E+02 -0.21943628732E+03  0.24728024214E+03  0.86542142812E+02 0.  0.
         13    1    3    3    0    0 -0.28138849943E+02 -0.53039479314E+02 -0.70509150171E+02  0.92609510849E+02  0.00000000000E+00 0.  1.
        -13    1    3    3    0    0 -0.37482858961E+02  0.18405929077E+02 -0.14892713714E+03  0.15467073129E+03  0.00000000000E+00 0. -1.
         22    1    1    2    0    0  0.65621708904E+02  0.34633550237E+02  0.21599854260E+03  0.22838796354E+03  0.00000000000E+00 0.  1.
<mgrwt>
<rscale>  0 0.47565578E+03</rscale>
<asrwt>0</asrwt>
<pdfrwt beam="1">  1        2 0.36854304E-01 0.47565578E+03</pdfrwt>
<pdfrwt beam="2">  1       -2 0.36325420E-01 0.47565578E+03</pdfrwt>
<totfact> 0.10077121E+03</totfact>
</mgrwt>
</event>
<event>
 6    1  0.8968082E-007  0.3410298E+04  0.7818608E-02  0.8135383E-01
         -2   -1    0    0    0  501 -0.00000000000E+00  0.00000000000E+00  0.10467861787E+04  0.10467861787E+04  0.00000000000E+00 0.  1.
          2   -1    0    0  501    0  0.00000000000E+00 -0.00000000000E+00 -0.27775808064E+04  0.27775808064E+04  0.00000000000E+00 0. -1.
         23    2    1    2    0    0  0.15979649926E+04 -0.61202756475E+02 -0.15250733642E+04  0.22120521483E+04  0.10043926268E+03 0.  0.
         11    1    3    3    0    0  0.44378731715E+03 -0.25293742207E+02 -0.48626145114E+03  0.65881496273E+03  0.00000000000E+00 0. -1.
        -11    1    3    3    0    0  0.11541776754E+04 -0.35909014267E+02 -0.10388119131E+04  0.15532371855E+04  0.00000000000E+00 0.  1.
         22    1    1    2    0    0 -0.15979649926E+04  0.61202756475E+02 -0.20572126341E+03  0.16123148368E+04  0.00000000000E+00 0.  1.
<mgrwt>
<rscale>  0 0.34102981E+04</rscale>
<asrwt>0</asrwt>
<pdfrwt beam="1">  1        2 0.42732012E+00 0.34102981E+04</pdfrwt>
<pdfrwt beam="2">  1       -2 0.16104403E+00 0.34102981E+04</pdfrwt>
<totfact> 0.48846732E-01</totfact>
</mgrwt>
</event>
<event>
 6    1  0.8968082E-007  0.1759927E+04  0.7818608E-02  0.8727905E-01
          2   -1    0    0  501    0  0.00000000000E+00  0.00000000000E+00  0.86748406873E+03  0.86748406873E+03  0.00000000000E+00 0. -1.
         -2   -1    0    0    0  501 -0.00000000000E+00 -0.00000000000E+00 -0.89262214578E+03  0.89262214578E+03  0.00000000000E+00 0.  1.
         23    2    1    2    0    0 -0.39568574872E+03 -0.64102720789E+03  0.43927667397E+03  0.87514059147E+03  0.73647576711E+02 0.  0.
         11    1    3    3    0    0 -0.22670704645E+03 -0.29739810228E+03  0.22043673956E+03  0.43408993573E+03  0.00000000000E+00 0. -1.
        -11    1    3    3    0    0 -0.16897870227E+03 -0.34362910561E+03  0.21883993440E+03  0.44105065575E+03  0.00000000000E+00 0.  1.
         22    1    1    2    0    0  0.39568574872E+03  0.64102720789E+03 -0.46441475101E+03  0.88496562304E+03  0.00000000000E+00 0.  1.
<mgrwt>
<rscale>  0 0.17599267E+04</rscale>
<asrwt>0</asrwt>
<pdfrwt beam="1">  1        2 0.13345909E+00 0.17599267E+04</pdfrwt>
<pdfrwt beam="2">  1       -2 0.13732648E+00 0.17599267E+04</pdfrwt>
<totfact> 0.11034404E+01</totfact>
</mgrwt>
</event>
<event>
 6    1  0.8968082E-007  0.5037272E+04  0.7818608E-02  0.7822783E-01
          2   -1    0    0  501    0  0.00000000000E+00  0.00000000000E+00  0.21830531339E+04  0.21830531339E+04  0.00000000000E+00 0. -1.
         -2   -1    0    0    0  501 -0.00000000000E+00 -0.00000000000E+00 -0.29058057915E+04  0.29058057915E+04  0.00000000000E+00 0.  1.
         23    2    1    2    0    0 -0.35827769475E+03  0.23178660775E+04 -0.12862439862E+04  0.26767253186E+04  0.97820136782E+02 0.  0.
         13    1    3    3    0    0 -0.62014576865E+02  0.54094250081E+03 -0.25865231473E+03  0.60279815597E+03  0.00000000000E+00 0.  1.
        -13    1    3    3    0    0 -0.29626311788E+03  0.17769235767E+04 -0.10275916715E+04  0.20739271626E+04  0.00000000000E+00 0. -1.
         22    1    1    2    0    0  0.35827769475E+03 -0.23178660775E+04  0.56349132865E+03  0.24121336069E+04  0.00000000000E+00 0. -1.
<mgrwt>
<rscale>  0 0.50372725E+04</rscale>
<asrwt>0</asrwt>
<pdfrwt beam="1">  1        2 0.33585433E+00 0.50372725E+04</pdfrwt>
<pdfrwt beam="2">  1       -2 0.44704705E+00 0.50372725E+04</pdfrwt>
<totfact> 0.13947544E-02</totfact>
</mgrwt>
</event>
<event>
 6    1  0.8968082E-007  0.1022150E+04  0.7818608E-02  0.9284579E-01
         -2   -1    0    0    0  501 -0.00000000000E+00  0.00000000000E+00  0.26492449714E+03  0.26492449714E+03  0.00000000000E+00 0.  1.
          2   -1    0    0  501    0  0.00000000000E+00 -0.00000000000E+00 -0.98593297769E+03  0.98593297769E+03  0.00000000000E+00 0. -1.
         23    2    1    2    0    0  0.44140058901E+03  0.69454527532E+02 -0.70361769168E+02  0.46155426668E+03  0.91777726912E+02 0.  0.
         11    1    3    3    0    0  0.83794930456E+02  0.27573098381E+02 -0.48908740016E+02  0.10086590591E+03  0.00000000000E+00 0.  1.
        -11    1    3    3    0    0  0.35760565855E+03  0.41881429151E+02 -0.21453029152E+02  0.36068836077E+03  0.00000000000E+00 0. -1.
         22    1    1    2    0    0 -0.44140058901E+03 -0.69454527532E+02 -0.65064671138E+03  0.78930320816E+03  0.00000000000E+00 0. -1.
<mgrwt>
<rscale>  0 0.10221503E+04</rscale>
<asrwt>0</asrwt>
<pdfrwt beam="1">  1        2 0.15168199E+00 0.10221503E+04</pdfrwt>
<pdfrwt beam="2">  1       -2 0.40757616E-01 0.10221503E+04</pdfrwt>
<totfact> 0.14609399E+02</totfact>
</mgrwt>
</event>
<event>
 6    1  0.8968082E-007  0.2342993E+04  0.7818608E-02  0.8461160E-01
          2   -1    0    0  501    0  0.00000000000E+00  0.00000000000E+00  0.22047530313E+04  0.22047530313E+04  0.00000000000E+00 0. -1.
         -2   -1    0    0    0  501 -0.00000000000E+00 -0.00000000000E+00 -0.62247495821E+03  0.62247495821E+03  0.00000000000E+00 0.  1.
         23    2    1    2    0    0  0.10716046390E+04  0.34539453819E+03  0.11753450907E+04  0.16300528388E+04  0.89455495983E+02 0.  0.
         13    1    3    3    0    0  0.47181929454E+03  0.11418848450E+03  0.54299275558E+03  0.72834990856E+03  0.00000000000E+00 0. -1.
        -13    1    3    3    0    0  0.59978534446E+03  0.23120605369E+03  0.63235233510E+03  0.90170293024E+03  0.00000000000E+00 0.  1.
         22    1    1    2    0    0 -0.10716046390E+04 -0.34539453819E+03  0.40693298242E+03  0.11971751507E+04  0.00000000000E+00 0.  1.
<mgrwt>
<rscale>  0 0.23429926E+04</rscale>
<asrwt>0</asrwt>
<pdfrwt beam="1">  1        2 0.33919277E+00 0.23429926E+04</pdfrwt>
<pdfrwt beam="2">  1       -2 0.95765379E-01 0.23429926E+04</pdfrwt>
<totfact> 0.42402858E+00</totfact>
</mgrwt>
</event>
<event>
 6    1  0.8968082E-007  0.1523843E+04  0.7818608E-02  0.8868750E-01
         -2   -1    0    0    0  501 -0.00000000000E+00  0.00000000000E+00  0.30672070607E+03  0.30672070607E+03  0.00000000000E+00 0.  1.
          2   -1    0    0  501    0  0.00000000000E+00 -0.00000000000E+00 -0.18926812143E+04  0.18926812143E+04  0.00000000000E+00 0. -1.
         23    2    1    2    0    0  0.24450058802E+03 -0.59209724017E+03 -0.13840642534E+04  0.15277459243E+04  0.89521349899E+02 0.  0.
         11    1    3    3    0    0  0.24983265171E+03 -0.56402917084E+03 -0.12995312968E+04  0.14385155025E+04  0.00000000000E+00 0. -1.
        -11    1    3    3    0    0 -0.53320636849E+01 -0.28068069332E+02 -0.84532956630E+02  0.89230421806E+02  0.00000000000E+00 0.  1.
         22    1    1    2    0    0 -0.24450058802E+03  0.59209724017E+03 -0.20189625474E+03  0.67165599605E+03  0.00000000000E+00 0.  1.
<mgrwt>
<rscale>  0 0.15238432E+04</rscale>
<asrwt>0</asrwt>
<pdfrwt beam="1">  1        2 0.29118173E+00 0.15238432E+04</pdfrwt>
<pdfrwt beam="2">  1       -2 0.47187801E-01 0.15238432E+04</pdfrwt>
<totfact> 0.31469818E+01</totfact>
</mgrwt>
</event>
<event>
 6    1  0.8968082E-007  0.1690010E+04  0.7818608E-02  0.8767083E-01
         -2   -1    0    0    0  501 -0.00000000000E+00  0.00000000000E+00  0.75952573931E+03  0.75952573931E+03  0.00000000000E+00 0.  1.
          2   -1    0    0  501    0  0.00000000000E+00 -0.00000000000E+00 -0.94010455323E+03  0.94010455323E+03  0.00000000000E+00 0. -1.
         23    2    1    2    0    0 -0.54122405825E+03  0.61805097013E+03 -0.27875140400E+03  0.87225592724E+03  0.90650838188E+02 0.  0.
         11    1    3    3    0    0 -0.16200894985E+03  0.12570914708E+03 -0.69947500604E+02  0.21666181558E+03  0.00000000000E+00 0. -1.
        -11    1    3    3    0    0 -0.37921510840E+03  0.49234182305E+03 -0.20880390339E+03  0.65559411166E+03  0.00000000000E+00 0.  1.
         22    1    1    2    0    0  0.54122405825E+03 -0.61805097013E+03  0.98172590084E+02  0.82737436530E+03  0.00000000000E+00 0.  1.
<mgrwt>
<rscale>  0 0.16900102E+04</rscale>
<asrwt>0</asrwt>
<pdfrwt beam="1">  1        2 0.14463147E+00 0.16900102E+04</pdfrwt>
<pdfrwt beam="2">  1       -2 0.11685011E+00 0.16900102E+04</pdfrwt>
<totfact> 0.14884448E+01</totfact>
</mgrwt>
</event>
<event>
 6    1  0.8968082E-007  0.1666946E+04  0.7818608E-02  0.8780444E-01
         -1   -1    0    0    0  501 -0.00000000000E+00  0.00000000000E+00  0.42420829352E+03  0.42420829352E+03  0.00000000000E+00 0.  1.
          1   -1    0    0  501    0  0.00000000000E+00 -0.00000000000E+00 -0.16375852846E+04  0.16375852846E+04  0.00000000000E+00 0. -1.
         23    2    1    2    0    0 -0.26436128306E+03  0.71774104081E+03 -0.20692847665E+03  0.79768215035E+03  0.91860377111E+02 0.  0.
         13    1    3    3    0    0 -0.54536390172E+02  0.20412644938E+03 -0.20057596702E+02  0.21223602987E+03  0.00000000000E+00 0.  1.
        -13    1    3    3    0    0 -0.20982489288E+03  0.51361459144E+03 -0.18687087995E+03  0.58544612048E+03  0.00000000000E+00 0. -1.
         22    1    1    2    0    0  0.26436128306E+03 -0.71774104081E+03 -0.10064485145E+04  0.12641114278E+04  0.00000000000E+00 0. -1.
<mgrwt>
<rscale>  0 0.16669460E+04</rscale>
<asrwt>0</asrwt>
<pdfrwt beam="1">  1        1 0.25193619E+00 0.16669460E+04</pdfrwt>
<pdfrwt beam="2">  1       -1 0.65262815E-01 0.16669460E+04</pdfrwt>
<totfact> 0.11942737E+01</totfact>
</mgrwt>
</event>
<event>
 6    1  0.8968082E-007  0.4190060E+04  0.7818608E-02  0.7967266E-01
          2   -1    0    0  501    0  0.00000000000E+00  0.00000000000E+00  0.41871491494E+04  0.41871491494E+04  0.00000000000E+00 0. -1.
         -2   -1    0    0    0  501 -0.00000000000E+00 -0.00000000000E+00 -0.10482433242E+04  0.10482433242E+04  0.00000000000E+00 0.  1.
         23    2    1    2    0    0  0.14496334471E+03  0.14967911952E+04 -0.25064337175E+03  0.15272336297E+04  0.90676384585E+02 0.  0.
         11    1    3    3    0    0  0.35306746765E+02  0.76036377868E+03 -0.15152521693E+03  0.77611824721E+03  0.00000000000E+00 0.  1.
        -11    1    3    3    0    0  0.10965659794E+03  0.73642741649E+03 -0.99118154814E+02  0.75111538251E+03  0.00000000000E+00 0. -1.
         22    1    1    2    0    0 -0.14496334471E+03 -0.14967911952E+04  0.33895491970E+04  0.37081588439E+04  0.00000000000E+00 0. -1.
<mgrwt>
<rscale>  0 0.41900602E+04</rscale>
<asrwt>0</asrwt>
<pdfrwt beam="1">  1        2 0.64417678E+00 0.41900602E+04</pdfrwt>
<pdfrwt beam="2">  1       -2 0.16126821E+00 0.41900602E+04</pdfrwt>
<totfact> 0.45459292E-02</totfact>
</mgrwt>
</event>
<event>
 6    1  0.8968082E-007  0.2182733E+04  0.7818608E-02  0.8525650E-01
          2   -1    0    0  501    0  0.00000000000E+00  0.00000000000E+00  0.39175874342E+04  0.39175874342E+04  0.00000000000E+00 0. -1.
         -2   -1    0    0    0  501 -0.00000000000E+00 -0.00000000000E+00 -0.30403430009E+03  0.30403430009E+03  0.00000000000E+00 0.  1.
         23    2    1    2    0    0  0.10237076378E+04  0.24639909020E+02  0.10901802613E+04  0.14983892602E+04  0.89960658012E+02 0.  0.
         13    1    3    3    0    0  0.33838886625E+03  0.49267384571E+02  0.34787287574E+03  0.48780102261E+03  0.00000000000E+00 0. -1.
        -13    1    3    3    0    0  0.68531877157E+03 -0.24627475551E+02  0.74230738555E+03  0.10105882375E+04  0.00000000000E+00 0.  1.
         22    1    1    2    0    0 -0.10237076378E+04 -0.24639909020E+02  0.25233728728E+04  0.27232324741E+04  0.00000000000E+00 0. -1.
<mgrwt>
<rscale>  0 0.21827331E+04</rscale>
<asrwt>0</asrwt>
<pdfrwt beam="1">  1        2 0.60270572E+00 0.21827331E+04</pdfrwt>
<pdfrwt beam="2">  1       -2 0.46774510E-01 0.21827331E+04</pdfrwt>
<totfact> 0.15898649E+00</totfact>
</mgrwt>
</event>
<event>
 6    1  0.8968082E-007  0.1944780E+04  0.7818608E-02  0.8632882E-01
         -1   -1    0    0    0  501 -0.00000000000E+00  0.00000000000E+00  0.64767199744E+03  0.64767199744E+03  0.00000000000E+00 0.  1.
          1   -1    0    0  501    0  0.00000000000E+00 -0.00000000000E+00 -0.14599087073E+04  0.14599087073E+04  0.00000000000E+00 0. -1.
         23    2    1    2    0    0 -0.61913823804E+03  0.16013811982E+03 -0.11976631548E+04  0.13609014432E+04  0.93162923449E+02 0.  0.
         11    1    3    3    0    0 -0.49680304681E+02 -0.80154143508E+01 -0.12714915332E+03  0.13674533531E+03  0.00000000000E+00 0.  1.
        -11    1    3    3    0    0 -0.56945793336E+03  0.16815353418E+03 -0.10705140015E+04  0.12241561079E+04  0.00000000000E+00 0. -1.
         22    1    1    2    0    0  0.61913823804E+03 -0.16013811982E+03  0.38542644496E+03  0.74667926160E+03  0.00000000000E+00 0.  1.
<mgrwt>
<rscale>  0 0.19447797E+04</rscale>
<asrwt>0</asrwt>
<pdfrwt beam="1">  1        1 0.22460134E+00 0.19447797E+04</pdfrwt>
<pdfrwt beam="2">  1       -1 0.99641846E-01 0.19447797E+04</pdfrwt>
<totfact> 0.62477406E+00</totfact>
</mgrwt>
</event>
<event>
 6    1  0.8968082E-007  0.1186543E+04  0.7818608E-02  0.9124718E-01
          2   -1    0    0  501    0  0.00000000000E+00  0.00000000000E+00  0.13462345418E+04  0.13462345418E+04  0.00000000000E+00 0. -1.
         -2   -1    0    0    0  501 -0.00000000000E+00 -0.00000000000E+00 -0.26144835226E+03  0.26144835226E+03  0.00000000000E+00 0.  1.
         23    2    1    2    0    0  0.32639230917E+03 -0.13245830045E+03  0.11865194912E+04  0.12410402813E+04  0.90968872721E+02 0.  0.
         11    1    3    3    0    0  0.16355972605E+03 -0.11413744205E+03  0.61898674047E+03  0.65032586028E+03  0.00000000000E+00 0.  1.
        -11    1    3    3    0    0  0.16283258312E+03 -0.18320858393E+02  0.56753275074E+03  0.59071442097E+03  0.00000000000E+00 0. -1.
         22    1    1    2    0    0 -0.32639230917E+03  0.13245830045E+03 -0.10173330169E+03  0.36664261279E+03  0.00000000000E+00 0.  1.
<mgrwt>
<rscale>  0 0.11865425E+04</rscale>
<asrwt>0</asrwt>
<pdfrwt beam="1">  1        2 0.20711300E+00 0.11865425E+04</pdfrwt>
<pdfrwt beam="2">  1       -2 0.40222824E-01 0.11865425E+04</pdfrwt>
<totfact> 0.89724758E+01</totfact>
</mgrwt>
</event>
<event>
 6    1  0.8968082E-007  0.1052529E+04  0.7818608E-02  0.9252737E-01
         -2   -1    0    0    0  501 -0.00000000000E+00  0.00000000000E+00  0.29494873866E+03  0.29494873866E+03  0.00000000000E+00 0.  1.
          2   -1    0    0  501    0  0.00000000000E+00 -0.00000000000E+00 -0.93899179841E+03  0.93899179841E+03  0.00000000000E+00 0. -1.
         23    2    1    2    0    0  0.46182227782E+02 -0.45955262897E+03 -0.38508639612E+02  0.47236759182E+03  0.91251353551E+02 0.  0.
         11    1    3    3    0    0  0.54945438942E+02 -0.40597777147E+03 -0.59867201824E+02  0.41403023325E+03  0.00000000000E+00 0. -1.
        -11    1    3    3    0    0 -0.87632111592E+01 -0.53574857495E+02  0.21358562212E+02  0.58337358572E+02  0.00000000000E+00 0.  1.
         22    1    1    2    0    0 -0.46182227782E+02  0.45955262897E+03 -0.60553442014E+03  0.76157294524E+03  0.00000000000E+00 0. -1.
<mgrwt>
<rscale>  0 0.10525292E+04</rscale>
<asrwt>0</asrwt>
<pdfrwt beam="1">  1        2 0.14446028E+00 0.10525292E+04</pdfrwt>
<pdfrwt beam="2">  1       -2 0.45376729E-01 0.10525292E+04</pdfrwt>
<totfact> 0.12653865E+02</totfact>
</mgrwt>
</event>
<event>
 6    1  0.8968082E-007  0.1909275E+04  0.7818608E-02  0.8650253E-01
          1   -1    0    0  501    0  0.00000000000E+00  0.00000000000E+00  0.69486989161E+03  0.69486989161E+03  0.00000000000E+00 0. -1.
         -1   -1    0    0    0  501 -0.00000000000E+00 -0.00000000000E+00 -0.13115158198E+04  0.13115158198E+04  0.00000000000E+00 0.  1.
         23    2    1    2    0    0 -0.15066869318E+03 -0.26892710301E+03 -0.12560277820E+04  0.12965744712E+04  0.92069149339E+02 0.  0.
         11    1    3    3    0    0 -0.93444009170E+02 -0.80756950386E+02 -0.42436604393E+03  0.44197285791E+03  0.00000000000E+00 0. -1.
        -11    1    3    3    0    0 -0.57224684006E+02 -0.18817015262E+03 -0.83166173809E+03  0.85460161327E+03  0.00000000000E+00 0.  1.
         22    1    1    2    0    0  0.15066869318E+03  0.26892710301E+03  0.63938185381E+03  0.70981124027E+03  0.00000000000E+00 0. -1.
<mgrwt>
<rscale>  0 0.19092751E+04</rscale>
<asrwt>0</asrwt>
<pdfrwt beam="1">  1        1 0.10690306E+00 0.19092751E+04</pdfrwt>
<pdfrwt beam="2">  1       -1 0.20177166E+00 0.19092751E+04</pdfrwt>
<totfact> 0.37684011E+00</totfact>
</mgrwt>
</event>
<event>
 6    1  0.8968082E-007  0.3193572E+04  0.7818608E-02  0.8190517E-01
          2   -1    0    0  501    0  0.00000000000E+00  0.00000000000E+00  0.22380132669E+04  0.22380132669E+04  0.00000000000E+00 0. -1.
         -2   -1    0    0    0  501 -0.00000000000E+00 -0.00000000000E+00 -0.11392808753E+04  0.11392808753E+04  0.00000000000E+00 0.  1.
         23    2    1    2    0    0 -0.14994951064E+04  0.45247575633E+03  0.22860713983E+03  0.15855525765E+04  0.92173013183E+02 0.  0.
         13    1    3    3    0    0 -0.11619825454E+04  0.34747939122E+03  0.13795553059E+03  0.12206461778E+04  0.00000000000E+00 0.  1.
        -13    1    3    3    0    0 -0.33751256103E+03  0.10499636511E+03  0.90651609244E+02  0.36490639868E+03  0.00000000000E+00 0. -1.
         22    1    1    2    0    0  0.14994951064E+04 -0.45247575633E+03  0.87012525180E+03  0.17917415656E+04  0.00000000000E+00 0. -1.
<mgrwt>
<rscale>  0 0.31935721E+04</rscale>
<asrwt>0</asrwt>
<pdfrwt beam="1">  1        2 0.34430973E+00 0.31935721E+04</pdfrwt>
<pdfrwt beam="2">  1       -2 0.17527398E+00 0.31935721E+04</pdfrwt>
<totfact> 0.81002205E-01</totfact>
</mgrwt>
</event>
<event>
 6    1  0.8968082E-007  0.6330188E+04  0.7818608E-02  0.7650758E-01
         -1   -1    0    0    0  501 -0.00000000000E+00  0.00000000000E+00  0.23507598216E+04  0.23507598216E+04  0.00000000000E+00 0.  1.
          1   -1    0    0  501    0  0.00000000000E+00 -0.00000000000E+00 -0.42615243458E+04  0.42615243458E+04  0.00000000000E+00 0. -1.
         23    2    1    2    0    0 -0.77874562596E+03 -0.23951613735E+04 -0.29567991436E+04  0.38851187562E+04  0.90795479303E+02 0.  0.
         11    1    3    3    0    0 -0.47003787676E+03 -0.13985104740E+04 -0.17968623552E+04  0.23249691342E+04  0.00000000000E+00 0. -1.
        -11    1    3    3    0    0 -0.30870774920E+03 -0.99665089957E+03 -0.11599367884E+04  0.15601496220E+04  0.00000000000E+00 0.  1.
         22    1    1    2    0    0  0.77874562596E+03  0.23951613735E+04  0.10460346194E+04  0.27271654112E+04  0.00000000000E+00 0.  1.
<mgrwt>
<rscale>  0 0.63301881E+04</rscale>
<asrwt>0</asrwt>
<pdfrwt beam="1">  1        1 0.65561912E+00 0.63301881E+04</pdfrwt>
<pdfrwt beam="2">  1       -1 0.36165536E+00 0.63301881E+04</pdfrwt>
<totfact> 0.46599421E-04</totfact>
</mgrwt>
</event>
<event>
 6    1  0.8968082E-007  0.1176319E+04  0.7818608E-02  0.9133840E-01
         -2   -1    0    0    0  501 -0.00000000000E+00  0.00000000000E+00  0.28870943662E+03  0.28870943662E+03  0.00000000000E+00 0.  1.
          2   -1    0    0  501    0  0.00000000000E+00 -0.00000000000E+00 -0.11982007578E+04  0.11982007578E+04  0.00000000000E+00 0. -1.
         23    2    1    2    0    0  0.41017685843E+03 -0.34341105621E+03 -0.16016674848E+03  0.56622375269E+03  0.93700277893E+02 0.  0.
         13    1    3    3    0    0  0.12818037621E+03 -0.70579517387E+02 -0.76139564965E+02  0.16495123665E+03  0.00000000000E+00 0.  1.
        -13    1    3    3    0    0  0.28199648221E+03 -0.27283153882E+03 -0.84027183514E+02  0.40127251603E+03  0.00000000000E+00 0. -1.
         22    1    1    2    0    0 -0.41017685843E+03  0.34341105621E+03 -0.74932457266E+03  0.92068644169E+03  0.00000000000E+00 0. -1.
<mgrwt>
<rscale>  0 0.11763195E+04</rscale>
<asrwt>0</asrwt>
<pdfrwt beam="1">  1        2 0.18433858E+00 0.11763195E+04</pdfrwt>
<pdfrwt beam="2">  1       -2 0.44416836E-01 0.11763195E+04</pdfrwt>
<totfact> 0.90155544E+01</totfact>
</mgrwt>
</event>
<event>
 6    1  0.8968082E-007  0.4537700E+04  0.7818608E-02  0.7904070E-01
          2   -1    0    0  501    0  0.00000000000E+00  0.00000000000E+00  0.31427225272E+04  0.31427225272E+04  0.00000000000E+00 0. -1.
         -2   -1    0    0    0  501 -0.00000000000E+00 -0.00000000000E+00 -0.16379684536E+04  0.16379684536E+04  0.00000000000E+00 0.  1.
         23    2    1    2    0    0  0.58591646056E+03 -0.19483485185E+04  0.18083630802E+04  0.27236206181E+04  0.92586141105E+02 0.  0.
         13    1    3    3    0    0  0.14655196402E+03 -0.36950852663E+03  0.33453208478E+03  0.51954378561E+03  0.00000000000E+00 0.  1.
        -13    1    3    3    0    0  0.43936449655E+03 -0.15788399919E+04  0.14738309954E+04  0.22040768325E+04  0.00000000000E+00 0. -1.
         22    1    1    2    0    0 -0.58591646056E+03  0.19483485185E+04 -0.30360900656E+03  0.20570703627E+04  0.00000000000E+00 0.  1.
<mgrwt>
<rscale>  0 0.45377000E+04</rscale>
<asrwt>0</asrwt>
<pdfrwt beam="1">  1        2 0.48349577E+00 0.45377000E+04</pdfrwt>
<pdfrwt beam="2">  1       -2 0.25199515E+00 0.45377000E+04</pdfrwt>
<totfact> 0.66610174E-02</totfact>
</mgrwt>
</event>
<event>
 6    1  0.8968082E-007  0.2874096E+04  0.7818608E-02  0.8280627E-01
         -2   -1    0    0    0  501 -0.00000000000E+00  0.00000000000E+00  0.25498998190E+04  0.25498998190E+04  0.00000000000E+00 0.  1.
          2   -1    0    0  501    0  0.00000000000E+00 -0.00000000000E+00 -0.80987763512E+03  0.80987763512E+03  0.00000000000E+00 0. -1.
         23    2    1    2    0    0 -0.13817249627E+04 -0.28084445707E+03  0.11835150517E+04  0.18439484170E+04  0.10677268003E+03 0.  0.
         13    1    3    3    0    0 -0.82735726148E+03 -0.19832256329E+03  0.65683259057E+03  0.10748399552E+04  0.00000000000E+00 0. -1.
        -13    1    3    3    0    0 -0.55436770125E+03 -0.82521893771E+02  0.52668246116E+03  0.76910846181E+03  0.00000000000E+00 0.  1.
         22    1    1    2    0    0  0.13817249627E+04  0.28084445707E+03  0.55650713217E+03  0.15158290371E+04  0.00000000000E+00 0. -1.
<mgrwt>
<rscale>  0 0.28740959E+04</rscale>
<asrwt>0</asrwt>
<pdfrwt beam="1">  1        2 0.12459656E+00 0.28740959E+04</pdfrwt>
<pdfrwt beam="2">  1       -2 0.39229228E+00 0.28740959E+04</pdfrwt>
<totfact> 0.24413745E-01</totfact>
</mgrwt>
</event>
<event>
 6    1  0.1285309E-006  0.3631309E+04  0.7818608E-02  0.8083357E-01
          2   -1    0    0  501    0  0.00000000000E+00  0.00000000000E+00  0.17820834450E+04  0.17820834450E+04  0.00000000000E+00 0. -1.
         -2   -1    0    0    0  501 -0.00000000000E+00 -0.00000000000E+00 -0.18498584778E+04  0.18498584778E+04  0.00000000000E+00 0.  1.
         23    2    1    2    0    0 -0.24274982676E+03 -0.11673429019E+04 -0.14019446190E+04  0.18426332815E+04  0.90729080281E+02 0.  0.
         13    1    3    3    0    0 -0.14777015012E+03 -0.73978865472E+03 -0.95272877213E+03  0.12152429322E+04  0.00000000000E+00 0. -1.
        -13    1    3    3    0    0 -0.94979676638E+02 -0.42755424719E+03 -0.44921584692E+03  0.62739034930E+03  0.00000000000E+00 0.  1.
         22    1    1    2    0    0  0.24274982676E+03  0.11673429019E+04  0.13341695862E+04  0.17893086413E+04  0.00000000000E+00 0. -1.
<mgrwt>
<rscale>  0 0.36313095E+04</rscale>
<asrwt>0</asrwt>
<pdfrwt beam="1">  1        2 0.27416668E+00 0.36313095E+04</pdfrwt>
<pdfrwt beam="2">  1       -2 0.28459361E+00 0.36313095E+04</pdfrwt>
<totfact> 0.28336504E-01</totfact>
</mgrwt>
</event>
<event>
 6    1  0.8968082E-007  0.2430414E+04  0.7818608E-02  0.8428204E-01
         -2   -1    0    0    0  501 -0.00000000000E+00  0.00000000000E+00  0.53273418656E+03  0.53273418656E+03  0.00000000000E+00 0.  1.
          2   -1    0    0  501    0  0.00000000000E+00 -0.00000000000E+00 -0.27719781872E+04  0.27719781872E+04  0.00000000000E+00 0. -1.
         23    2    1    2    0    0 -0.11483575721E+04  0.25992624660E+03 -0.72076989738E+03  0.13832414868E+04  0.86954003779E+02 0.  0.
         13    1    3    3    0    0 -0.44622224149E+03  0.14448914765E+03 -0.28247278549E+03  0.54752376856E+03  0.00000000000E+00 0. -1.
        -13    1    3    3    0    0 -0.70213533062E+03  0.11543709895E+03 -0.43829711189E+03  0.83571771825E+03  0.00000000000E+00 0.  1.
         22    1    1    2    0    0  0.11483575721E+04 -0.25992624660E+03 -0.15184741033E+04  0.19214708870E+04  0.00000000000E+00 0. -1.
<mgrwt>
<rscale>  0 0.24304136E+04</rscale>
<asrwt>0</asrwt>
<pdfrwt beam="1">  1        2 0.42645819E+00 0.24304136E+04</pdfrwt>
<pdfrwt beam="2">  1       -2 0.81959104E-01 0.24304136E+04</pdfrwt>
<totfact> 0.28228771E+00</totfact>
</mgrwt>
</event>
<event>
 6    1  0.8968082E-007  0.1301089E+04  0.7818608E-02  0.9028702E-01
          1   -1    0    0  501    0  0.00000000000E+00  0.00000000000E+00  0.81119410406E+03  0.81119410406E+03  0.00000000000E+00 0. -1.
         -1   -1    0    0    0  501 -0.00000000000E+00 -0.00000000000E+00 -0.52170997926E+03  0.52170997926E+03  0.00000000000E+00 0.  1.
         23    2    1    2    0    0 -0.28547885301E+03 -0.47027320616E+03 -0.20446713287E+03  0.59355104930E+03  0.88549284303E+02 0.  0.
         13    1    3    3    0    0 -0.22609221655E+03 -0.36236697861E+03 -0.19643283435E+03  0.47012059728E+03  0.00000000000E+00 0. -1.
        -13    1    3    3    0    0 -0.59386636453E+02 -0.10790622755E+03 -0.80342985243E+01  0.12343045202E+03  0.00000000000E+00 0.  1.
         22    1    1    2    0    0  0.28547885301E+03  0.47027320616E+03  0.49395125768E+03  0.73935303401E+03  0.00000000000E+00 0. -1.
<mgrwt>
<rscale>  0 0.13010889E+04</rscale>
<asrwt>0</asrwt>
<pdfrwt beam="1">  1        1 0.12479909E+00 0.13010889E+04</pdfrwt>
<pdfrwt beam="2">  1       -1 0.80263074E-01 0.13010889E+04</pdfrwt>
<totfact> 0.32913538E+01</totfact>
</mgrwt>
</event>
<event>
 6    1  0.1207842E-006  0.2633821E+04  0.7818608E-02  0.8356803E-01
          2   -1    0    0  501    0  0.00000000000E+00  0.00000000000E+00  0.19929939457E+04  0.19929939457E+04  0.00000000000E+00 0. -1.
         -2   -1    0    0    0  501 -0.00000000000E+00 -0.00000000000E+00 -0.87017483786E+03  0.87017483786E+03  0.00000000000E+00 0.  1.
         23    2    1    2    0    0  0.10102117774E+04 -0.83378492018E+03  0.43164731683E+03  0.13821409063E+04  0.90933769521E+02 0.  0.
         11    1    3    3    0    0  0.44307466018E+03 -0.36037615055E+03  0.14106323248E+03  0.58828986048E+03  0.00000000000E+00 0.  1.
        -11    1    3    3    0    0  0.56713711727E+03 -0.47340876963E+03  0.29058408435E+03  0.79385104586E+03  0.00000000000E+00 0. -1.
         22    1    1    2    0    0 -0.10102117774E+04  0.83378492018E+03  0.69117179102E+03  0.14810278772E+04  0.00000000000E+00 0.  1.
<mgrwt>
<rscale>  0 0.26338209E+04</rscale>
<asrwt>0</asrwt>
<pdfrwt beam="1">  1        2 0.30661445E+00 0.26338209E+04</pdfrwt>
<pdfrwt beam="2">  1       -2 0.13387305E+00 0.26338209E+04</pdfrwt>
<totfact> 0.23969198E+00</totfact>
</mgrwt>
</event>
<event>
 6    1  0.8968082E-007  0.1560418E+04  0.7818608E-02  0.8845241E-01
         -1   -1    0    0    0  501 -0.00000000000E+00  0.00000000000E+00  0.30993654462E+03  0.30993654462E+03  0.00000000000E+00 0.  1.
          1   -1    0    0  501    0  0.00000000000E+00 -0.00000000000E+00 -0.19640347957E+04  0.19640347957E+04  0.00000000000E+00 0. -1.
         23    2    1    2    0    0 -0.18334483910E+03  0.57735114840E+03 -0.15399876060E+04  0.16575535292E+04  0.94721681503E+02 0.  0.
         13    1    3    3    0    0 -0.10550716204E+03  0.28217424383E+03 -0.88631226496E+03  0.93611083539E+03  0.00000000000E+00 0. -1.
        -13    1    3    3    0    0 -0.77837677060E+02  0.29517690457E+03 -0.65367534101E+03  0.72144269378E+03  0.00000000000E+00 0.  1.
         22    1    1    2    0    0  0.18334483910E+03 -0.57735114840E+03 -0.11411064512E+03  0.61641781116E+03  0.00000000000E+00 0.  1.
<mgrwt>
<rscale>  0 0.15604181E+04</rscale>
<asrwt>0</asrwt>
<pdfrwt beam="1">  1        1 0.30215919E+00 0.15604181E+04</pdfrwt>
<pdfrwt beam="2">  1       -1 0.47682546E-01 0.15604181E+04</pdfrwt>
<totfact> 0.13334066E+01</totfact>
</mgrwt>
</event>
<event>
 6    1  0.8968082E-007  0.1542125E+04  0.7818608E-02  0.8856913E-01
         -2   -1    0    0    0  501 -0.00000000000E+00  0.00000000000E+00  0.94385935580E+03  0.94385935580E+03  0.00000000000E+00 0.  1.
          2   -1    0    0  501    0  0.00000000000E+00 -0.00000000000E+00 -0.62990056686E+03  0.62990056686E+03  0.00000000000E+00 0. -1.
         23    2    1    2    0    0 -0.21884692998E+03  0.72754232569E+03  0.27436148316E+03  0.81298415999E+03  0.91963071494E+02 0.  0.
         13    1    3    3    0    0 -0.10232383954E+03  0.48523287233E+03  0.16361041978E+03  0.52219678091E+03  0.00000000000E+00 0. -1.
        -13    1    3    3    0    0 -0.11652309045E+03  0.24230945336E+03  0.11075106338E+03  0.29078737908E+03  0.00000000000E+00 0.  1.
         22    1    1    2    0    0  0.21884692998E+03 -0.72754232569E+03  0.39597305776E+02  0.76077576267E+03  0.00000000000E+00 0. -1.
<mgrwt>
<rscale>  0 0.15421252E+04</rscale>
<asrwt>0</asrwt>
<pdfrwt beam="1">  1        2 0.96907780E-01 0.15421252E+04</pdfrwt>
<pdfrwt beam="2">  1       -2 0.14520913E+00 0.15421252E+04</pdfrwt>
<totfact> 0.14686092E+01</totfact>
</mgrwt>
</event>
<event>
 6    1  0.8968082E-007  0.4967172E+04  0.7818608E-02  0.7833591E-01
          2   -1    0    0  501    0  0.00000000000E+00  0.00000000000E+00  0.19176990274E+04  0.19176990274E+04  0.00000000000E+00 0. -1.
         -2   -1    0    0    0  501 -0.00000000000E+00 -0.00000000000E+00 -0.32164583390E+04  0.32164583390E+04  0.00000000000E+00 0.  1.
         23    2    1    2    0    0 -0.17003722259E+04  0.17037136700E+04 -0.12791094465E+04  0.27270237820E+04  0.81435591190E+02 0.  0.
         13    1    3    3    0    0 -0.15083685765E+04  0.14803475246E+04 -0.11397321831E+04  0.24011651349E+04  0.00000000000E+00 0.  1.
        -13    1    3    3    0    0 -0.19200364942E+03  0.22336614544E+03 -0.13937726333E+03  0.32585864704E+03  0.00000000000E+00 0. -1.
         22    1    1    2    0    0  0.17003722259E+04 -0.17037136700E+04 -0.19649865049E+02  0.24071335844E+04  0.00000000000E+00 0.  1.
<mgrwt>
<rscale>  0 0.49671718E+04</rscale>
<asrwt>0</asrwt>
<pdfrwt beam="1">  1        2 0.29503062E+00 0.49671718E+04</pdfrwt>
<pdfrwt beam="2">  1       -2 0.49483975E+00 0.49671718E+04</pdfrwt>
<totfact> 0.96852918E-03</totfact>
</mgrwt>
</event>
<event>
 6    1  0.8968082E-007  0.4580000E+04  0.7818608E-02  0.7896779E-01
         -2   -1    0    0    0  501 -0.00000000000E+00  0.00000000000E+00  0.23865938876E+04  0.23865938876E+04  0.00000000000E+00 0.  1.
          2   -1    0    0  501    0  0.00000000000E+00 -0.00000000000E+00 -0.21973158252E+04  0.21973158252E+04  0.00000000000E+00 0. -1.
         23    2    1    2    0    0 -0.38471059051E+03  0.55649926909E+03 -0.20938019690E+04  0.22027024339E+04  0.10098342531E+03 0.  0.
         13    1    3    3    0    0 -0.17200206336E+03  0.26866567499E+03 -0.11461993796E+04  0.11897642508E+04  0.00000000000E+00 0. -1.
        -13    1    3    3    0    0 -0.21270852715E+03  0.28783359410E+03 -0.94760258936E+03  0.10129381831E+04  0.00000000000E+00 0.  1.
         22    1    1    2    0    0  0.38471059051E+03 -0.55649926909E+03  0.22830800314E+04  0.23812072788E+04  0.00000000000E+00 0.  1.
<mgrwt>
<rscale>  0 0.45800002E+04</rscale>
<asrwt>0</asrwt>
<pdfrwt beam="1">  1        2 0.33804859E+00 0.45800002E+04</pdfrwt>
<pdfrwt beam="2">  1       -2 0.36716829E+00 0.45800002E+04</pdfrwt>
<totfact> 0.47221318E-02</totfact>
</mgrwt>
</event>
<event>
 6    1  0.8968082E-007  0.2208680E+04  0.7818608E-02  0.8514824E-01
         -2   -1    0    0    0  501 -0.00000000000E+00  0.00000000000E+00  0.23058438924E+04  0.23058438924E+04  0.00000000000E+00 0.  1.
          2   -1    0    0  501    0  0.00000000000E+00 -0.00000000000E+00 -0.52890255037E+03  0.52890255037E+03  0.00000000000E+00 0. -1.
         23    2    1    2    0    0  0.24387322265E+03  0.76390629299E+03 -0.81063979413E+02  0.81108373677E+03  0.90876213061E+02 0.  0.
         13    1    3    3    0    0  0.10309273505E+03  0.34754953042E+03 -0.81519884740E+02  0.37157001995E+03  0.00000000000E+00 0. -1.
        -13    1    3    3    0    0  0.14078048760E+03  0.41635676257E+03  0.45590532751E+00  0.43951371682E+03  0.00000000000E+00 0.  1.
         22    1    1    2    0    0 -0.24387322265E+03 -0.76390629299E+03  0.18580053215E+04  0.20236627061E+04  0.00000000000E+00 0.  1.
<mgrwt>
<rscale>  0 0.22086799E+04</rscale>
<asrwt>0</asrwt>
<pdfrwt beam="1">  1        2 0.81369624E-01 0.22086799E+04</pdfrwt>
<pdfrwt beam="2">  1       -2 0.35474521E+00 0.22086799E+04</pdfrwt>
<totfact> 0.76579117E-01</totfact>
</mgrwt>
</event>
<event>
 6    1  0.8968082E-007  0.4384402E+04  0.7818608E-02  0.7931193E-01
         -2   -1    0    0    0  501 -0.00000000000E+00  0.00000000000E+00  0.16341739724E+04  0.16341739724E+04  0.00000000000E+00 0.  1.
          2   -1    0    0  501    0  0.00000000000E+00 -0.00000000000E+00 -0.29407798687E+04  0.29407798687E+04  0.00000000000E+00 0. -1.
         23    2    1    2    0    0  0.12330724015E+04 -0.18048686052E+04 -0.49356823255E+03  0.22427770742E+04  0.91766962128E+02 0.  0.
         11    1    3    3    0    0  0.39611505376E+03 -0.59681712866E+03 -0.20492674156E+03  0.74504549545E+03  0.00000000000E+00 0.  1.
        -11    1    3    3    0    0  0.83695734770E+03 -0.12080514765E+04 -0.28864149099E+03  0.14977315788E+04  0.00000000000E+00 0. -1.
         22    1    1    2    0    0 -0.12330724015E+04  0.18048686052E+04 -0.81303766383E+03  0.23321767669E+04  0.00000000000E+00 0. -1.
<mgrwt>
<rscale>  0 0.43844023E+04</rscale>
<asrwt>0</asrwt>
<pdfrwt beam="1">  1        2 0.45242766E+00 0.43844023E+04</pdfrwt>
<pdfrwt beam="2">  1       -2 0.25141138E+00 0.43844023E+04</pdfrwt>
<totfact> 0.91287663E-02</totfact>
</mgrwt>
</event>
<event>
 6    1  0.1143654E-006  0.3940425E+04  0.7818608E-02  0.8016674E-01
         -2   -1    0    0    0  501 -0.00000000000E+00  0.00000000000E+00  0.18871618764E+04  0.18871618764E+04  0.00000000000E+00 0.  1.
          2   -1    0    0  501    0  0.00000000000E+00 -0.00000000000E+00 -0.20569184810E+04  0.20569184810E+04  0.00000000000E+00 0. -1.
         23    2    1    2    0    0  0.10280776553E+04  0.40354442067E+02  0.15957369813E+04  0.19006666086E+04  0.87091315980E+02 0.  0.
         13    1    3    3    0    0  0.45614503802E+03  0.43424250141E+02  0.64581737745E+03  0.79185481385E+03  0.00000000000E+00 0. -1.
        -13    1    3    3    0    0  0.57193261726E+03 -0.30698080746E+01  0.94991960389E+03  0.11088117948E+04  0.00000000000E+00 0.  1.
         22    1    1    2    0    0 -0.10280776553E+04 -0.40354442067E+02 -0.17654935860E+04  0.20434137487E+04  0.00000000000E+00 0. -1.
<mgrwt>
<rscale>  0 0.39404254E+04</rscale>
<asrwt>0</asrwt>
<pdfrwt beam="1">  1        2 0.31644900E+00 0.39404254E+04</pdfrwt>
<pdfrwt beam="2">  1       -2 0.29033260E+00 0.39404254E+04</pdfrwt>
<totfact> 0.17930097E-01</totfact>
</mgrwt>
</event>
<event>
 6    1  0.8968082E-007  0.2244291E+04  0.7818608E-02  0.8500216E-01
          1   -1    0    0  501    0  0.00000000000E+00  0.00000000000E+00  0.19444327556E+04  0.19444327556E+04  0.00000000000E+00 0. -1.
         -1   -1    0    0    0  501 -0.00000000000E+00 -0.00000000000E+00 -0.64759799647E+03  0.64759799647E+03  0.00000000000E+00 0.  1.
         23    2    1    2    0    0 -0.97560157300E+03 -0.54118184806E+03  0.53041493772E+03  0.12384888929E+04  0.88535358755E+02 0.  0.
         13    1    3    3    0    0 -0.82828046606E+03 -0.45461360343E+03  0.41297949858E+03  0.10311518439E+04  0.00000000000E+00 0. -1.
        -13    1    3    3    0    0 -0.14732110695E+03 -0.86568244623E+02  0.11743543915E+03  0.20733704902E+03  0.00000000000E+00 0.  1.
         22    1    1    2    0    0  0.97560157300E+03  0.54118184806E+03  0.76641982142E+03  0.13535418592E+04  0.00000000000E+00 0.  1.
<mgrwt>
<rscale>  0 0.22442912E+04</rscale>
<asrwt>0</asrwt>
<pdfrwt beam="1">  1        1 0.29914350E+00 0.22442912E+04</pdfrwt>
<pdfrwt beam="2">  1       -1 0.99630462E-01 0.22442912E+04</pdfrwt>
<totfact> 0.28371640E+00</totfact>
</mgrwt>
</event>
<event>
 6    1  0.8968082E-007  0.2663908E+04  0.7818608E-02  0.8346811E-01
          2   -1    0    0  501    0  0.00000000000E+00  0.00000000000E+00  0.25240081095E+04  0.25240081095E+04  0.00000000000E+00 0. -1.
         -2   -1    0    0    0  501 -0.00000000000E+00 -0.00000000000E+00 -0.70289058581E+03  0.70289058581E+03  0.00000000000E+00 0.  1.
         23    2    1    2    0    0 -0.12590661786E+04 -0.23410755906E+03  0.13478397403E+04  0.18615980502E+04  0.93922007195E+02 0.  0.
         11    1    3    3    0    0 -0.44942609288E+03 -0.10304794698E+03  0.54504428285E+03  0.71391593525E+03  0.00000000000E+00 0.  1.
        -11    1    3    3    0    0 -0.80964008574E+03 -0.13105961208E+03  0.80279545745E+03  0.11476821149E+04  0.00000000000E+00 0. -1.
         22    1    1    2    0    0  0.12590661786E+04  0.23410755906E+03  0.47327778334E+03  0.13653006451E+04  0.00000000000E+00 0.  1.
<mgrwt>
<rscale>  0 0.26639081E+04</rscale>
<asrwt>0</asrwt>
<pdfrwt beam="1">  1        2 0.38830894E+00 0.26639081E+04</pdfrwt>
<pdfrwt beam="2">  1       -2 0.10813701E+00 0.26639081E+04</pdfrwt>
<totfact> 0.20306193E+00</totfact>
</mgrwt>
</event>
<event>
 6    1  0.8968082E-007  0.1939996E+04  0.7818608E-02  0.8635200E-01
         -2   -1    0    0    0  501 -0.00000000000E+00  0.00000000000E+00  0.11278681629E+04  0.11278681629E+04  0.00000000000E+00 0.  1.
          2   -1    0    0  501    0  0.00000000000E+00 -0.00000000000E+00 -0.83422535471E+03  0.83422535471E+03  0.00000000000E+00 0. -1.
         23    2    1    2    0    0  0.22387451966E+03 -0.82792757591E+03 -0.30648532959E+03  0.91531863576E+03  0.91055346970E+02 0.  0.
         13    1    3    3    0    0  0.96208271060E+02 -0.50414641816E+03 -0.20620268742E+03  0.55311770055E+03  0.00000000000E+00 0.  1.
        -13    1    3    3    0    0  0.12766624860E+03 -0.32378115775E+03 -0.10028264216E+03  0.36220093521E+03  0.00000000000E+00 0. -1.
         22    1    1    2    0    0 -0.22387451966E+03  0.82792757591E+03  0.60012813779E+03  0.10467748819E+04  0.00000000000E+00 0.  1.
<mgrwt>
<rscale>  0 0.19399961E+04</rscale>
<asrwt>0</asrwt>
<pdfrwt beam="1">  1        2 0.12834236E+00 0.19399961E+04</pdfrwt>
<pdfrwt beam="2">  1       -2 0.17351818E+00 0.19399961E+04</pdfrwt>
<totfact> 0.61146888E+00</totfact>
</mgrwt>
</event>
<event>
 6    1  0.8968082E-007  0.1960673E+04  0.7818608E-02  0.8625231E-01
          2   -1    0    0  501    0  0.00000000000E+00  0.00000000000E+00  0.19050318098E+04  0.19050318098E+04  0.00000000000E+00 0. -1.
         -2   -1    0    0    0  501 -0.00000000000E+00 -0.00000000000E+00 -0.50448464782E+03  0.50448464782E+03  0.00000000000E+00 0.  1.
         23    2    1    2    0    0 -0.63912908985E+03 -0.49072134947E+03  0.13831905362E+04  0.16035420853E+04  0.94009167455E+02 0.  0.
         13    1    3    3    0    0 -0.47159958563E+03 -0.30755715393E+03  0.96205518117E+03  0.11146962563E+04  0.00000000000E+00 0. -1.
        -13    1    3    3    0    0 -0.16752950422E+03 -0.18316419554E+03  0.42113535505E+03  0.48884582905E+03  0.00000000000E+00 0.  1.
         22    1    1    2    0    0  0.63912908985E+03  0.49072134947E+03  0.17356625725E+02  0.80597437228E+03  0.00000000000E+00 0.  1.
<mgrwt>
<rscale>  0 0.19606726E+04</rscale>
<asrwt>0</asrwt>
<pdfrwt beam="1">  1        2 0.29308181E+00 0.19606726E+04</pdfrwt>
<pdfrwt beam="2">  1       -2 0.77613024E-01 0.19606726E+04</pdfrwt>
<totfact> 0.10402706E+01</totfact>
</mgrwt>
</event>
<event>
 6    1  0.8968082E-007  0.2405438E+04  0.7818608E-02  0.8437471E-01
          1   -1    0    0  501    0  0.00000000000E+00  0.00000000000E+00  0.16675828896E+04  0.16675828896E+04  0.00000000000E+00 0. -1.
         -1   -1    0    0    0  501 -0.00000000000E+00 -0.00000000000E+00 -0.86744285365E+03  0.86744285365E+03  0.00000000000E+00 0.  1.
         23    2    1    2    0    0  0.10206350349E+04  0.40588238839E+03 -0.11138359762E+03  0.11076814532E+04  0.90086116215E+02 0.  0.
         13    1    3    3    0    0  0.70752280010E+03  0.31576184039E+03 -0.52348685620E+02  0.77655291989E+03  0.00000000000E+00 0.  1.
        -13    1    3    3    0    0  0.31311223482E+03  0.90120548002E+02 -0.59034912004E+02  0.33112853335E+03  0.00000000000E+00 0. -1.
         22    1    1    2    0    0 -0.10206350349E+04 -0.40588238839E+03  0.91152363362E+03  0.14273442901E+04  0.00000000000E+00 0. -1.
<mgrwt>
<rscale>  0 0.24054379E+04</rscale>
<asrwt>0</asrwt>
<pdfrwt beam="1">  1        1 0.25655121E+00 0.24054379E+04</pdfrwt>
<pdfrwt beam="2">  1       -1 0.13345275E+00 0.24054379E+04</pdfrwt>
<totfact> 0.21312964E+00</totfact>
</mgrwt>
</event>
<event>
 6    1  0.8968082E-007  0.3385614E+04  0.7818608E-02  0.8141446E-01
         -2   -1    0    0    0  501 -0.00000000000E+00  0.00000000000E+00  0.11086032029E+04  0.11086032029E+04  0.00000000000E+00 0.  1.
          2   -1    0    0  501    0  0.00000000000E+00 -0.00000000000E+00 -0.25848697417E+04  0.25848697417E+04  0.00000000000E+00 0. -1.
         23    2    1    2    0    0 -0.12118752595E+04 -0.55839967062E+03 -0.18728595392E+04  0.23014464202E+04  0.92741224256E+02 0.  0.
         11    1    3    3    0    0 -0.53355356869E+03 -0.21904784894E+03 -0.87647805632E+03  0.10492259785E+04  0.00000000000E+00 0. -1.
        -11    1    3    3    0    0 -0.67832169085E+03 -0.33935182168E+03 -0.99638148285E+03  0.12522204417E+04  0.00000000000E+00 0.  1.
         22    1    1    2    0    0  0.12118752595E+04  0.55839967062E+03  0.39659300031E+03  0.13920265244E+04  0.00000000000E+00 0.  1.
<mgrwt>
<rscale>  0 0.33856136E+04</rscale>
<asrwt>0</asrwt>
<pdfrwt beam="1">  1        2 0.39767226E+00 0.33856136E+04</pdfrwt>
<pdfrwt beam="2">  1       -2 0.17055434E+00 0.33856136E+04</pdfrwt>
<totfact> 0.54399968E-01</totfact>
</mgrwt>
</event>
<event>
 6    1  0.8968082E-007  0.2683417E+04  0.7818608E-02  0.8340406E-01
         -1   -1    0    0    0  501 -0.00000000000E+00  0.00000000000E+00  0.47773901085E+03  0.47773901085E+03  0.00000000000E+00 0.  1.
          1   -1    0    0  501    0  0.00000000000E+00 -0.00000000000E+00 -0.37681284083E+04  0.37681284083E+04  0.00000000000E+00 0. -1.
         23    2    1    2    0    0  0.77920403771E+03  0.14834380645E+03  0.62167689197E+02  0.80075438232E+03  0.90431974093E+02 0.  0.
         11    1    3    3    0    0  0.54693601869E+03  0.74626463448E+02  0.73104418524E+02  0.55682346717E+03  0.00000000000E+00 0. -1.
        -11    1    3    3    0    0  0.23226801902E+03  0.73717343004E+02 -0.10936729327E+02  0.24393091515E+03  0.00000000000E+00 0.  1.
         22    1    1    2    0    0 -0.77920403771E+03 -0.14834380645E+03 -0.33525570867E+04  0.34451130368E+04  0.00000000000E+00 0. -1.
<mgrwt>
<rscale>  0 0.26834172E+04</rscale>
<asrwt>0</asrwt>
<pdfrwt beam="1">  1        1 0.57971209E+00 0.26834172E+04</pdfrwt>
<pdfrwt beam="2">  1       -1 0.73498306E-01 0.26834172E+04</pdfrwt>
<totfact> 0.24727057E-01</totfact>
</mgrwt>
</event>
<event>
 6    1  0.8968082E-007  0.4535667E+03  0.7818608E-02  0.1026664E+00
         -1   -1    0    0    0  501 -0.00000000000E+00  0.00000000000E+00  0.76710714088E+03  0.76710714088E+03  0.00000000000E+00 0.  1.
          1   -1    0    0  501    0  0.00000000000E+00 -0.00000000000E+00 -0.67044994391E+02  0.67044994391E+02  0.00000000000E+00 0. -1.
         23    2    1    2    0    0 -0.10316910364E+03 -0.10381160974E+03  0.67127108537E+02  0.18451571655E+03  0.90107084563E+02 0.  0.
         11    1    3    3    0    0 -0.11267567939E+03 -0.10671931075E+03  0.74490621710E+02  0.17214433692E+03  0.00000000000E+00 0.  1.
        -11    1    3    3    0    0  0.95065757444E+01  0.29077010069E+01 -0.73635131730E+01  0.12371379623E+02  0.00000000000E+00 0. -1.
         22    1    1    2    0    0  0.10316910364E+03  0.10381160974E+03  0.63293503795E+03  0.64963641872E+03  0.00000000000E+00 0.  1.
<mgrwt>
<rscale>  0 0.45356673E+03</rscale>
<asrwt>0</asrwt>
<pdfrwt beam="1">  1        1 0.10314615E-01 0.45356673E+03</pdfrwt>
<pdfrwt beam="2">  1       -1 0.11801648E+00 0.45356673E+03</pdfrwt>
<totfact> 0.42235141E+02</totfact>
</mgrwt>
</event>
<event>
 6    1  0.8968082E-007  0.1802193E+04  0.7818608E-02  0.8705134E-01
          2   -1    0    0  501    0  0.00000000000E+00  0.00000000000E+00  0.30334636963E+04  0.30334636963E+04  0.00000000000E+00 0. -1.
         -2   -1    0    0    0  501 -0.00000000000E+00 -0.00000000000E+00 -0.26767239242E+03  0.26767239242E+03  0.00000000000E+00 0.  1.
         23    2    1    2    0    0 -0.40552589053E+03 -0.40502943802E+03  0.26553211831E+04  0.27174377581E+04  0.72369125867E+02 0.  0.
         13    1    3    3    0    0 -0.24213982500E+03 -0.19363595127E+03  0.13707178056E+04  0.14053447545E+04  0.00000000000E+00 0.  1.
        -13    1    3    3    0    0 -0.16338606552E+03 -0.21139348676E+03  0.12846033775E+04  0.13120930036E+04  0.00000000000E+00 0. -1.
         22    1    1    2    0    0  0.40552589053E+03  0.40502943802E+03  0.11047012079E+03  0.58369833059E+03  0.00000000000E+00 0.  1.
<mgrwt>
<rscale>  0 0.18021925E+04</rscale>
<asrwt>0</asrwt>
<pdfrwt beam="1">  1        2 0.46668670E+00 0.18021925E+04</pdfrwt>
<pdfrwt beam="2">  1       -2 0.41180370E-01 0.18021925E+04</pdfrwt>
<totfact> 0.87811093E+00</totfact>
</mgrwt>
</event>
<event>
 6    1  0.8968082E-007  0.3282670E+04  0.7818608E-02  0.8167319E-01
          1   -1    0    0  501    0  0.00000000000E+00  0.00000000000E+00  0.17566953136E+04  0.17566953136E+04  0.00000000000E+00 0. -1.
         -1   -1    0    0    0  501 -0.00000000000E+00 -0.00000000000E+00 -0.15335503871E+04  0.15335503871E+04  0.00000000000E+00 0.  1.
         23    2    1    2    0    0 -0.21081174212E+03  0.15886536794E+04 -0.23778463971E+03  0.16226971501E+04  0.91336753069E+02 0.  0.
         11    1    3    3    0    0 -0.80372449266E+02  0.57140566373E+03 -0.12981536001E+03  0.59145261081E+03  0.00000000000E+00 0.  1.
        -11    1    3    3    0    0 -0.13043929285E+03  0.10172480157E+04 -0.10796927970E+03  0.10312445393E+04  0.00000000000E+00 0. -1.
         22    1    1    2    0    0  0.21081174212E+03 -0.15886536794E+04  0.46092956618E+03  0.16675485506E+04  0.00000000000E+00 0. -1.
<mgrwt>
<rscale>  0 0.32826701E+04</rscale>
<asrwt>0</asrwt>
<pdfrwt beam="1">  1        1 0.27026082E+00 0.32826701E+04</pdfrwt>
<pdfrwt beam="2">  1       -1 0.23593083E+00 0.32826701E+04</pdfrwt>
<totfact> 0.31240171E-01</totfact>
</mgrwt>
</event>
<event>
 6    1  0.8968082E-007  0.9532638E+03  0.7818608E-02  0.9361344E-01
          2   -1    0    0  501    0  0.00000000000E+00  0.00000000000E+00  0.22230951607E+04  0.22230951607E+04  0.00000000000E+00 0. -1.
         -2   -1    0    0    0  501 -0.00000000000E+00 -0.00000000000E+00 -0.10218993550E+03  0.10218993550E+03  0.00000000000E+00 0.  1.
         23    2    1    2    0    0 -0.16006251912E+03  0.36288660287E+03  0.44585406135E+03  0.60391845946E+03  0.92870690123E+02 0.  0.
         13    1    3    3    0    0 -0.14300119062E+03  0.22382930377E+03  0.26561328208E+03  0.37563188545E+03  0.00000000000E+00 0. -1.
        -13    1    3    3    0    0 -0.17061328494E+02  0.13905729910E+03  0.18024077927E+03  0.22828657401E+03  0.00000000000E+00 0.  1.
         22    1    1    2    0    0  0.16006251912E+03 -0.36288660287E+03  0.16750511639E+04  0.17213666368E+04  0.00000000000E+00 0. -1.
<mgrwt>
<rscale>  0 0.95326376E+03</rscale>
<asrwt>0</asrwt>
<pdfrwt beam="1">  1        2 0.34201460E+00 0.95326376E+03</pdfrwt>
<pdfrwt beam="2">  1       -2 0.15721530E-01 0.95326376E+03</pdfrwt>
<totfact> 0.16400117E+02</totfact>
</mgrwt>
</event>
<event>
 6    1  0.8968082E-007  0.1897699E+04  0.7818608E-02  0.8656003E-01
          2   -1    0    0  501    0  0.00000000000E+00  0.00000000000E+00  0.12953064935E+04  0.12953064935E+04  0.00000000000E+00 0. -1.
         -2   -1    0    0    0  501 -0.00000000000E+00 -0.00000000000E+00 -0.69505962220E+03  0.69505962220E+03  0.00000000000E+00 0.  1.
         23    2    1    2    0    0  0.81002390423E+03  0.48620803641E+03  0.36381495259E+03  0.10164887968E+04  0.91384758754E+02 0.  0.
         11    1    3    3    0    0  0.11003488940E+03  0.71672738949E+02  0.18130256503E+02  0.13256456764E+03  0.00000000000E+00 0.  1.
        -11    1    3    3    0    0  0.69998901483E+03  0.41453529746E+03  0.34568469608E+03  0.88392422913E+03  0.00000000000E+00 0. -1.
         22    1    1    2    0    0 -0.81002390423E+03 -0.48620803641E+03  0.23643191869E+03  0.97387731890E+03  0.00000000000E+00 0. -1.
<mgrwt>
<rscale>  0 0.18976989E+04</rscale>
<asrwt>0</asrwt>
<pdfrwt beam="1">  1        2 0.19927792E+00 0.18976989E+04</pdfrwt>
<pdfrwt beam="2">  1       -2 0.10693225E+00 0.18976989E+04</pdfrwt>
<totfact> 0.10965283E+01</totfact>
</mgrwt>
</event>
<event>
 6    1  0.8968082E-007  0.2606475E+04  0.7818608E-02  0.8366005E-01
         -2   -1    0    0    0  501 -0.00000000000E+00  0.00000000000E+00  0.54981161084E+03  0.54981161084E+03  0.00000000000E+00 0.  1.
          2   -1    0    0  501    0  0.00000000000E+00 -0.00000000000E+00 -0.30891094488E+04  0.30891094488E+04  0.00000000000E+00 0. -1.
         23    2    1    2    0    0 -0.11148124477E+04  0.67212492681E+03 -0.12876398915E+04  0.18330400210E+04  0.86374287074E+02 0.  0.
         11    1    3    3    0    0 -0.91374060168E+02  0.83776192838E+02 -0.13058810039E+03  0.18005810541E+03  0.00000000000E+00 0.  1.
        -11    1    3    3    0    0 -0.10234383876E+04  0.58834873398E+03 -0.11570517911E+04  0.16529819156E+04  0.00000000000E+00 0. -1.
         22    1    1    2    0    0  0.11148124477E+04 -0.67212492681E+03 -0.12516579464E+04  0.18058810386E+04  0.00000000000E+00 0.  1.
<mgrwt>
<rscale>  0 0.26064752E+04</rscale>
<asrwt>0</asrwt>
<pdfrwt beam="1">  1        2 0.47524761E+00 0.26064752E+04</pdfrwt>
<pdfrwt beam="2">  1       -2 0.84586401E-01 0.26064752E+04</pdfrwt>
<totfact> 0.16471114E+00</totfact>
</mgrwt>
</event>
<event>
 6    1  0.8968082E-007  0.1736538E+04  0.7818608E-02  0.8740795E-01
          2   -1    0    0  501    0  0.00000000000E+00  0.00000000000E+00  0.21376111120E+04  0.21376111120E+04  0.00000000000E+00 0. -1.
         -2   -1    0    0    0  501 -0.00000000000E+00 -0.00000000000E+00 -0.35267925727E+03  0.35267925727E+03  0.00000000000E+00 0.  1.
         23    2    1    2    0    0 -0.82882195358E+03 -0.16028346727E+03  0.61895920016E+03  0.10508012753E+04  0.91848832320E+02 0.  0.
         11    1    3    3    0    0 -0.60930352806E+03 -0.76501559572E+02  0.44008772305E+03  0.75550015348E+03  0.00000000000E+00 0. -1.
        -11    1    3    3    0    0 -0.21951842551E+03 -0.83781907695E+02  0.17887147711E+03  0.29530112178E+03  0.00000000000E+00 0.  1.
         22    1    1    2    0    0  0.82882195358E+03  0.16028346727E+03  0.11659726546E+04  0.14394890940E+04  0.00000000000E+00 0. -1.
<mgrwt>
<rscale>  0 0.17365380E+04</rscale>
<asrwt>0</asrwt>
<pdfrwt beam="1">  1        2 0.32886324E+00 0.17365380E+04</pdfrwt>
<pdfrwt beam="2">  1       -2 0.54258348E-01 0.17365380E+04</pdfrwt>
<totfact> 0.16990383E+01</totfact>
</mgrwt>
</event>
<event>
 6    1  0.8968082E-007  0.2333251E+04  0.7818608E-02  0.8464925E-01
          1   -1    0    0  501    0  0.00000000000E+00  0.00000000000E+00  0.12410578304E+04  0.12410578304E+04  0.00000000000E+00 0. -1.
         -1   -1    0    0    0  501 -0.00000000000E+00 -0.00000000000E+00 -0.10966571433E+04  0.10966571433E+04  0.00000000000E+00 0.  1.
         23    2    1    2    0    0  0.17616167090E+03 -0.99029480101E+03 -0.51626968737E+03  0.11343022968E+04  0.91600126720E+02 0.  0.
         11    1    3    3    0    0  0.38343554872E+02 -0.34352201370E+03 -0.21957944545E+03  0.40950303413E+03  0.00000000000E+00 0. -1.
        -11    1    3    3    0    0  0.13781811603E+03 -0.64677278731E+03 -0.29669024192E+03  0.72479926267E+03  0.00000000000E+00 0.  1.
         22    1    1    2    0    0 -0.17616167090E+03  0.99029480101E+03  0.66067037449E+03  0.12034126769E+04  0.00000000000E+00 0. -1.
<mgrwt>
<rscale>  0 0.23332509E+04</rscale>
<asrwt>0</asrwt>
<pdfrwt beam="1">  1        1 0.19093197E+00 0.23332509E+04</pdfrwt>
<pdfrwt beam="2">  1       -1 0.16871648E+00 0.23332509E+04</pdfrwt>
<totfact> 0.22609829E+00</totfact>
</mgrwt>
</event>
<event>
 6    1  0.8968082E-007  0.1948043E+04  0.7818608E-02  0.8631305E-01
          1   -1    0    0  501    0  0.00000000000E+00  0.00000000000E+00  0.29767709087E+04  0.29767709087E+04  0.00000000000E+00 0. -1.
         -1   -1    0    0    0  501 -0.00000000000E+00 -0.00000000000E+00 -0.31870707190E+03  0.31870707190E+03  0.00000000000E+00 0.  1.
         23    2    1    2    0    0  0.96435213321E+03 -0.64040711493E+02  0.11755182253E+04  0.15257272242E+04  0.10919805472E+03 0.  0.
         13    1    3    3    0    0  0.81916788520E+03 -0.14766853645E+02  0.98815073023E+03  0.12836260942E+04  0.00000000000E+00 0. -1.
        -13    1    3    3    0    0  0.14518424801E+03 -0.49273857849E+02  0.18736749508E+03  0.24210113001E+03  0.00000000000E+00 0.  1.
         22    1    1    2    0    0 -0.96435213321E+03  0.64040711493E+02  0.14825456115E+04  0.17697507564E+04  0.00000000000E+00 0.  1.
<mgrwt>
<rscale>  0 0.19480431E+04</rscale>
<asrwt>0</asrwt>
<pdfrwt beam="1">  1        1 0.45796474E+00 0.19480431E+04</pdfrwt>
<pdfrwt beam="2">  1       -1 0.49031859E-01 0.19480431E+04</pdfrwt>
<totfact> 0.24177295E+00</totfact>
</mgrwt>
</event>
<event>
 6    1  0.8968082E-007  0.1490693E+04  0.7818608E-02  0.8890666E-01
          2   -1    0    0  501    0  0.00000000000E+00  0.00000000000E+00  0.14087464985E+04  0.14087464985E+04  0.00000000000E+00 0. -1.
         -2   -1    0    0    0  501 -0.00000000000E+00 -0.00000000000E+00 -0.39435159804E+03  0.39435159804E+03  0.00000000000E+00 0.  1.
         23    2    1    2    0    0  0.18484421732E+03  0.63274882677E+03  0.92310227207E+03  0.11376112022E+04  0.86619745279E+02 0.  0.
         13    1    3    3    0    0  0.46817246767E+02  0.30894989606E+03  0.45369697874E+03  0.55089276760E+03  0.00000000000E+00 0.  1.
        -13    1    3    3    0    0  0.13802697055E+03  0.32379893071E+03  0.46940529333E+03  0.58671843463E+03  0.00000000000E+00 0. -1.
         22    1    1    2    0    0 -0.18484421732E+03 -0.63274882677E+03  0.91292628349E+02  0.66548689428E+03  0.00000000000E+00 0.  1.
<mgrwt>
<rscale>  0 0.14906930E+04</rscale>
<asrwt>0</asrwt>
<pdfrwt beam="1">  1        2 0.21673023E+00 0.14906930E+04</pdfrwt>
<pdfrwt beam="2">  1       -2 0.60669477E-01 0.14906930E+04</pdfrwt>
<totfact> 0.34984475E+01</totfact>
</mgrwt>
</event>
<event>
 6    1  0.8968082E-007  0.1263031E+04  0.7818608E-02  0.9059407E-01
         -2   -1    0    0    0  501 -0.00000000000E+00  0.00000000000E+00  0.87037302840E+03  0.87037302840E+03  0.00000000000E+00 0.  1.
          2   -1    0    0  501    0  0.00000000000E+00 -0.00000000000E+00 -0.45820758825E+03  0.45820758825E+03  0.00000000000E+00 0. -1.
         23    2    1    2    0    0 -0.17048915536E+03  0.91105505269E+02  0.83595934174E+03  0.86278233820E+03  0.90545993171E+02 0.  0.
         13    1    3    3    0    0 -0.97334856960E+02  0.91830879136E+02  0.43196884001E+03  0.45222125501E+03  0.00000000000E+00 0.  1.
        -13    1    3    3    0    0 -0.73154298399E+02 -0.72537386699E+00  0.40399050173E+03  0.41056108319E+03  0.00000000000E+00 0. -1.
         22    1    1    2    0    0  0.17048915536E+03 -0.91105505269E+02 -0.42379390159E+03  0.46579827845E+03  0.00000000000E+00 0. -1.
<mgrwt>
<rscale>  0 0.12630305E+04</rscale>
<asrwt>0</asrwt>
<pdfrwt beam="1">  1        2 0.70493475E-01 0.12630305E+04</pdfrwt>
<pdfrwt beam="2">  1       -2 0.13390354E+00 0.12630305E+04</pdfrwt>
<totfact> 0.26945983E+01</totfact>
</mgrwt>
</event>
<event>
 6    1  0.8968082E-007  0.2287961E+04  0.7818608E-02  0.8482683E-01
          1   -1    0    0  501    0  0.00000000000E+00  0.00000000000E+00  0.40651246688E+04  0.40651246688E+04  0.00000000000E+00 0. -1.
         -1   -1    0    0    0  501 -0.00000000000E+00 -0.00000000000E+00 -0.32193136283E+03  0.32193136283E+03  0.00000000000E+00 0.  1.
         23    2    1    2    0    0  0.88336058834E+03  0.59328885960E+03  0.26704343455E+04  0.28760532562E+04  0.90250424292E+02 0.  0.
         13    1    3    3    0    0  0.51160377152E+03  0.31701541009E+03  0.14033377253E+04  0.15269557821E+04  0.00000000000E+00 0. -1.
        -13    1    3    3    0    0  0.37175681682E+03  0.27627344951E+03  0.12670966202E+04  0.13490974741E+04  0.00000000000E+00 0.  1.
         22    1    1    2    0    0 -0.88336058834E+03 -0.59328885960E+03  0.10727589604E+04  0.15110027753E+04  0.00000000000E+00 0.  1.
<mgrwt>
<rscale>  0 0.22879608E+04</rscale>
<asrwt>0</asrwt>
<pdfrwt beam="1">  1        1 0.62540376E+00 0.22879608E+04</pdfrwt>
<pdfrwt beam="2">  1       -1 0.49527905E-01 0.22879608E+04</pdfrwt>
<totfact> 0.31214064E-01</totfact>
</mgrwt>
</event>
<event>
 6    1  0.8968082E-007  0.1947465E+04  0.7818608E-02  0.8631584E-01
          1   -1    0    0  501    0  0.00000000000E+00  0.00000000000E+00  0.15991233832E+04  0.15991233832E+04  0.00000000000E+00 0. -1.
         -1   -1    0    0    0  501 -0.00000000000E+00 -0.00000000000E+00 -0.59292170020E+03  0.59292170020E+03  0.00000000000E+00 0.  1.
         23    2    1    2    0    0 -0.66761868343E+03 -0.21616189916E+02  0.12982860383E+04  0.14630078849E+04  0.93077750998E+02 0.  0.
         13    1    3    3    0    0 -0.26188911695E+03 -0.45004030291E+02  0.45527746055E+03  0.52715162752E+03  0.00000000000E+00 0.  1.
        -13    1    3    3    0    0 -0.40572956648E+03  0.23387840375E+02  0.84300857779E+03  0.93585625735E+03  0.00000000000E+00 0. -1.
         22    1    1    2    0    0  0.66761868343E+03  0.21616189916E+02 -0.29208435537E+03  0.72903719849E+03  0.00000000000E+00 0.  1.
<mgrwt>
<rscale>  0 0.19474650E+04</rscale>
<asrwt>0</asrwt>
<pdfrwt beam="1">  1        1 0.24601898E+00 0.19474650E+04</pdfrwt>
<pdfrwt beam="2">  1       -1 0.91218723E-01 0.19474650E+04</pdfrwt>
<totfact> 0.61046391E+00</totfact>
</mgrwt>
</event>
<event>
 6    1  0.8968082E-007  0.1460651E+04  0.7818608E-02  0.8911050E-01
         -2   -1    0    0    0  501 -0.00000000000E+00  0.00000000000E+00  0.69196088741E+03  0.69196088741E+03  0.00000000000E+00 0.  1.
          2   -1    0    0  501    0  0.00000000000E+00 -0.00000000000E+00 -0.77081703831E+03  0.77081703831E+03  0.00000000000E+00 0. -1.
         23    2    1    2    0    0  0.15322654420E+03 -0.13043975529E+03 -0.73986795765E+03  0.77181518268E+03  0.88324276666E+02 0.  0.
         11    1    3    3    0    0  0.37575341149E+02 -0.36594758511E+02 -0.35987268281E+03  0.36367489664E+03  0.00000000000E+00 0. -1.
        -11    1    3    3    0    0  0.11565120305E+03 -0.93844996776E+02 -0.37999527484E+03  0.40814028604E+03  0.00000000000E+00 0.  1.
         22    1    1    2    0    0 -0.15322654420E+03  0.13043975529E+03  0.66101180675E+03  0.69096274304E+03  0.00000000000E+00 0.  1.
<mgrwt>
<rscale>  0 0.14606509E+04</rscale>
<asrwt>0</asrwt>
<pdfrwt beam="1">  1        2 0.11858724E+00 0.14606509E+04</pdfrwt>
<pdfrwt beam="2">  1       -2 0.10645552E+00 0.14606509E+04</pdfrwt>
<totfact> 0.24936824E+01</totfact>
</mgrwt>
</event>
<event>
 6    1  0.8968082E-007  0.4553603E+04  0.7818608E-02  0.7901319E-01
         -2   -1    0    0    0  501 -0.00000000000E+00  0.00000000000E+00  0.22662837675E+04  0.22662837675E+04  0.00000000000E+00 0.  1.
          2   -1    0    0  501    0  0.00000000000E+00 -0.00000000000E+00 -0.22873678829E+04  0.22873678829E+04  0.00000000000E+00 0. -1.
         23    2    1    2    0    0  0.71110814042E+03 -0.17448390460E+04 -0.12870736822E+04  0.22836587723E+04  0.91655010719E+02 0.  0.
         13    1    3    3    0    0  0.58502386684E+03 -0.13911608429E+04 -0.99048075036E+03  0.18051685607E+04  0.00000000000E+00 0. -1.
        -13    1    3    3    0    0  0.12608427358E+03 -0.35367820306E+03 -0.29659293183E+03  0.47849021158E+03  0.00000000000E+00 0.  1.
         22    1    1    2    0    0 -0.71110814042E+03  0.17448390460E+04  0.12659895667E+04  0.22699928782E+04  0.00000000000E+00 0.  1.
<mgrwt>
<rscale>  0 0.45536028E+04</rscale>
<asrwt>0</asrwt>
<pdfrwt beam="1">  1        2 0.35190275E+00 0.45536028E+04</pdfrwt>
<pdfrwt beam="2">  1       -2 0.34865904E+00 0.45536028E+04</pdfrwt>
<totfact> 0.55163165E-02</totfact>
</mgrwt>
</event>
<event>
 6    1  0.8968082E-007  0.4381179E+04  0.7818608E-02  0.7931775E-01
          2   -1    0    0  501    0  0.00000000000E+00  0.00000000000E+00  0.19056380036E+04  0.19056380036E+04  0.00000000000E+00 0. -1.
         -2   -1    0    0    0  501 -0.00000000000E+00 -0.00000000000E+00 -0.25181502013E+04  0.25181502013E+04  0.00000000000E+00 0.  1.
         23    2    1    2    0    0 -0.89843311363E+03 -0.24681207160E+03 -0.23070534082E+04  0.24899918940E+04  0.97293091707E+02 0.  0.
         11    1    3    3    0    0 -0.60679808744E+02 -0.34562504829E+02 -0.22851717710E+03  0.23894917066E+03  0.00000000000E+00 0. -1.
        -11    1    3    3    0    0 -0.83775330489E+03 -0.21224956677E+03 -0.20785362311E+04  0.22510427233E+04  0.00000000000E+00 0.  1.
         22    1    1    2    0    0  0.89843311363E+03  0.24681207160E+03  0.16945412104E+04  0.19337963109E+04  0.00000000000E+00 0. -1.
<mgrwt>
<rscale>  0 0.43811792E+04</rscale>
<asrwt>0</asrwt>
<pdfrwt beam="1">  1        2 0.29317508E+00 0.43811792E+04</pdfrwt>
<pdfrwt beam="2">  1       -2 0.38740772E+00 0.43811792E+04</pdfrwt>
<totfact> 0.51704135E-02</totfact>
</mgrwt>
</event>
<event>
 6    1  0.8968082E-007  0.1477319E+04  0.7818608E-02  0.8899677E-01
          2   -1    0    0  501    0  0.00000000000E+00  0.00000000000E+00  0.15359279613E+04  0.15359279613E+04  0.00000000000E+00 0. -1.
         -2   -1    0    0    0  501 -0.00000000000E+00 -0.00000000000E+00 -0.35523645069E+03  0.35523645069E+03  0.00000000000E+00 0.  1.
         23    2    1    2    0    0  0.38370710960E+03 -0.31002845594E+03  0.12916552606E+04  0.13855343661E+04  0.89349750340E+02 0.  0.
         13    1    3    3    0    0  0.22765816835E+03 -0.18441056142E+03  0.64193269424E+03  0.70562956338E+03  0.00000000000E+00 0. -1.
        -13    1    3    3    0    0  0.15604894125E+03 -0.12561789452E+03  0.64972256641E+03  0.67990480274E+03  0.00000000000E+00 0.  1.
         22    1    1    2    0    0 -0.38370710960E+03  0.31002845594E+03 -0.11096375006E+03  0.50563004586E+03  0.00000000000E+00 0.  1.
<mgrwt>
<rscale>  0 0.14773186E+04</rscale>
<asrwt>0</asrwt>
<pdfrwt beam="1">  1        2 0.23629661E+00 0.14773186E+04</pdfrwt>
<pdfrwt beam="2">  1       -2 0.54651762E-01 0.14773186E+04</pdfrwt>
<totfact> 0.36931952E+01</totfact>
</mgrwt>
</event>
<event>
 6    1  0.8968082E-007  0.4853590E+04  0.7818608E-02  0.7851498E-01
          2   -1    0    0  501    0  0.00000000000E+00  0.00000000000E+00  0.27636134514E+04  0.27636134514E+04  0.00000000000E+00 0. -1.
         -2   -1    0    0    0  501 -0.00000000000E+00 -0.00000000000E+00 -0.21310270174E+04  0.21310270174E+04  0.00000000000E+00 0.  1.
         23    2    1    2    0    0 -0.15266634839E+04  0.18455645056E+04 -0.72114993611E+02  0.23979599047E+04  0.90561554336E+02 0.  0.
         11    1    3    3    0    0 -0.18277483960E+03  0.26473012158E+03  0.34935578297E+01  0.32171553306E+03  0.00000000000E+00 0. -1.
        -11    1    3    3    0    0 -0.13438886443E+04  0.15808343840E+04 -0.75608551441E+02  0.20762443717E+04  0.00000000000E+00 0.  1.
         22    1    1    2    0    0  0.15266634839E+04 -0.18455645056E+04  0.70470142764E+03  0.24966805641E+04  0.00000000000E+00 0.  1.
<mgrwt>
<rscale>  0 0.48535904E+04</rscale>
<asrwt>0</asrwt>
<pdfrwt beam="1">  1        2 0.42517130E+00 0.48535904E+04</pdfrwt>
<pdfrwt beam="2">  1       -2 0.32785031E+00 0.48535904E+04</pdfrwt>
<totfact> 0.38346166E-02</totfact>
</mgrwt>
</event>
<event>
 6    1  0.8968082E-007  0.1104495E+04  0.7818608E-02  0.9200822E-01
         -2   -1    0    0    0  501 -0.00000000000E+00  0.00000000000E+00  0.99105861298E+03  0.99105861298E+03  0.00000000000E+00 0.  1.
          2   -1    0    0  501    0  0.00000000000E+00 -0.00000000000E+00 -0.30772861034E+03  0.30772861034E+03  0.00000000000E+00 0. -1.
         23    2    1    2    0    0  0.31703235524E+03  0.17744201799E+03 -0.14046715240E+03  0.39843343916E+03  0.83803344347E+02 0.  0.
         13    1    3    3    0    0  0.24556564834E+03  0.16637892411E+03 -0.13503321663E+03  0.32591165003E+03  0.00000000000E+00 0. -1.
        -13    1    3    3    0    0  0.71466706893E+02  0.11063093882E+02 -0.54339357677E+01  0.72521789128E+02  0.00000000000E+00 0.  1.
         22    1    1    2    0    0 -0.31703235524E+03 -0.17744201799E+03  0.82379715503E+03  0.90035378416E+03  0.00000000000E+00 0.  1.
<mgrwt>
<rscale>  0 0.11044946E+04</rscale>
<asrwt>0</asrwt>
<pdfrwt beam="1">  1        2 0.47342864E-01 0.11044946E+04</pdfrwt>
<pdfrwt beam="2">  1       -2 0.15247055E+00 0.11044946E+04</pdfrwt>
<totfact> 0.30354507E+01</totfact>
</mgrwt>
</event>
<event>
 6    1  0.8968082E-007  0.1297621E+04  0.7818608E-02  0.9031454E-01
         -2   -1    0    0    0  501 -0.00000000000E+00  0.00000000000E+00  0.23693482687E+03  0.23693482687E+03  0.00000000000E+00 0.  1.
          2   -1    0    0  501    0  0.00000000000E+00 -0.00000000000E+00 -0.17766706946E+04  0.17766706946E+04  0.00000000000E+00 0. -1.
         23    2    1    2    0    0  0.32295803018E+03 -0.51991224379E+03 -0.45594710057E+03  0.76893338700E+03  0.93595751169E+02 0.  0.
         11    1    3    3    0    0  0.26473753995E+03 -0.36956795060E+03 -0.37053144511E+03  0.58648102014E+03  0.00000000000E+00 0.  1.
        -11    1    3    3    0    0  0.58220490226E+02 -0.15034429319E+03 -0.85415655455E+02  0.18245236686E+03  0.00000000000E+00 0. -1.
         22    1    1    2    0    0 -0.32295803018E+03  0.51991224379E+03 -0.10837887672E+04  0.12446721345E+04  0.00000000000E+00 0.  1.
<mgrwt>
<rscale>  0 0.12976212E+04</rscale>
<asrwt>0</asrwt>
<pdfrwt beam="1">  1        2 0.27333394E+00 0.12976212E+04</pdfrwt>
<pdfrwt beam="2">  1       -2 0.36451513E-01 0.12976212E+04</pdfrwt>
<totfact> 0.61750684E+01</totfact>
</mgrwt>
</event>
<event>
 6    1  0.8968082E-007  0.2247269E+04  0.7818608E-02  0.8499007E-01
         -2   -1    0    0    0  501 -0.00000000000E+00  0.00000000000E+00  0.98961902813E+03  0.98961902813E+03  0.00000000000E+00 0.  1.
          2   -1    0    0  501    0  0.00000000000E+00 -0.00000000000E+00 -0.12757981505E+04  0.12757981505E+04  0.00000000000E+00 0. -1.
         23    2    1    2    0    0 -0.15532308804E+03  0.71982982796E+03 -0.99646890965E+03  0.12422887289E+04  0.89726000092E+02 0.  0.
         11    1    3    3    0    0  0.11756918595E+02  0.37189213503E+02 -0.49249887442E+02  0.62823675067E+02  0.00000000000E+00 0.  1.
        -11    1    3    3    0    0 -0.16708000663E+03  0.68264061446E+03 -0.94721902221E+03  0.11794650538E+04  0.00000000000E+00 0. -1.
         22    1    1    2    0    0  0.15532308804E+03 -0.71982982796E+03  0.71028978725E+03  0.10231284498E+04  0.00000000000E+00 0.  1.
<mgrwt>
<rscale>  0 0.22472687E+04</rscale>
<asrwt>0</asrwt>
<pdfrwt beam="1">  1        2 0.19627664E+00 0.22472687E+04</pdfrwt>
<pdfrwt beam="2">  1       -2 0.15224908E+00 0.22472687E+04</pdfrwt>
<totfact> 0.44791460E+00</totfact>
</mgrwt>
</event>
<event>
 6    1  0.8968082E-007  0.1431801E+04  0.7818608E-02  0.8931115E-01
          1   -1    0    0  501    0  0.00000000000E+00  0.00000000000E+00  0.15055224288E+04  0.15055224288E+04  0.00000000000E+00 0. -1.
         -1   -1    0    0    0  501 -0.00000000000E+00 -0.00000000000E+00 -0.34042255914E+03  0.34042255914E+03  0.00000000000E+00 0.  1.
         23    2    1    2    0    0  0.55970504597E+03 -0.42924727989E+03  0.44990523118E+03  0.84144195825E+03  0.89927116569E+02 0.  0.
         13    1    3    3    0    0  0.38752856720E+03 -0.24655269159E+03  0.27280910391E+03  0.53422039207E+03  0.00000000000E+00 0. -1.
        -13    1    3    3    0    0  0.17217647876E+03 -0.18269458830E+03  0.17709612727E+03  0.30722156618E+03  0.00000000000E+00 0.  1.
         22    1    1    2    0    0 -0.55970504597E+03  0.42924727989E+03  0.71519463849E+03  0.10045030297E+04  0.00000000000E+00 0. -1.
<mgrwt>
<rscale>  0 0.14318014E+04</rscale>
<asrwt>0</asrwt>
<pdfrwt beam="1">  1        1 0.23161883E+00 0.14318014E+04</pdfrwt>
<pdfrwt beam="2">  1       -1 0.52372702E-01 0.14318014E+04</pdfrwt>
<totfact> 0.23161815E+01</totfact>
</mgrwt>
</event>
<event>
 6    1  0.8968082E-007  0.8830501E+03  0.7818608E-02  0.9447021E-01
          1   -1    0    0  501    0  0.00000000000E+00  0.00000000000E+00  0.61504403313E+03  0.61504403313E+03  0.00000000000E+00 0. -1.
         -1   -1    0    0    0  501 -0.00000000000E+00 -0.00000000000E+00 -0.31695999768E+03  0.31695999768E+03  0.00000000000E+00 0.  1.
         23    2    1    2    0    0 -0.37950743014E+03  0.21371829931E+03  0.11503912937E+03  0.45955632086E+03  0.90865888894E+02 0.  0.
         13    1    3    3    0    0 -0.19854859026E+03  0.16280277605E+03  0.59982310855E+02  0.26367435256E+03  0.00000000000E+00 0.  1.
        -13    1    3    3    0    0 -0.18095883988E+03  0.50915523264E+02  0.55056818511E+02  0.19588196830E+03  0.00000000000E+00 0. -1.
         22    1    1    2    0    0  0.37950743014E+03 -0.21371829931E+03  0.18304490608E+03  0.47244770995E+03  0.00000000000E+00 0. -1.
<mgrwt>
<rscale>  0 0.88305007E+03</rscale>
<asrwt>0</asrwt>
<pdfrwt beam="1">  1        1 0.94622159E-01 0.88305007E+03</pdfrwt>
<pdfrwt beam="2">  1       -1 0.48763077E-01 0.88305007E+03</pdfrwt>
<totfact> 0.14022452E+02</totfact>
</mgrwt>
</event>
<event>
 6    1  0.8968082E-007  0.3182941E+04  0.7818608E-02  0.8193337E-01
          2   -1    0    0  501    0  0.00000000000E+00  0.00000000000E+00  0.27875191410E+04  0.27875191410E+04  0.00000000000E+00 0. -1.
         -2   -1    0    0    0  501 -0.00000000000E+00 -0.00000000000E+00 -0.90861394228E+03  0.90861394228E+03  0.00000000000E+00 0.  1.
         23    2    1    2    0    0 -0.15118188977E+04  0.31008316518E+03  0.49549141400E+03  0.16235545809E+04  0.93111690016E+02 0.  0.
         11    1    3    3    0    0 -0.12340419826E+04  0.21741760404E+03  0.39077020402E+03  0.13125667151E+04  0.00000000000E+00 0. -1.
        -11    1    3    3    0    0 -0.27777691517E+03  0.92665561140E+02  0.10472120998E+03  0.31098786575E+03  0.00000000000E+00 0.  1.
         22    1    1    2    0    0  0.15118188977E+04 -0.31008316518E+03  0.13834137847E+04  0.20725785024E+04  0.00000000000E+00 0.  1.
<mgrwt>
<rscale>  0 0.31829413E+04</rscale>
<asrwt>0</asrwt>
<pdfrwt beam="1">  1        2 0.42884909E+00 0.31829413E+04</pdfrwt>
<pdfrwt beam="2">  1       -2 0.13978676E+00 0.31829413E+04</pdfrwt>
<totfact> 0.71511680E-01</totfact>
</mgrwt>
</event>
<event>
 6    1  0.8968082E-007  0.3638798E+04  0.7818608E-02  0.8081662E-01
         -2   -1    0    0    0  501 -0.00000000000E+00  0.00000000000E+00  0.11732109550E+04  0.11732109550E+04  0.00000000000E+00 0.  1.
          2   -1    0    0  501    0  0.00000000000E+00 -0.00000000000E+00 -0.28214980276E+04  0.28214980276E+04  0.00000000000E+00 0. -1.
         23    2    1    2    0    0  0.73450170827E+03 -0.18929921597E+03 -0.26386712744E+04  0.27472364098E+04  0.96927006679E+02 0.  0.
         13    1    3    3    0    0  0.52233058183E+03 -0.97660225179E+02 -0.19311192774E+04  0.20028950097E+04  0.00000000000E+00 0.  1.
        -13    1    3    3    0    0  0.21217112644E+03 -0.91638990793E+02 -0.70755199703E+03  0.74434140018E+03  0.00000000000E+00 0. -1.
         22    1    1    2    0    0 -0.73450170827E+03  0.18929921597E+03  0.99038420179E+03  0.12474725728E+04  0.00000000000E+00 0.  1.
<mgrwt>
<rscale>  0 0.36387978E+04</rscale>
<asrwt>0</asrwt>
<pdfrwt beam="1">  1        2 0.43407661E+00 0.36387978E+04</pdfrwt>
<pdfrwt beam="2">  1       -2 0.18049400E+00 0.36387978E+04</pdfrwt>
<totfact> 0.32786322E-01</totfact>
</mgrwt>
</event>
<event>
 6    1  0.8968082E-007  0.2850227E+04  0.7818608E-02  0.8287842E-01
          2   -1    0    0  501    0  0.00000000000E+00  0.00000000000E+00  0.20390096451E+04  0.20390096451E+04  0.00000000000E+00 0. -1.
         -2   -1    0    0    0  501 -0.00000000000E+00 -0.00000000000E+00 -0.99604650808E+03  0.99604650808E+03  0.00000000000E+00 0.  1.
         23    2    1    2    0    0 -0.12550135904E+04 -0.56979524135E+03  0.90180239020E+03  0.16495410555E+04  0.89512086824E+02 0.  0.
         13    1    3    3    0    0 -0.18888903606E+03 -0.67109016647E+02  0.16382253381E+03  0.25888319884E+03  0.00000000000E+00 0. -1.
        -13    1    3    3    0    0 -0.10661245544E+04 -0.50268622471E+03  0.73797985639E+03  0.13906578567E+04  0.00000000000E+00 0.  1.
         22    1    1    2    0    0  0.12550135904E+04  0.56979524135E+03  0.14116074679E+03  0.13855150976E+04  0.00000000000E+00 0.  1.
<mgrwt>
<rscale>  0 0.28502270E+04</rscale>
<asrwt>0</asrwt>
<pdfrwt beam="1">  1        2 0.31369379E+00 0.28502270E+04</pdfrwt>
<pdfrwt beam="2">  1       -2 0.15323792E+00 0.28502270E+04</pdfrwt>
<totfact> 0.15589590E+00</totfact>
</mgrwt>
</event>
<event>
 6    1  0.8968082E-007  0.8295336E+03  0.7818608E-02  0.9518226E-01
         -1   -1    0    0    0  501 -0.00000000000E+00  0.00000000000E+00  0.18900004737E+03  0.18900004737E+03  0.00000000000E+00 0.  1.
          1   -1    0    0  501    0  0.00000000000E+00 -0.00000000000E+00 -0.91021936434E+03  0.91021936434E+03  0.00000000000E+00 0. -1.
         23    2    1    2    0    0 -0.15606942986E+03 -0.30630959290E+03 -0.70010907821E+02  0.36283932929E+03  0.92561428406E+02 0.  0.
         11    1    3    3    0    0 -0.16296795443E+03 -0.24973188519E+03 -0.49605203012E+02  0.30229992527E+03  0.00000000000E+00 0.  1.
        -11    1    3    3    0    0  0.68985245692E+01 -0.56577707705E+02 -0.20405704809E+02  0.60539404020E+02  0.00000000000E+00 0. -1.
         22    1    1    2    0    0  0.15606942986E+03  0.30630959290E+03 -0.65120840915E+03  0.73638008242E+03  0.00000000000E+00 0. -1.
<mgrwt>
<rscale>  0 0.82953361E+03</rscale>
<asrwt>0</asrwt>
<pdfrwt beam="1">  1        1 0.14003375E+00 0.82953361E+03</pdfrwt>
<pdfrwt beam="2">  1       -1 0.29076930E-01 0.82953361E+03</pdfrwt>
<totfact> 0.19408468E+02</totfact>
</mgrwt>
</event>
<event>
 6    1  0.8968082E-007  0.7562743E+03  0.7818608E-02  0.9625558E-01
         -2   -1    0    0    0  501 -0.00000000000E+00  0.00000000000E+00  0.93534515585E+02  0.93534515585E+02  0.00000000000E+00 0.  1.
          2   -1    0    0  501    0  0.00000000000E+00 -0.00000000000E+00 -0.15287158544E+04  0.15287158544E+04  0.00000000000E+00 0. -1.
         23    2    1    2    0    0  0.36343235226E+02 -0.27280970115E+03 -0.12668328295E+04  0.12996249147E+04  0.91725335991E+02 0.  0.
         11    1    3    3    0    0 -0.21591506326E+02 -0.12010598766E+03 -0.66060968582E+03  0.67178627436E+03  0.00000000000E+00 0. -1.
        -11    1    3    3    0    0  0.57934741552E+02 -0.15270371349E+03 -0.60622314367E+03  0.62783864035E+03  0.00000000000E+00 0.  1.
         22    1    1    2    0    0 -0.36343235226E+02  0.27280970115E+03 -0.16834850928E+03  0.32262545523E+03  0.00000000000E+00 0.  1.
<mgrwt>
<rscale>  0 0.75627428E+03</rscale>
<asrwt>0</asrwt>
<pdfrwt beam="1">  1        2 0.23518704E+00 0.75627428E+03</pdfrwt>
<pdfrwt beam="2">  1       -2 0.14389926E-01 0.75627428E+03</pdfrwt>
<totfact> 0.46538029E+02</totfact>
</mgrwt>
</event>
<event>
 6    1  0.8968082E-007  0.1664859E+04  0.7818608E-02  0.8781664E-01
         -1   -1    0    0    0  501 -0.00000000000E+00  0.00000000000E+00  0.49013079334E+03  0.49013079334E+03  0.00000000000E+00 0.  1.
          1   -1    0    0  501    0  0.00000000000E+00 -0.00000000000E+00 -0.14137835443E+04  0.14137835443E+04  0.00000000000E+00 0. -1.
         23    2    1    2    0    0 -0.73707890263E+02 -0.82565418814E+03 -0.41650593109E+03  0.93214502945E+03  0.90991613961E+02 0.  0.
         13    1    3    3    0    0 -0.13140791337E+02 -0.60285753786E+03 -0.30491865832E+03  0.67571094378E+03  0.00000000000E+00 0. -1.
        -13    1    3    3    0    0 -0.60567098926E+02 -0.22279665027E+03 -0.11158727277E+03  0.25643408566E+03  0.00000000000E+00 0.  1.
         22    1    1    2    0    0  0.73707890263E+02  0.82565418814E+03 -0.50714681990E+03  0.97176930822E+03  0.00000000000E+00 0. -1.
<mgrwt>
<rscale>  0 0.16648590E+04</rscale>
<asrwt>0</asrwt>
<pdfrwt beam="1">  1        1 0.21750516E+00 0.16648590E+04</pdfrwt>
<pdfrwt beam="2">  1       -1 0.75404739E-01 0.16648590E+04</pdfrwt>
<totfact> 0.12676807E+01</totfact>
</mgrwt>
</event>
<event>
 6    1  0.8968082E-007  0.1034266E+04  0.7818608E-02  0.9271741E-01
         -2   -1    0    0    0  501 -0.00000000000E+00  0.00000000000E+00  0.11944668483E+03  0.11944668483E+03  0.00000000000E+00 0.  1.
          2   -1    0    0  501    0  0.00000000000E+00 -0.00000000000E+00 -0.22388789284E+04  0.22388789284E+04  0.00000000000E+00 0. -1.
         23    2    1    2    0    0  0.18665844513E+03 -0.47704948278E+03 -0.11350874195E+04  0.12486624585E+04  0.91197046852E+02 0.  0.
         11    1    3    3    0    0  0.54624032573E+02 -0.24310858269E+03 -0.48505682676E+03  0.54531247290E+03  0.00000000000E+00 0.  1.
        -11    1    3    3    0    0  0.13203441256E+03 -0.23394090009E+03 -0.65003059272E+03  0.70334998564E+03  0.00000000000E+00 0. -1.
         22    1    1    2    0    0 -0.18665844513E+03  0.47704948278E+03 -0.98434482410E+03  0.11096631547E+04  0.00000000000E+00 0.  1.
<mgrwt>
<rscale>  0 0.10342662E+04</rscale>
<asrwt>0</asrwt>
<pdfrwt beam="1">  1        2 0.34444291E+00 0.10342662E+04</pdfrwt>
<pdfrwt beam="2">  1       -2 0.18376413E-01 0.10342662E+04</pdfrwt>
<totfact> 0.12204733E+02</totfact>
</mgrwt>
</event>
<event>
 6    1  0.8968082E-007  0.2746682E+04  0.7818608E-02  0.8320015E-01
         -2   -1    0    0    0  501 -0.00000000000E+00  0.00000000000E+00  0.94035306532E+03  0.94035306532E+03  0.00000000000E+00 0.  1.
          2   -1    0    0  501    0  0.00000000000E+00 -0.00000000000E+00 -0.20056987134E+04  0.20056987134E+04  0.00000000000E+00 0. -1.
         23    2    1    2    0    0 -0.20559123811E+02  0.77623573681E+03 -0.17463181555E+04  0.19132458180E+04  0.88982375348E+02 0.  0.
         11    1    3    3    0    0 -0.83156163775E+01  0.24329227486E+03 -0.65272495822E+03  0.69664205412E+03  0.00000000000E+00 0. -1.
        -11    1    3    3    0    0 -0.12243507433E+02  0.53294346195E+03 -0.10935931972E+04  0.12166037638E+04  0.00000000000E+00 0.  1.
         22    1    1    2    0    0  0.20559123811E+02 -0.77623573681E+03  0.68097250742E+03  0.10328059607E+04  0.00000000000E+00 0.  1.
<mgrwt>
<rscale>  0 0.27466816E+04</rscale>
<asrwt>0</asrwt>
<pdfrwt beam="1">  1        2 0.30856903E+00 0.27466816E+04</pdfrwt>
<pdfrwt beam="2">  1       -2 0.14466970E+00 0.27466816E+04</pdfrwt>
<totfact> 0.19109429E+00</totfact>
</mgrwt>
</event>
<event>
 6    1  0.8968082E-007  0.4705691E+04  0.7818608E-02  0.7875584E-01
          2   -1    0    0  501    0  0.00000000000E+00  0.00000000000E+00  0.29972456119E+04  0.29972456119E+04  0.00000000000E+00 0. -1.
         -2   -1    0    0    0  501 -0.00000000000E+00 -0.00000000000E+00 -0.18469897447E+04  0.18469897447E+04  0.00000000000E+00 0.  1.
         23    2    1    2    0    0 -0.82299014264E+03 -0.18378222749E+04  0.18262531780E+04  0.27201176919E+04  0.94530938724E+02 0.  0.
         13    1    3    3    0    0 -0.53334212243E+03 -0.12599281566E+04  0.12856747882E+04  0.18774537119E+04  0.00000000000E+00 0. -1.
        -13    1    3    3    0    0 -0.28964802021E+03 -0.57789411830E+03  0.54057838984E+03  0.84266397998E+03  0.00000000000E+00 0.  1.
         22    1    1    2    0    0  0.82299014264E+03  0.18378222749E+04 -0.67599731087E+03  0.21241176647E+04  0.00000000000E+00 0.  1.
<mgrwt>
<rscale>  0 0.47056910E+04</rscale>
<asrwt>0</asrwt>
<pdfrwt beam="1">  1        2 0.46111471E+00 0.47056910E+04</pdfrwt>
<pdfrwt beam="2">  1       -2 0.28415227E+00 0.47056910E+04</pdfrwt>
<totfact> 0.51726517E-02</totfact>
</mgrwt>
</event>
<event>
 6    1  0.8968082E-007  0.6413352E+04  0.7818608E-02  0.7641162E-01
          2   -1    0    0  501    0  0.00000000000E+00  0.00000000000E+00  0.22503044623E+04  0.22503044623E+04  0.00000000000E+00 0. -1.
         -2   -1    0    0    0  501 -0.00000000000E+00 -0.00000000000E+00 -0.45695026283E+04  0.45695026283E+04  0.00000000000E+00 0.  1.
         23    2    1    2    0    0 -0.13795997231E+04  0.50765759699E+02  0.19170907252E+04  0.23642469543E+04  0.92489210131E+02 0.  0.
         11    1    3    3    0    0 -0.89440581582E+03  0.18352586485E+01  0.11862816922E+04  0.14856747238E+04  0.00000000000E+00 0. -1.
        -11    1    3    3    0    0 -0.48519390725E+03  0.48930501050E+02  0.73080903301E+03  0.87857223055E+03  0.00000000000E+00 0.  1.
         22    1    1    2    0    0  0.13795997231E+04 -0.50765759699E+02 -0.42362888912E+04  0.44555601363E+04  0.00000000000E+00 0.  1.
<mgrwt>
<rscale>  0 0.64133524E+04</rscale>
<asrwt>0</asrwt>
<pdfrwt beam="1">  1        2 0.34620069E+00 0.64133524E+04</pdfrwt>
<pdfrwt beam="2">  1       -2 0.70300039E+00 0.64133524E+04</pdfrwt>
<totfact> 0.71497631E-04</totfact>
</mgrwt>
</event>
<event>
 6    1  0.8968082E-007  0.3528845E+04  0.7818608E-02  0.8106988E-01
         -2   -1    0    0    0  501 -0.00000000000E+00  0.00000000000E+00  0.11586243413E+04  0.11586243413E+04  0.00000000000E+00 0.  1.
          2   -1    0    0  501    0  0.00000000000E+00 -0.00000000000E+00 -0.26869678794E+04  0.26869678794E+04  0.00000000000E+00 0. -1.
         23    2    1    2    0    0  0.44755940079E+03  0.21919269156E+03 -0.26078653819E+04  0.26565916889E+04  0.90347651575E+02 0.  0.
         11    1    3    3    0    0  0.29084596509E+03  0.18486764364E+03 -0.18694337449E+04  0.19009339672E+04  0.00000000000E+00 0.  1.
        -11    1    3    3    0    0  0.15671343570E+03  0.34325047919E+02 -0.73843163694E+03  0.75565772164E+03  0.00000000000E+00 0. -1.
         22    1    1    2    0    0 -0.44755940079E+03 -0.21919269156E+03  0.10795218438E+04  0.11890005318E+04  0.00000000000E+00 0.  1.
<mgrwt>
<rscale>  0 0.35288448E+04</rscale>
<asrwt>0</asrwt>
<pdfrwt beam="1">  1        2 0.41337967E+00 0.35288448E+04</pdfrwt>
<pdfrwt beam="2">  1       -2 0.17824990E+00 0.35288448E+04</pdfrwt>
<totfact> 0.41312869E-01</totfact>
</mgrwt>
</event>
<event>
 6    1  0.8968082E-007  0.2081903E+04  0.7818608E-02  0.8569258E-01
          2   -1    0    0  501    0  0.00000000000E+00  0.00000000000E+00  0.15712292774E+04  0.15712292774E+04  0.00000000000E+00 0. -1.
         -2   -1    0    0    0  501 -0.00000000000E+00 -0.00000000000E+00 -0.68963808011E+03  0.68963808011E+03  0.00000000000E+00 0.  1.
         23    2    1    2    0    0 -0.66529578228E+02 -0.10364557784E+04  0.46134082871E+03  0.11404758467E+04  0.95828134385E+02 0.  0.
         13    1    3    3    0    0 -0.10850200352E+02 -0.43042956662E+03  0.14318026329E+03  0.45374874816E+03  0.00000000000E+00 0.  1.
        -13    1    3    3    0    0 -0.55679377875E+02 -0.60602621174E+03  0.31816056541E+03  0.68672709850E+03  0.00000000000E+00 0. -1.
         22    1    1    2    0    0  0.66529578228E+02  0.10364557784E+04  0.42025036860E+03  0.11203915108E+04  0.00000000000E+00 0.  1.
<mgrwt>
<rscale>  0 0.20819025E+04</rscale>
<asrwt>0</asrwt>
<pdfrwt beam="1">  1        2 0.24172758E+00 0.20819025E+04</pdfrwt>
<pdfrwt beam="2">  1       -2 0.10609817E+00 0.20819025E+04</pdfrwt>
<totfact> 0.76586767E+00</totfact>
</mgrwt>
</event>
<event>
 6    1  0.8968082E-007  0.1898701E+04  0.7818608E-02  0.8655503E-01
          2   -1    0    0  501    0  0.00000000000E+00  0.00000000000E+00  0.10018831299E+04  0.10018831299E+04  0.00000000000E+00 0. -1.
         -2   -1    0    0    0  501 -0.00000000000E+00 -0.00000000000E+00 -0.89957234112E+03  0.89957234112E+03  0.00000000000E+00 0.  1.
         23    2    1    2    0    0  0.92433921490E+03  0.69783318755E+02 -0.14331686966E+03  0.94249476151E+03  0.92108384953E+02 0.  0.
         13    1    3    3    0    0  0.51337441245E+03  0.20771277545E+02 -0.12193776338E+03  0.52806585903E+03  0.00000000000E+00 0.  1.
        -13    1    3    3    0    0  0.41096480244E+03  0.49012041210E+02 -0.21379106287E+02  0.41442890249E+03  0.00000000000E+00 0. -1.
         22    1    1    2    0    0 -0.92433921490E+03 -0.69783318755E+02  0.24562765844E+03  0.95896070950E+03  0.00000000000E+00 0.  1.
<mgrwt>
<rscale>  0 0.18987010E+04</rscale>
<asrwt>0</asrwt>
<pdfrwt beam="1">  1        2 0.15413587E+00 0.18987010E+04</pdfrwt>
<pdfrwt beam="2">  1       -2 0.13839574E+00 0.18987010E+04</pdfrwt>
<totfact> 0.87064202E+00</totfact>
</mgrwt>
</event>
<event>
 6    1  0.8968082E-007  0.3837780E+04  0.7818608E-02  0.8038096E-01
         -1   -1    0    0    0  501 -0.00000000000E+00  0.00000000000E+00  0.16317189888E+04  0.16317189888E+04  0.00000000000E+00 0.  1.
          1   -1    0    0  501    0  0.00000000000E+00 -0.00000000000E+00 -0.22566012062E+04  0.22566012062E+04  0.00000000000E+00 0. -1.
         23    2    1    2    0    0  0.11658512581E+04  0.36414437511E+03 -0.18106107867E+04  0.21860386313E+04  0.92968781222E+02 0.  0.
         13    1    3    3    0    0  0.57430878061E+03  0.22784256846E+03 -0.92144156707E+03  0.11094130759E+04  0.00000000000E+00 0. -1.
        -13    1    3    3    0    0  0.59154247753E+03  0.13630180666E+03 -0.88916921968E+03  0.10766255554E+04  0.00000000000E+00 0.  1.
         22    1    1    2    0    0 -0.11658512581E+04 -0.36414437511E+03  0.11857285694E+04  0.17022815637E+04  0.00000000000E+00 0.  1.
<mgrwt>
<rscale>  0 0.38377801E+04</rscale>
<asrwt>0</asrwt>
<pdfrwt beam="1">  1        1 0.34716941E+00 0.38377801E+04</pdfrwt>
<pdfrwt beam="2">  1       -1 0.25103369E+00 0.38377801E+04</pdfrwt>
<totfact> 0.10851560E-01</totfact>
</mgrwt>
</event>
<event>
 6    1  0.8968082E-007  0.2128251E+04  0.7818608E-02  0.8548900E-01
         -2   -1    0    0    0  501 -0.00000000000E+00  0.00000000000E+00  0.68129181423E+03  0.68129181423E+03  0.00000000000E+00 0.  1.
          2   -1    0    0  501    0  0.00000000000E+00 -0.00000000000E+00 -0.16620828993E+04  0.16620828993E+04  0.00000000000E+00 0. -1.
         23    2    1    2    0    0  0.68061143800E+03  0.81141892915E+03 -0.40339600069E+03  0.11371335720E+04  0.93337125470E+02 0.  0.
         11    1    3    3    0    0  0.19451688635E+03  0.24460305197E+03 -0.16435078822E+03  0.35309864584E+03  0.00000000000E+00 0.  1.
        -11    1    3    3    0    0  0.48609455165E+03  0.56681587719E+03 -0.23904521247E+03  0.78403492612E+03  0.00000000000E+00 0. -1.
         22    1    1    2    0    0 -0.68061143800E+03 -0.81141892915E+03 -0.57739508440E+03  0.12062411416E+04  0.00000000000E+00 0. -1.
<mgrwt>
<rscale>  0 0.21282514E+04</rscale>
<asrwt>0</asrwt>
<pdfrwt beam="1">  1        2 0.25570506E+00 0.21282514E+04</pdfrwt>
<pdfrwt beam="2">  1       -2 0.10481412E+00 0.21282514E+04</pdfrwt>
<totfact> 0.69886718E+00</totfact>
</mgrwt>
</event>
<event>
 6    1  0.8968082E-007  0.4012001E+04  0.7818608E-02  0.8002130E-01
         -1   -1    0    0    0  501 -0.00000000000E+00  0.00000000000E+00  0.90066114937E+03  0.90066114937E+03  0.00000000000E+00 0.  1.
          1   -1    0    0  501    0  0.00000000000E+00 -0.00000000000E+00 -0.44678702878E+04  0.44678702878E+04  0.00000000000E+00 0. -1.
         23    2    1    2    0    0 -0.55464200656E+03 -0.15454526539E+04 -0.24494144504E+03  0.16626557934E+04  0.91522210070E+02 0.  0.
         13    1    3    3    0    0 -0.34408042881E+03 -0.10118567205E+04 -0.11907922302E+03  0.10753721336E+04  0.00000000000E+00 0. -1.
        -13    1    3    3    0    0 -0.21056157775E+03 -0.53359593337E+03 -0.12586222202E+03  0.58728365979E+03  0.00000000000E+00 0.  1.
         22    1    1    2    0    0  0.55464200656E+03  0.15454526539E+04 -0.33222676934E+04  0.37058756438E+04  0.00000000000E+00 0. -1.
<mgrwt>
<rscale>  0 0.40120006E+04</rscale>
<asrwt>0</asrwt>
<pdfrwt beam="1">  1        1 0.68736466E+00 0.40120006E+04</pdfrwt>
<pdfrwt beam="2">  1       -1 0.13856325E+00 0.40120006E+04</pdfrwt>
<totfact> 0.11630604E-02</totfact>
</mgrwt>
</event>
<event>
 6    1  0.8968082E-007  0.1271081E+04  0.7818608E-02  0.9052818E-01
         -2   -1    0    0    0  501 -0.00000000000E+00  0.00000000000E+00  0.15186473315E+03  0.15186473315E+03  0.00000000000E+00 0.  1.
          2   -1    0    0  501    0  0.00000000000E+00 -0.00000000000E+00 -0.26596823718E+04  0.26596823718E+04  0.00000000000E+00 0. -1.
         23    2    1    2    0    0  0.19955472693E+03 -0.17026816635E+03 -0.25328247834E+04  0.25480348760E+04  0.92016351073E+02 0.  0.
         13    1    3    3    0    0  0.77438181975E+02 -0.69381687532E+02 -0.14452958168E+04  0.14490308791E+04  0.00000000000E+00 0. -1.
        -13    1    3    3    0    0  0.12211654495E+03 -0.10088647882E+03 -0.10875289666E+04  0.10990039969E+04  0.00000000000E+00 0.  1.
         22    1    1    2    0    0 -0.19955472693E+03  0.17026816635E+03  0.25007144685E+02  0.26351222893E+03  0.00000000000E+00 0.  1.
<mgrwt>
<rscale>  0 0.12710814E+04</rscale>
<asrwt>0</asrwt>
<pdfrwt beam="1">  1        2 0.40918183E+00 0.12710814E+04</pdfrwt>
<pdfrwt beam="2">  1       -2 0.23363809E-01 0.12710814E+04</pdfrwt>
<totfact> 0.44999177E+01</totfact>
</mgrwt>
</event>
<event>
 6    1  0.8968082E-007  0.7217760E+03  0.7818608E-02  0.9680700E-01
         -1   -1    0    0    0  501 -0.00000000000E+00  0.00000000000E+00  0.67848349847E+03  0.67848349847E+03  0.00000000000E+00 0.  1.
          1   -1    0    0  501    0  0.00000000000E+00 -0.00000000000E+00 -0.19195772547E+03  0.19195772547E+03  0.00000000000E+00 0. -1.
         23    2    1    2    0    0 -0.77881963615E+00 -0.13516123368E+03  0.64333903421E+03  0.66341570730E+03  0.89253134947E+02 0.  0.
         11    1    3    3    0    0 -0.18469666830E+02 -0.14161319017E+03  0.58100559295E+03  0.59830002780E+03  0.00000000000E+00 0.  1.
        -11    1    3    3    0    0  0.17690847194E+02  0.64519564945E+01  0.62333441262E+02  0.65115679499E+02  0.00000000000E+00 0. -1.
         22    1    1    2    0    0  0.77881963615E+00  0.13516123368E+03 -0.15681326121E+03  0.20702551664E+03  0.00000000000E+00 0. -1.
<mgrwt>
<rscale>  0 0.72177600E+03</rscale>
<asrwt>0</asrwt>
<pdfrwt beam="1">  1        1 0.29531958E-01 0.72177600E+03</pdfrwt>
<pdfrwt beam="2">  1       -1 0.10438208E+00 0.72177600E+03</pdfrwt>
<totfact> 0.13757577E+02</totfact>
</mgrwt>
</event>
<event>
 6    1  0.8968082E-007  0.2373362E+04  0.7818608E-02  0.8449544E-01
          1   -1    0    0  501    0  0.00000000000E+00  0.00000000000E+00  0.87365496614E+03  0.87365496614E+03  0.00000000000E+00 0. -1.
         -1   -1    0    0    0  501 -0.00000000000E+00 -0.00000000000E+00 -0.16118620305E+04  0.16118620305E+04  0.00000000000E+00 0.  1.
         23    2    1    2    0    0  0.51661757448E+03 -0.78009446332E+03 -0.11299071960E+04  0.14711846630E+04  0.11069304865E+03 0.  0.
         13    1    3    3    0    0  0.44448615498E+03 -0.61028362877E+03 -0.86188487185E+03  0.11458008474E+04  0.00000000000E+00 0.  1.
        -13    1    3    3    0    0  0.72131419508E+02 -0.16981083455E+03 -0.26802232419E+03  0.32538381563E+03  0.00000000000E+00 0. -1.
         22    1    1    2    0    0 -0.51661757448E+03  0.78009446332E+03  0.39170013165E+03  0.10143323337E+04  0.00000000000E+00 0. -1.
<mgrwt>
<rscale>  0 0.23733616E+04</rscale>
<asrwt>0</asrwt>
<pdfrwt beam="1">  1        1 0.13440846E+00 0.23733616E+04</pdfrwt>
<pdfrwt beam="2">  1       -1 0.24797877E+00 0.23733616E+04</pdfrwt>
<totfact> 0.12350938E+00</totfact>
</mgrwt>
</event>
<event>
 6    1  0.8968082E-007  0.2640981E+04  0.7818608E-02  0.8354413E-01
          1   -1    0    0  501    0  0.00000000000E+00  0.00000000000E+00  0.10835810643E+04  0.10835810643E+04  0.00000000000E+00 0. -1.
         -1   -1    0    0    0  501 -0.00000000000E+00 -0.00000000000E+00 -0.16091965409E+04  0.16091965409E+04  0.00000000000E+00 0.  1.
         23    2    1    2    0    0  0.13544393005E+03 -0.24107540654E+03  0.10511760237E+04  0.10919235066E+04  0.10422812247E+03 0.  0.
         11    1    3    3    0    0  0.56709970631E+02 -0.19721040561E+03  0.71264806885E+03  0.74160315188E+03  0.00000000000E+00 0. -1.
        -11    1    3    3    0    0  0.78733959423E+02 -0.43865000927E+02  0.33852795489E+03  0.35032035470E+03  0.00000000000E+00 0.  1.
         22    1    1    2    0    0 -0.13544393005E+03  0.24107540654E+03 -0.15767915003E+04  0.16008540986E+04  0.00000000000E+00 0.  1.
<mgrwt>
<rscale>  0 0.26409808E+04</rscale>
<asrwt>0</asrwt>
<pdfrwt beam="1">  1        1 0.16670478E+00 0.26409808E+04</pdfrwt>
<pdfrwt beam="2">  1       -1 0.24756870E+00 0.26409808E+04</pdfrwt>
<totfact> 0.82800973E-01</totfact>
</mgrwt>
</event>
<event>
 6    1  0.8968082E-007  0.1552910E+04  0.7818608E-02  0.8850011E-01
         -2   -1    0    0    0  501 -0.00000000000E+00  0.00000000000E+00  0.66413868125E+03  0.66413868125E+03  0.00000000000E+00 0.  1.
          2   -1    0    0  501    0  0.00000000000E+00 -0.00000000000E+00 -0.90776621299E+03  0.90776621299E+03  0.00000000000E+00 0. -1.
         23    2    1    2    0    0  0.36894236321E+03 -0.29273937672E+03  0.49918768073E+03  0.69236566832E+03  0.91471678763E+02 0.  0.
         13    1    3    3    0    0  0.97162519592E+02 -0.11674972363E+03  0.20307673402E+03  0.25359655574E+03  0.00000000000E+00 0.  1.
        -13    1    3    3    0    0  0.27177984362E+03 -0.17598965309E+03  0.29611094671E+03  0.43876911258E+03  0.00000000000E+00 0. -1.
         22    1    1    2    0    0 -0.36894236321E+03  0.29273937672E+03 -0.74281521247E+03  0.87953922592E+03  0.00000000000E+00 0. -1.
<mgrwt>
<rscale>  0 0.15529104E+04</rscale>
<asrwt>0</asrwt>
<pdfrwt beam="1">  1        2 0.13965634E+00 0.15529104E+04</pdfrwt>
<pdfrwt beam="2">  1       -2 0.10217518E+00 0.15529104E+04</pdfrwt>
<totfact> 0.21881179E+01</totfact>
</mgrwt>
</event>
<event>
 6    1  0.8968082E-007  0.2725632E+04  0.7818608E-02  0.8326736E-01
         -2   -1    0    0    0  501 -0.00000000000E+00  0.00000000000E+00  0.11967301692E+04  0.11967301692E+04  0.00000000000E+00 0.  1.
          2   -1    0    0  501    0  0.00000000000E+00 -0.00000000000E+00 -0.15519515365E+04  0.15519515365E+04  0.00000000000E+00 0. -1.
         23    2    1    2    0    0  0.79242880693E+03  0.10257401158E+04 -0.59719223019E+03  0.14301081970E+04  0.92112410066E+02 0.  0.
         11    1    3    3    0    0  0.31304696589E+03  0.33613464073E+03 -0.19748170251E+03  0.49998392212E+03  0.00000000000E+00 0.  1.
        -11    1    3    3    0    0  0.47938184104E+03  0.68960547510E+03 -0.39971052768E+03  0.93012427489E+03  0.00000000000E+00 0. -1.
         22    1    1    2    0    0 -0.79242880693E+03 -0.10257401158E+04  0.24197086293E+03  0.13185735087E+04  0.00000000000E+00 0.  1.
<mgrwt>
<rscale>  0 0.27256318E+04</rscale>
<asrwt>0</asrwt>
<pdfrwt beam="1">  1        2 0.23876178E+00 0.27256318E+04</pdfrwt>
<pdfrwt beam="2">  1       -2 0.18411233E+00 0.27256318E+04</pdfrwt>
<totfact> 0.17652692E+00</totfact>
</mgrwt>
</event>
<event>
 6    1  0.8968082E-007  0.2055692E+04  0.7818608E-02  0.8581016E-01
         -2   -1    0    0    0  501 -0.00000000000E+00  0.00000000000E+00  0.14151205534E+04  0.14151205534E+04  0.00000000000E+00 0.  1.
          2   -1    0    0  501    0  0.00000000000E+00 -0.00000000000E+00 -0.74655660520E+03  0.74655660520E+03  0.00000000000E+00 0. -1.
         23    2    1    2    0    0  0.59907661138E+03  0.82447516257E+03  0.45805073582E+03  0.11210197257E+04  0.90678933115E+02 0.  0.
         13    1    3    3    0    0  0.19417073811E+03  0.27361960759E+03  0.19793043779E+03  0.38954643292E+03  0.00000000000E+00 0.  1.
        -13    1    3    3    0    0  0.40490587328E+03  0.55085555498E+03  0.26012029803E+03  0.73147329283E+03  0.00000000000E+00 0. -1.
         22    1    1    2    0    0 -0.59907661138E+03 -0.82447516257E+03  0.21051321240E+03  0.10406574329E+04  0.00000000000E+00 0.  1.
<mgrwt>
<rscale>  0 0.20556922E+04</rscale>
<asrwt>0</asrwt>
<pdfrwt beam="1">  1        2 0.11485486E+00 0.20556922E+04</pdfrwt>
<pdfrwt beam="2">  1       -2 0.21771085E+00 0.20556922E+04</pdfrwt>
<totfact> 0.35640727E+00</totfact>
</mgrwt>
</event>
<event>
 6    1  0.8968082E-007  0.3376450E+04  0.7818608E-02  0.8143710E-01
         -1   -1    0    0    0  501 -0.00000000000E+00  0.00000000000E+00  0.12294412779E+04  0.12294412779E+04  0.00000000000E+00 0.  1.
          1   -1    0    0  501    0  0.00000000000E+00 -0.00000000000E+00 -0.23182108058E+04  0.23182108058E+04  0.00000000000E+00 0. -1.
         23    2    1    2    0    0 -0.57953149057E+03 -0.52693345852E+03  0.10250755471E+04  0.12933547165E+04  0.92037640131E+02 0.  0.
         11    1    3    3    0    0 -0.83219450953E+02 -0.11581152049E+03  0.21856305596E+03  0.26097431813E+03  0.00000000000E+00 0. -1.
        -11    1    3    3    0    0 -0.49631203961E+03 -0.41112193803E+03  0.80651249115E+03  0.10323803984E+04  0.00000000000E+00 0.  1.
         22    1    1    2    0    0  0.57953149057E+03  0.52693345852E+03 -0.21138450750E+04  0.22542973671E+04  0.00000000000E+00 0. -1.
<mgrwt>
<rscale>  0 0.33764502E+04</rscale>
<asrwt>0</asrwt>
<pdfrwt beam="1">  1        1 0.35664782E+00 0.33764502E+04</pdfrwt>
<pdfrwt beam="2">  1       -1 0.18914481E+00 0.33764502E+04</pdfrwt>
<totfact> 0.26705862E-01</totfact>
</mgrwt>
</event>
<event>
 6    1  0.8968082E-007  0.3591158E+04  0.7818608E-02  0.8092520E-01
         -1   -1    0    0    0  501 -0.00000000000E+00  0.00000000000E+00  0.26359819309E+04  0.26359819309E+04  0.00000000000E+00 0.  1.
          1   -1    0    0  501    0  0.00000000000E+00 -0.00000000000E+00 -0.12231133230E+04  0.12231133230E+04  0.00000000000E+00 0. -1.
         23    2    1    2    0    0  0.84907723651E+03  0.11752998203E+04  0.18430042410E+04  0.23467201403E+04  0.90382317458E+02 0.  0.
         11    1    3    3    0    0  0.27119275225E+03  0.32673051410E+03  0.49210689194E+03  0.64997502322E+03  0.00000000000E+00 0. -1.
        -11    1    3    3    0    0  0.57788448426E+03  0.84856930622E+03  0.13508973491E+04  0.16967451171E+04  0.00000000000E+00 0.  1.
         22    1    1    2    0    0 -0.84907723651E+03 -0.11752998203E+04 -0.43013563321E+03  0.15123751136E+04  0.00000000000E+00 0. -1.
<mgrwt>
<rscale>  0 0.35911584E+04</rscale>
<asrwt>0</asrwt>
<pdfrwt beam="1">  1        1 0.18817128E+00 0.35911584E+04</pdfrwt>
<pdfrwt beam="2">  1       -1 0.40553568E+00 0.35911584E+04</pdfrwt>
<totfact> 0.54509025E-02</totfact>
</mgrwt>
</event>
<event>
 6    1  0.8968082E-007  0.1021102E+04  0.7818608E-02  0.9285698E-01
          2   -1    0    0  501    0  0.00000000000E+00  0.00000000000E+00  0.39665591541E+03  0.39665591541E+03  0.00000000000E+00 0. -1.
         -2   -1    0    0    0  501 -0.00000000000E+00 -0.00000000000E+00 -0.65715005407E+03  0.65715005407E+03  0.00000000000E+00 0.  1.
         23    2    1    2    0    0  0.32745445594E+03  0.57339881904E+02  0.26294595404E+03  0.43372225464E+03  0.91979001197E+02 0.  0.
         13    1    3    3    0    0  0.24582547720E+03  0.55353599746E+02  0.24212826808E+03  0.34945712819E+03  0.00000000000E+00 0. -1.
        -13    1    3    3    0    0  0.81628978740E+02  0.19862821581E+01  0.20817685957E+02  0.84265126450E+02  0.00000000000E+00 0.  1.
         22    1    1    2    0    0 -0.32745445594E+03 -0.57339881904E+02 -0.52344009270E+03  0.62008371484E+03  0.00000000000E+00 0.  1.
<mgrwt>
<rscale>  0 0.10211023E+04</rscale>
<asrwt>0</asrwt>
<pdfrwt beam="1">  1        2 0.61023987E-01 0.10211023E+04</pdfrwt>
<pdfrwt beam="2">  1       -2 0.10110001E+00 0.10211023E+04</pdfrwt>
<totfact> 0.64444140E+01</totfact>
</mgrwt>
</event>
<event>
 6    1  0.8968082E-007  0.1861364E+04  0.7818608E-02  0.8674331E-01
          2   -1    0    0  501    0  0.00000000000E+00  0.00000000000E+00  0.20063246404E+04  0.20063246404E+04  0.00000000000E+00 0. -1.
         -2   -1    0    0    0  501 -0.00000000000E+00 -0.00000000000E+00 -0.43171918536E+03  0.43171918536E+03  0.00000000000E+00 0.  1.
         23    2    1    2    0    0  0.23349093510E+03 -0.74998228251E+03  0.14376249073E+04  0.16407012950E+04  0.90243695831E+02 0.  0.
         13    1    3    3    0    0  0.14639978496E+03 -0.39422346128E+03  0.68711690797E+03  0.80558964721E+03  0.00000000000E+00 0. -1.
        -13    1    3    3    0    0  0.87091150137E+02 -0.35575882123E+03  0.75050799929E+03  0.83511164781E+03  0.00000000000E+00 0.  1.
         22    1    1    2    0    0 -0.23349093510E+03  0.74998228251E+03  0.13698054777E+03  0.79734253074E+03  0.00000000000E+00 0.  1.
<mgrwt>
<rscale>  0 0.18613638E+04</rscale>
<asrwt>0</asrwt>
<pdfrwt beam="1">  1        2 0.30866532E+00 0.18613638E+04</pdfrwt>
<pdfrwt beam="2">  1       -2 0.66418338E-01 0.18613638E+04</pdfrwt>
<totfact> 0.12973323E+01</totfact>
</mgrwt>
</event>
<event>
 6    1  0.8968082E-007  0.4398273E+04  0.7818608E-02  0.7928692E-01
         -1   -1    0    0    0  501 -0.00000000000E+00  0.00000000000E+00  0.19792361037E+04  0.19792361037E+04  0.00000000000E+00 0.  1.
          1   -1    0    0  501    0  0.00000000000E+00 -0.00000000000E+00 -0.24434681680E+04  0.24434681680E+04  0.00000000000E+00 0. -1.
         23    2    1    2    0    0  0.72184064578E+02 -0.14488282450E+04 -0.18929927081E+04  0.23866122307E+04  0.90458409734E+02 0.  0.
         13    1    3    3    0    0 -0.15294847769E+02 -0.57078614848E+03 -0.73287686865E+03  0.92905288561E+03  0.00000000000E+00 0.  1.
        -13    1    3    3    0    0  0.87478912347E+02 -0.87804209649E+03 -0.11601158395E+04  0.14575593450E+04  0.00000000000E+00 0. -1.
         22    1    1    2    0    0 -0.72184064578E+02  0.14488282450E+04  0.14287606438E+04  0.20360920411E+04  0.00000000000E+00 0.  1.
<mgrwt>
<rscale>  0 0.43982726E+04</rscale>
<asrwt>0</asrwt>
<pdfrwt beam="1">  1        1 0.37591818E+00 0.43982726E+04</pdfrwt>
<pdfrwt beam="2">  1       -1 0.30449786E+00 0.43982726E+04</pdfrwt>
<totfact> 0.34687857E-02</totfact>
</mgrwt>
</event>
<event>
 6    1  0.8968082E-007  0.1699229E+04  0.7818608E-02  0.8761804E-01
         -2   -1    0    0    0  501 -0.00000000000E+00  0.00000000000E+00  0.64954458706E+03  0.64954458706E+03  0.00000000000E+00 0.  1.
          2   -1    0    0  501    0  0.00000000000E+00 -0.00000000000E+00 -0.11113084519E+04  0.11113084519E+04  0.00000000000E+00 0. -1.
         23    2    1    2    0    0  0.51861335891E+03  0.66640190457E+03 -0.30128225529E+03  0.90131498774E+03  0.92446716061E+02 0.  0.
         11    1    3    3    0    0  0.30114707089E+03  0.34989063546E+03 -0.12189980861E+03  0.47746474051E+03  0.00000000000E+00 0.  1.
        -11    1    3    3    0    0  0.21746628802E+03  0.31651126912E+03 -0.17938244668E+03  0.42385024723E+03  0.00000000000E+00 0. -1.
         22    1    1    2    0    0 -0.51861335891E+03 -0.66640190457E+03 -0.16048160953E+03  0.85953805120E+03  0.00000000000E+00 0. -1.
<mgrwt>
<rscale>  0 0.16992285E+04</rscale>
<asrwt>0</asrwt>
<pdfrwt beam="1">  1        2 0.17097053E+00 0.16992285E+04</pdfrwt>
<pdfrwt beam="2">  1       -2 0.99929938E-01 0.16992285E+04</pdfrwt>
<totfact> 0.16883151E+01</totfact>
</mgrwt>
</event>
<event>
 6    1  0.8968082E-007  0.5828231E+04  0.7818608E-02  0.7712071E-01
          2   -1    0    0  501    0  0.00000000000E+00  0.00000000000E+00  0.27514749137E+04  0.27514749137E+04  0.00000000000E+00 0. -1.
         -2   -1    0    0    0  501 -0.00000000000E+00 -0.00000000000E+00 -0.30863700889E+04  0.30863700889E+04  0.00000000000E+00 0.  1.
         23    2    1    2    0    0 -0.12020869870E+04 -0.14734030904E+04 -0.23783807503E+04  0.30464720275E+04  0.91471472692E+02 0.  0.
         11    1    3    3    0    0 -0.20497924112E+03 -0.20571778613E+03 -0.33792909931E+03  0.44556971731E+03  0.00000000000E+00 0. -1.
        -11    1    3    3    0    0 -0.99710774584E+03 -0.12676853042E+04 -0.20404516510E+04  0.26009023102E+04  0.00000000000E+00 0.  1.
         22    1    1    2    0    0  0.12020869870E+04  0.14734030904E+04  0.20434855751E+04  0.27913729752E+04  0.00000000000E+00 0. -1.
<mgrwt>
<rscale>  0 0.58282312E+04</rscale>
<asrwt>0</asrwt>
<pdfrwt beam="1">  1        2 0.42330383E+00 0.58282312E+04</pdfrwt>
<pdfrwt beam="2">  1       -2 0.47482617E+00 0.58282312E+04</pdfrwt>
<totfact> 0.40533364E-03</totfact>
</mgrwt>
</event>
<event>
 6    1  0.8968082E-007  0.3404383E+04  0.7818608E-02  0.8136831E-01
         -2   -1    0    0    0  501 -0.00000000000E+00  0.00000000000E+00  0.17760889286E+04  0.17760889286E+04  0.00000000000E+00 0.  1.
          2   -1    0    0  501    0  0.00000000000E+00 -0.00000000000E+00 -0.16313691662E+04  0.16313691662E+04  0.00000000000E+00 0. -1.
         23    2    1    2    0    0  0.31232377274E+03 -0.92761118267E+03 -0.13199261511E+04  0.16458689551E+04  0.93117817311E+02 0.  0.
         13    1    3    3    0    0  0.22896411092E+03 -0.69465761158E+03 -0.91601377177E+03  0.11722009177E+04  0.00000000000E+00 0.  1.
        -13    1    3    3    0    0  0.83359661822E+02 -0.23295357109E+03 -0.40391237934E+03  0.47366803743E+03  0.00000000000E+00 0. -1.
         22    1    1    2    0    0 -0.31232377274E+03  0.92761118267E+03  0.14646459135E+04  0.17615891397E+04  0.00000000000E+00 0.  1.
<mgrwt>
<rscale>  0 0.34043835E+04</rscale>
<asrwt>0</asrwt>
<pdfrwt beam="1">  1        2 0.25097987E+00 0.34043835E+04</pdfrwt>
<pdfrwt beam="2">  1       -2 0.27324445E+00 0.34043835E+04</pdfrwt>
<totfact> 0.41071241E-01</totfact>
</mgrwt>
</event>
<event>
 6    1  0.8968082E-007  0.1859731E+04  0.7818608E-02  0.8675164E-01
         -2   -1    0    0    0  501 -0.00000000000E+00  0.00000000000E+00  0.47304227183E+03  0.47304227183E+03  0.00000000000E+00 0.  1.
          2   -1    0    0  501    0  0.00000000000E+00 -0.00000000000E+00 -0.18278495048E+04  0.18278495048E+04  0.00000000000E+00 0. -1.
         23    2    1    2    0    0 -0.91469075389E+02  0.80859255147E+03 -0.12884823154E+03  0.82944215832E+03  0.95832777177E+02 0.  0.
         13    1    3    3    0    0 -0.95723241985E+02  0.44330212652E+03 -0.86303889828E+02  0.46165796412E+03  0.00000000000E+00 0.  1.
        -13    1    3    3    0    0  0.42541665961E+01  0.36529042495E+03 -0.42544341716E+02  0.36778419420E+03  0.00000000000E+00 0. -1.
         22    1    1    2    0    0  0.91469075389E+02 -0.80859255147E+03 -0.12259590014E+04  0.14714496183E+04  0.00000000000E+00 0. -1.
<mgrwt>
<rscale>  0 0.18597313E+04</rscale>
<asrwt>0</asrwt>
<pdfrwt beam="1">  1        2 0.28120762E+00 0.18597313E+04</pdfrwt>
<pdfrwt beam="2">  1       -2 0.72775734E-01 0.18597313E+04</pdfrwt>
<totfact> 0.13352245E+01</totfact>
</mgrwt>
</event>
<event>
 6    1  0.8968082E-007  0.3974389E+04  0.7818608E-02  0.8009733E-01
          2   -1    0    0  501    0  0.00000000000E+00  0.00000000000E+00  0.26821352217E+04  0.26821352217E+04  0.00000000000E+00 0. -1.
         -2   -1    0    0    0  501 -0.00000000000E+00 -0.00000000000E+00 -0.14723124664E+04  0.14723124664E+04  0.00000000000E+00 0.  1.
         23    2    1    2    0    0 -0.86430764769E+03 -0.13097458471E+04  0.18778606239E+04  0.24489458593E+04  0.92268115931E+02 0.  0.
         13    1    3    3    0    0 -0.55634068669E+02 -0.12817396950E+03  0.18311868530E+03  0.23033924755E+03  0.00000000000E+00 0. -1.
        -13    1    3    3    0    0 -0.80867357902E+03 -0.11815718776E+04  0.16947419386E+04  0.22186066118E+04  0.00000000000E+00 0.  1.
         22    1    1    2    0    0  0.86430764769E+03  0.13097458471E+04 -0.66803786863E+03  0.17055018288E+04  0.00000000000E+00 0.  1.
<mgrwt>
<rscale>  0 0.39743886E+04</rscale>
<asrwt>0</asrwt>
<pdfrwt beam="1">  1        2 0.41263619E+00 0.39743886E+04</pdfrwt>
<pdfrwt beam="2">  1       -2 0.22650961E+00 0.39743886E+04</pdfrwt>
<totfact> 0.19340782E-01</totfact>
</mgrwt>
</event>
<event>
 6    1  0.8968082E-007  0.1898864E+04  0.7818608E-02  0.8655422E-01
         -2   -1    0    0    0  501 -0.00000000000E+00  0.00000000000E+00  0.43239338206E+03  0.43239338206E+03  0.00000000000E+00 0.  1.
          2   -1    0    0  501    0  0.00000000000E+00 -0.00000000000E+00 -0.20847253263E+04  0.20847253263E+04  0.00000000000E+00 0. -1.
         23    2    1    2    0    0 -0.31939849652E+02 -0.21556242539E+03 -0.20499313366E+04  0.20637175725E+04  0.96043848238E+02 0.  0.
         13    1    3    3    0    0 -0.49743638180E+02 -0.95571651926E+02 -0.68682732723E+03  0.69522668794E+03  0.00000000000E+00 0.  1.
        -13    1    3    3    0    0  0.17803788529E+02 -0.11999077346E+03 -0.13631040094E+04  0.13684908845E+04  0.00000000000E+00 0. -1.
         22    1    1    2    0    0  0.31939849652E+02  0.21556242539E+03  0.39759939237E+03  0.45340113591E+03  0.00000000000E+00 0.  1.
<mgrwt>
<rscale>  0 0.18988643E+04</rscale>
<asrwt>0</asrwt>
<pdfrwt beam="1">  1        2 0.32072698E+00 0.18988643E+04</pdfrwt>
<pdfrwt beam="2">  1       -2 0.66522058E-01 0.18988643E+04</pdfrwt>
<totfact> 0.11656815E+01</totfact>
</mgrwt>
</event>
<event>
 6    1  0.8968082E-007  0.3610660E+04  0.7818608E-02  0.8088054E-01
          2   -1    0    0  501    0  0.00000000000E+00  0.00000000000E+00  0.30151224561E+04  0.30151224561E+04  0.00000000000E+00 0. -1.
         -2   -1    0    0    0  501 -0.00000000000E+00 -0.00000000000E+00 -0.10809566072E+04  0.10809566072E+04  0.00000000000E+00 0.  1.
         23    2    1    2    0    0 -0.82266544041E+03 -0.15582645004E+04  0.52836022132E+03  0.18419148850E+04  0.92299730230E+02 0.  0.
         13    1    3    3    0    0 -0.62198473437E+03 -0.12517374187E+04  0.43404303825E+03  0.14635931587E+04  0.00000000000E+00 0. -1.
        -13    1    3    3    0    0 -0.20068070603E+03 -0.30652708171E+03  0.94317183070E+02  0.37832172633E+03  0.00000000000E+00 0.  1.
         22    1    1    2    0    0  0.82266544041E+03  0.15582645004E+04  0.14058056277E+04  0.22541641783E+04  0.00000000000E+00 0. -1.
<mgrwt>
<rscale>  0 0.36106601E+04</rscale>
<asrwt>0</asrwt>
<pdfrwt beam="1">  1        2 0.46386499E+00 0.36106601E+04</pdfrwt>
<pdfrwt beam="2">  1       -2 0.16630102E+00 0.36106601E+04</pdfrwt>
<totfact> 0.31404461E-01</totfact>
</mgrwt>
</event>
<event>
 6    1  0.8968082E-007  0.2737158E+04  0.7818608E-02  0.8323048E-01
         -2   -1    0    0    0  501 -0.00000000000E+00  0.00000000000E+00  0.15074856395E+04  0.15074856395E+04  0.00000000000E+00 0.  1.
          2   -1    0    0  501    0  0.00000000000E+00 -0.00000000000E+00 -0.12424719498E+04  0.12424719498E+04  0.00000000000E+00 0. -1.
         23    2    1    2    0    0 -0.32730799878E+03 -0.13243209855E+04  0.22638739309E+03  0.13852420184E+04  0.81777743452E+02 0.  0.
         13    1    3    3    0    0 -0.15108680042E+03 -0.47680755323E+03  0.60037213134E+02  0.50376297109E+03  0.00000000000E+00 0.  1.
        -13    1    3    3    0    0 -0.17622119837E+03 -0.84751343223E+03  0.16635017995E+03  0.88147904736E+03  0.00000000000E+00 0. -1.
         22    1    1    2    0    0  0.32730799878E+03  0.13243209855E+04  0.38626296630E+02  0.13647155709E+04  0.00000000000E+00 0. -1.
<mgrwt>
<rscale>  0 0.27371581E+04</rscale>
<asrwt>0</asrwt>
<pdfrwt beam="1">  1        2 0.19114953E+00 0.27371581E+04</pdfrwt>
<pdfrwt beam="2">  1       -2 0.23192087E+00 0.27371581E+04</pdfrwt>
<totfact> 0.12998413E+00</totfact>
</mgrwt>
</event>
<event>
 6    1  0.8968082E-007  0.2027978E+04  0.7818608E-02  0.8593651E-01
         -1   -1    0    0    0  501 -0.00000000000E+00  0.00000000000E+00  0.38901771822E+03  0.38901771822E+03  0.00000000000E+00 0.  1.
          1   -1    0    0  501    0  0.00000000000E+00 -0.00000000000E+00 -0.26429991741E+04  0.26429991741E+04  0.00000000000E+00 0. -1.
         23    2    1    2    0    0  0.60963100855E+03  0.27516450748E+03 -0.22646488134E+04  0.23630779824E+04  0.90209922950E+02 0.  0.
         13    1    3    3    0    0  0.66309711921E+02  0.59799864361E+02 -0.25576957949E+03  0.27090788004E+03  0.00000000000E+00 0. -1.
        -13    1    3    3    0    0  0.54332129663E+03  0.21536464312E+03 -0.20088792339E+04  0.20921701023E+04  0.00000000000E+00 0.  1.
         22    1    1    2    0    0 -0.60963100855E+03 -0.27516450748E+03  0.10667357447E+02  0.66893890997E+03  0.00000000000E+00 0.  1.
<mgrwt>
<rscale>  0 0.20279778E+04</rscale>
<asrwt>0</asrwt>
<pdfrwt beam="1">  1        1 0.40661525E+00 0.20279778E+04</pdfrwt>
<pdfrwt beam="2">  1       -1 0.59848880E-01 0.20279778E+04</pdfrwt>
<totfact> 0.28217627E+00</totfact>
</mgrwt>
</event>
<event>
 6    1  0.8968082E-007  0.2792491E+04  0.7818608E-02  0.8305603E-01
         -4   -1    0    0    0  501 -0.00000000000E+00  0.00000000000E+00  0.77409508993E+03  0.77409508993E+03  0.00000000000E+00 0.  1.
          4   -1    0    0  501    0  0.00000000000E+00 -0.00000000000E+00 -0.25184272159E+04  0.25184272159E+04  0.00000000000E+00 0. -1.
         23    2    1    2    0    0 -0.21998223263E+03 -0.16229521013E+02 -0.24969081391E+04  0.25082862217E+04  0.91071043711E+02 0.  0.
         13    1    3    3    0    0 -0.22901855144E+02 -0.16376811324E+02 -0.70709075419E+03  0.70765106485E+03  0.00000000000E+00 0. -1.
        -13    1    3    3    0    0 -0.19708037749E+03  0.14729031170E+00 -0.17898173849E+04  0.18006351569E+04  0.00000000000E+00 0.  1.
         22    1    1    2    0    0  0.21998223263E+03  0.16229521013E+02  0.75257601314E+03  0.78423608408E+03  0.00000000000E+00 0.  1.
<mgrwt>
<rscale>  0 0.27924915E+04</rscale>
<asrwt>0</asrwt>
<pdfrwt beam="1">  1        4 0.38745035E+00 0.27924915E+04</pdfrwt>
<pdfrwt beam="2">  1       -4 0.11909155E+00 0.27924915E+04</pdfrwt>
<totfact> 0.77798817E-03</totfact>
</mgrwt>
</event>
<event>
 6    1  0.8968082E-007  0.2828879E+04  0.7818608E-02  0.8294358E-01
          2   -1    0    0  501    0  0.00000000000E+00  0.00000000000E+00  0.23175935688E+04  0.23175935688E+04  0.00000000000E+00 0. -1.
         -2   -1    0    0    0  501 -0.00000000000E+00 -0.00000000000E+00 -0.86323994852E+03  0.86323994852E+03  0.00000000000E+00 0.  1.
         23    2    1    2    0    0  0.11308978750E+04  0.46558944465E+03  0.15236301874E+04  0.19558834052E+04  0.91254654478E+02 0.  0.
         11    1    3    3    0    0  0.73498903310E+03  0.27632481504E+03  0.91851556991E+03  0.12084018927E+04  0.00000000000E+00 0. -1.
        -11    1    3    3    0    0  0.39590884185E+03  0.18926462962E+03  0.60511461753E+03  0.74748151243E+03  0.00000000000E+00 0.  1.
         22    1    1    2    0    0 -0.11308978750E+04 -0.46558944465E+03 -0.69276567150E+02  0.12249501122E+04  0.00000000000E+00 0.  1.
<mgrwt>
<rscale>  0 0.28288792E+04</rscale>
<asrwt>0</asrwt>
<pdfrwt beam="1">  1        2 0.35655285E+00 0.28288792E+04</pdfrwt>
<pdfrwt beam="2">  1       -2 0.13280615E+00 0.28288792E+04</pdfrwt>
<totfact> 0.15819469E+00</totfact>
</mgrwt>
</event>
<event>
 6    1  0.8968082E-007  0.2973216E+04  0.7818608E-02  0.8251421E-01
          2   -1    0    0  501    0  0.00000000000E+00  0.00000000000E+00  0.13020499611E+04  0.13020499611E+04  0.00000000000E+00 0. -1.
         -2   -1    0    0    0  501 -0.00000000000E+00 -0.00000000000E+00 -0.16973264703E+04  0.16973264703E+04  0.00000000000E+00 0.  1.
         23    2    1    2    0    0  0.11528751551E+04  0.19105977232E+03  0.72680017497E+03  0.13792896915E+04  0.92609929766E+02 0.  0.
         13    1    3    3    0    0  0.81796969988E+03  0.13363799386E+03  0.46505808311E+03  0.95037495968E+03  0.00000000000E+00 0. -1.
        -13    1    3    3    0    0  0.33490545518E+03  0.57421778458E+02  0.26174209187E+03  0.42891473186E+03  0.00000000000E+00 0.  1.
         22    1    1    2    0    0 -0.11528751551E+04 -0.19105977232E+03 -0.11220766842E+04  0.16200867399E+04  0.00000000000E+00 0.  1.
<mgrwt>
<rscale>  0 0.29732163E+04</rscale>
<asrwt>0</asrwt>
<pdfrwt beam="1">  1        2 0.20031538E+00 0.29732163E+04</pdfrwt>
<pdfrwt beam="2">  1       -2 0.26112715E+00 0.29732163E+04</pdfrwt>
<totfact> 0.77665416E-01</totfact>
</mgrwt>
</event>
<event>
 6    1  0.8968082E-007  0.2718719E+04  0.7818608E-02  0.8328957E-01
          1   -1    0    0  501    0  0.00000000000E+00  0.00000000000E+00  0.11279765549E+04  0.11279765549E+04  0.00000000000E+00 0. -1.
         -1   -1    0    0    0  501 -0.00000000000E+00 -0.00000000000E+00 -0.16382062650E+04  0.16382062650E+04  0.00000000000E+00 0.  1.
         23    2    1    2    0    0  0.88135447759E+03 -0.96244996363E+03  0.12688787324E+03  0.13139381908E+04  0.85072845938E+02 0.  0.
         11    1    3    3    0    0  0.55687812726E+03 -0.66241090546E+03  0.10062539086E+03  0.87122151350E+03  0.00000000000E+00 0.  1.
        -11    1    3    3    0    0  0.32447635033E+03 -0.30003905817E+03  0.26262482379E+02  0.44271667727E+03  0.00000000000E+00 0. -1.
         22    1    1    2    0    0 -0.88135447759E+03  0.96244996363E+03 -0.63711758333E+03  0.14522446291E+04  0.00000000000E+00 0.  1.
<mgrwt>
<rscale>  0 0.27187190E+04</rscale>
<asrwt>0</asrwt>
<pdfrwt beam="1">  1        1 0.17353485E+00 0.27187190E+04</pdfrwt>
<pdfrwt beam="2">  1       -1 0.25203173E+00 0.27187190E+04</pdfrwt>
<totfact> 0.71207796E-01</totfact>
</mgrwt>
</event>
<event>
 6    1  0.8968082E-007  0.2151078E+04  0.7818608E-02  0.8539071E-01
         -1   -1    0    0    0  501 -0.00000000000E+00  0.00000000000E+00  0.11143960012E+04  0.11143960012E+04  0.00000000000E+00 0.  1.
          1   -1    0    0  501    0  0.00000000000E+00 -0.00000000000E+00 -0.10380367540E+04  0.10380367540E+04  0.00000000000E+00 0. -1.
         23    2    1    2    0    0  0.71136586085E+03 -0.62691092779E+03 -0.46684440222E+03  0.10596707023E+04  0.76808867265E+02 0.  0.
         13    1    3    3    0    0  0.51247403255E+03 -0.41579411989E+03 -0.34965777387E+03  0.74684331891E+03  0.00000000000E+00 0.  1.
        -13    1    3    3    0    0  0.19889182830E+03 -0.21111680790E+03 -0.11718662835E+03  0.31282738340E+03  0.00000000000E+00 0. -1.
         22    1    1    2    0    0 -0.71136586085E+03  0.62691092779E+03  0.54320364941E+03  0.10927620528E+04  0.00000000000E+00 0.  1.
<mgrwt>
<rscale>  0 0.21510779E+04</rscale>
<asrwt>0</asrwt>
<pdfrwt beam="1">  1        1 0.15969796E+00 0.21510779E+04</pdfrwt>
<pdfrwt beam="2">  1       -1 0.17144554E+00 0.21510779E+04</pdfrwt>
<totfact> 0.31079441E+00</totfact>
</mgrwt>
</event>
<event>
 6    1  0.8968082E-007  0.1508423E+04  0.7818608E-02  0.8878871E-01
          2   -1    0    0  501    0  0.00000000000E+00  0.00000000000E+00  0.45346308125E+03  0.45346308125E+03  0.00000000000E+00 0. -1.
         -2   -1    0    0    0  501 -0.00000000000E+00 -0.00000000000E+00 -0.12544233855E+04  0.12544233855E+04  0.00000000000E+00 0.  1.
         23    2    1    2    0    0  0.31757277871E+03  0.39195469846E+03 -0.10325322326E+04  0.11528130361E+04  0.91510269406E+02 0.  0.
         11    1    3    3    0    0  0.84994120891E+02  0.96997997043E+02 -0.18232839742E+03  0.22332992751E+03  0.00000000000E+00 0. -1.
        -11    1    3    3    0    0  0.23257865782E+03  0.29495670142E+03 -0.85020383522E+03  0.92948310862E+03  0.00000000000E+00 0.  1.
         22    1    1    2    0    0 -0.31757277871E+03 -0.39195469846E+03  0.23157192835E+03  0.55507343066E+03  0.00000000000E+00 0. -1.
<mgrwt>
<rscale>  0 0.15084226E+04</rscale>
<asrwt>0</asrwt>
<pdfrwt beam="1">  1        2 0.69763553E-01 0.15084226E+04</pdfrwt>
<pdfrwt beam="2">  1       -2 0.19298821E+00 0.15084226E+04</pdfrwt>
<totfact> 0.98425855E+00</totfact>
</mgrwt>
</event>
<event>
 6    1  0.8968082E-007  0.1770755E+04  0.7818608E-02  0.8722008E-01
         -2   -1    0    0    0  501 -0.00000000000E+00  0.00000000000E+00  0.20841814645E+03  0.20841814645E+03  0.00000000000E+00 0.  1.
          2   -1    0    0  501    0  0.00000000000E+00 -0.00000000000E+00 -0.37611554452E+04  0.37611554452E+04  0.00000000000E+00 0. -1.
         23    2    1    2    0    0  0.57185127728E+03  0.44167286146E+03 -0.64332445182E+03  0.97177908339E+03  0.91648440999E+02 0.  0.
         13    1    3    3    0    0  0.36239009845E+03  0.22834743134E+03 -0.40432338264E+03  0.58902167245E+03  0.00000000000E+00 0. -1.
        -13    1    3    3    0    0  0.20946117882E+03  0.21332543011E+03 -0.23900106918E+03  0.38275741095E+03  0.00000000000E+00 0.  1.
         22    1    1    2    0    0 -0.57185127728E+03 -0.44167286146E+03 -0.29094128469E+04  0.29977945082E+04  0.00000000000E+00 0. -1.
<mgrwt>
<rscale>  0 0.17707547E+04</rscale>
<asrwt>0</asrwt>
<pdfrwt beam="1">  1        2 0.57863929E+00 0.17707547E+04</pdfrwt>
<pdfrwt beam="2">  1       -2 0.32064331E-01 0.17707547E+04</pdfrwt>
<totfact> 0.45541917E+00</totfact>
</mgrwt>
</event>
<event>
 6    1  0.8968082E-007  0.2415678E+04  0.7818608E-02  0.8433657E-01
         -1   -1    0    0    0  501 -0.00000000000E+00  0.00000000000E+00  0.13156807654E+04  0.13156807654E+04  0.00000000000E+00 0.  1.
          1   -1    0    0  501    0  0.00000000000E+00 -0.00000000000E+00 -0.11088370142E+04  0.11088370142E+04  0.00000000000E+00 0. -1.
         23    2    1    2    0    0  0.54638090908E+03 -0.75127758486E+03  0.87565277921E+03  0.12798538012E+04  0.91147437821E+02 0.  0.
         13    1    3    3    0    0  0.38805326404E+03 -0.52705624773E+03  0.67206441704E+03  0.93810671283E+03  0.00000000000E+00 0. -1.
        -13    1    3    3    0    0  0.15832764503E+03 -0.22422133713E+03  0.20358836217E+03  0.34174708838E+03  0.00000000000E+00 0.  1.
         22    1    1    2    0    0 -0.54638090908E+03  0.75127758486E+03 -0.66880902806E+03  0.11446639783E+04  0.00000000000E+00 0. -1.
<mgrwt>
<rscale>  0 0.24156784E+04</rscale>
<asrwt>0</asrwt>
<pdfrwt beam="1">  1        1 0.17059031E+00 0.24156784E+04</pdfrwt>
<pdfrwt beam="2">  1       -1 0.20241242E+00 0.24156784E+04</pdfrwt>
<totfact> 0.16185559E+00</totfact>
</mgrwt>
</event>
<event>
 6    1  0.8968082E-007  0.2116505E+04  0.7818608E-02  0.8554007E-01
          2   -1    0    0  501    0  0.00000000000E+00  0.00000000000E+00  0.17766674554E+04  0.17766674554E+04  0.00000000000E+00 0. -1.
         -2   -1    0    0    0  501 -0.00000000000E+00 -0.00000000000E+00 -0.63033655360E+03  0.63033655360E+03  0.00000000000E+00 0.  1.
         23    2    1    2    0    0 -0.15163580259E+03  0.99666926243E+03  0.93265530045E+03  0.13764700222E+04  0.92091135498E+02 0.  0.
         11    1    3    3    0    0 -0.10981020549E+03  0.57962056960E+03  0.59918069719E+03  0.84085420486E+03  0.00000000000E+00 0.  1.
        -11    1    3    3    0    0 -0.41825597091E+02  0.41704869283E+03  0.33347460325E+03  0.53561581734E+03  0.00000000000E+00 0. -1.
         22    1    1    2    0    0  0.15163580259E+03 -0.99666926243E+03  0.21367560132E+03  0.10305339868E+04  0.00000000000E+00 0.  1.
<mgrwt>
<rscale>  0 0.21165051E+04</rscale>
<asrwt>0</asrwt>
<pdfrwt beam="1">  1        2 0.27333345E+00 0.21165051E+04</pdfrwt>
<pdfrwt beam="2">  1       -2 0.96974855E-01 0.21165051E+04</pdfrwt>
<totfact> 0.72662216E+00</totfact>
</mgrwt>
</event>
<event>
 6    1  0.8968082E-007  0.3304766E+04  0.7818608E-02  0.8161684E-01
         -2   -1    0    0    0  501 -0.00000000000E+00  0.00000000000E+00  0.14946985475E+04  0.14946985475E+04  0.00000000000E+00 0.  1.
          2   -1    0    0  501    0  0.00000000000E+00 -0.00000000000E+00 -0.18267025649E+04  0.18267025649E+04  0.00000000000E+00 0. -1.
         23    2    1    2    0    0  0.12466186007E+04 -0.72506680346E+03 -0.97419160182E+03  0.17427356321E+04  0.91095561529E+02 0.  0.
         11    1    3    3    0    0  0.10287441635E+04 -0.57207335174E+03 -0.82643885294E+03  0.14382571576E+04  0.00000000000E+00 0. -1.
        -11    1    3    3    0    0  0.21787443723E+03 -0.15299345172E+03 -0.14775274888E+03  0.30447847456E+03  0.00000000000E+00 0.  1.
         22    1    1    2    0    0 -0.12466186007E+04  0.72506680346E+03  0.64218758438E+03  0.15786654803E+04  0.00000000000E+00 0. -1.
<mgrwt>
<rscale>  0 0.33047661E+04</rscale>
<asrwt>0</asrwt>
<pdfrwt beam="1">  1        2 0.28103116E+00 0.33047661E+04</pdfrwt>
<pdfrwt beam="2">  1       -2 0.22995362E+00 0.33047661E+04</pdfrwt>
<totfact> 0.59571044E-01</totfact>
</mgrwt>
</event>
<event>
 6    1  0.8968082E-007  0.1486102E+04  0.7818608E-02  0.8893748E-01
         -1   -1    0    0    0  501 -0.00000000000E+00  0.00000000000E+00  0.29011201723E+03  0.29011201723E+03  0.00000000000E+00 0.  1.
          1   -1    0    0  501    0  0.00000000000E+00 -0.00000000000E+00 -0.19031427567E+04  0.19031427567E+04  0.00000000000E+00 0. -1.
         23    2    1    2    0    0  0.21728847669E+03 -0.23928657309E+03 -0.17925347958E+04  0.18235331862E+04  0.87292273243E+02 0.  0.
         13    1    3    3    0    0  0.20228867650E+03 -0.24456533158E+03 -0.17373752589E+04  0.17661273171E+04  0.00000000000E+00 0.  1.
        -13    1    3    3    0    0  0.14999800189E+02  0.52787584909E+01 -0.55159536882E+02  0.57405869090E+02  0.00000000000E+00 0. -1.
         22    1    1    2    0    0 -0.21728847669E+03  0.23928657309E+03  0.17950405634E+03  0.36972158769E+03  0.00000000000E+00 0.  1.
<mgrwt>
<rscale>  0 0.14861017E+04</rscale>
<asrwt>0</asrwt>
<pdfrwt beam="1">  1        1 0.29279119E+00 0.14861017E+04</pdfrwt>
<pdfrwt beam="2">  1       -1 0.44632618E-01 0.14861017E+04</pdfrwt>
<totfact> 0.16704524E+01</totfact>
</mgrwt>
</event>
<event>
 6    1  0.8968082E-007  0.2051515E+04  0.7818608E-02  0.8582908E-01
         -1   -1    0    0    0  501 -0.00000000000E+00  0.00000000000E+00  0.73342363150E+03  0.73342363150E+03  0.00000000000E+00 0.  1.
          1   -1    0    0  501    0  0.00000000000E+00 -0.00000000000E+00 -0.14346116239E+04  0.14346116239E+04  0.00000000000E+00 0. -1.
         23    2    1    2    0    0  0.58323150806E+02  0.65991757315E+03  0.47358739345E+03  0.81933588175E+03  0.90185778283E+02 0.  0.
         11    1    3    3    0    0  0.97915170185E+01  0.93072375800E+02  0.31169612109E+02  0.98640182794E+02  0.00000000000E+00 0.  1.
        -11    1    3    3    0    0  0.48531633788E+02  0.56684519735E+03  0.44241778135E+03  0.72069569895E+03  0.00000000000E+00 0. -1.
         22    1    1    2    0    0 -0.58323150806E+02 -0.65991757315E+03 -0.11747753859E+04  0.13486993737E+04  0.00000000000E+00 0. -1.
<mgrwt>
<rscale>  0 0.20515146E+04</rscale>
<asrwt>0</asrwt>
<pdfrwt beam="1">  1        1 0.22070948E+00 0.20515146E+04</pdfrwt>
<pdfrwt beam="2">  1       -1 0.11283441E+00 0.20515146E+04</pdfrwt>
<totfact> 0.48201397E+00</totfact>
</mgrwt>
</event>
<event>
 6    1  0.8968082E-007  0.1930808E+04  0.7818608E-02  0.8639672E-01
          1   -1    0    0  501    0  0.00000000000E+00  0.00000000000E+00  0.65869872985E+03  0.65869872985E+03  0.00000000000E+00 0. -1.
         -1   -1    0    0    0  501 -0.00000000000E+00 -0.00000000000E+00 -0.14149178319E+04  0.14149178319E+04  0.00000000000E+00 0.  1.
         23    2    1    2    0    0  0.43029063697E+03  0.64591809312E+03 -0.99180716507E+03  0.12625296671E+04  0.89103828406E+02 0.  0.
         13    1    3    3    0    0  0.37794054683E+03  0.50482237041E+03 -0.80861159597E+03  0.10254449745E+04  0.00000000000E+00 0. -1.
        -13    1    3    3    0    0  0.52350090141E+02  0.14109572271E+03 -0.18319556910E+03  0.23708469255E+03  0.00000000000E+00 0.  1.
         22    1    1    2    0    0 -0.43029063697E+03 -0.64591809312E+03  0.23558806303E+03  0.81108689468E+03  0.00000000000E+00 0. -1.
<mgrwt>
<rscale>  0 0.19308077E+04</rscale>
<asrwt>0</asrwt>
<pdfrwt beam="1">  1        1 0.10133827E+00 0.19308077E+04</pdfrwt>
<pdfrwt beam="2">  1       -1 0.21767967E+00 0.19308077E+04</pdfrwt>
<totfact> 0.31779763E+00</totfact>
</mgrwt>
</event>
<event>
 6    1  0.8968082E-007  0.1364733E+04  0.7818608E-02  0.8979750E-01
          2   -1    0    0  501    0  0.00000000000E+00  0.00000000000E+00  0.37732306588E+03  0.37732306588E+03  0.00000000000E+00 0. -1.
         -2   -1    0    0    0  501 -0.00000000000E+00 -0.00000000000E+00 -0.12340198073E+04  0.12340198073E+04  0.00000000000E+00 0.  1.
         23    2    1    2    0    0 -0.43130928773E+03  0.49305446263E+03 -0.64160027632E+03  0.92185255845E+03  0.95030627441E+02 0.  0.
         13    1    3    3    0    0 -0.30426656180E+03  0.39007477831E+03 -0.52249001760E+03  0.71953616434E+03  0.00000000000E+00 0. -1.
        -13    1    3    3    0    0 -0.12704272593E+03  0.10297968432E+03 -0.11911025872E+03  0.20231639411E+03  0.00000000000E+00 0.  1.
         22    1    1    2    0    0  0.43130928773E+03 -0.49305446263E+03 -0.21509646509E+03  0.68949031472E+03  0.00000000000E+00 0. -1.
<mgrwt>
<rscale>  0 0.13647331E+04</rscale>
<asrwt>0</asrwt>
<pdfrwt beam="1">  1        2 0.58049703E-01 0.13647331E+04</pdfrwt>
<pdfrwt beam="2">  1       -2 0.18984920E+00 0.13647331E+04</pdfrwt>
<totfact> 0.12860493E+01</totfact>
</mgrwt>
</event>
<event>
 6    1  0.8968082E-007  0.4606445E+04  0.7818608E-02  0.7892262E-01
          2   -1    0    0  501    0  0.00000000000E+00  0.00000000000E+00  0.39621289646E+04  0.39621289646E+04  0.00000000000E+00 0. -1.
         -2   -1    0    0    0  501 -0.00000000000E+00 -0.00000000000E+00 -0.13388849885E+04  0.13388849885E+04  0.00000000000E+00 0.  1.
         23    2    1    2    0    0  0.59213121218E+03  0.21464124614E+04  0.19860301188E+04  0.29850374146E+04  0.91798188108E+02 0.  0.
         13    1    3    3    0    0  0.16674272212E+03  0.59002215011E+03  0.60233343027E+03  0.85949684945E+03  0.00000000000E+00 0. -1.
        -13    1    3    3    0    0  0.42538849006E+03  0.15563903112E+04  0.13836966885E+04  0.21255405652E+04  0.00000000000E+00 0.  1.
         22    1    1    2    0    0 -0.59213121218E+03 -0.21464124614E+04  0.63721385732E+03  0.23159765384E+04  0.00000000000E+00 0.  1.
<mgrwt>
<rscale>  0 0.46064455E+04</rscale>
<asrwt>0</asrwt>
<pdfrwt beam="1">  1        2 0.60955829E+00 0.46064455E+04</pdfrwt>
<pdfrwt beam="2">  1       -2 0.20598231E+00 0.46064455E+04</pdfrwt>
<totfact> 0.33378482E-02</totfact>
</mgrwt>
</event>
<event>
 6    1  0.8968082E-007  0.3447815E+04  0.7818608E-02  0.8126270E-01
         -2   -1    0    0    0  501 -0.00000000000E+00  0.00000000000E+00  0.17562578148E+04  0.17562578148E+04  0.00000000000E+00 0.  1.
          2   -1    0    0  501    0  0.00000000000E+00 -0.00000000000E+00 -0.16921527628E+04  0.16921527628E+04  0.00000000000E+00 0. -1.
         23    2    1    2    0    0 -0.55560863714E+03 -0.13187860497E+04 -0.92729281174E+03  0.17075006641E+04  0.88255066480E+02 0.  0.
         11    1    3    3    0    0 -0.42862124165E+03 -0.92141262797E+03 -0.67490856131E+03  0.12199258034E+04  0.00000000000E+00 0. -1.
        -11    1    3    3    0    0 -0.12698739550E+03 -0.39737342175E+03 -0.25238425043E+03  0.48757486070E+03  0.00000000000E+00 0.  1.
         22    1    1    2    0    0  0.55560863714E+03  0.13187860497E+04  0.99139786376E+03  0.17409099135E+04  0.00000000000E+00 0.  1.
<mgrwt>
<rscale>  0 0.34478147E+04</rscale>
<asrwt>0</asrwt>
<pdfrwt beam="1">  1        2 0.26033119E+00 0.34478147E+04</pdfrwt>
<pdfrwt beam="2">  1       -2 0.27019351E+00 0.34478147E+04</pdfrwt>
<totfact> 0.39512625E-01</totfact>
</mgrwt>
</event>
<event>
 6    1  0.8968082E-007  0.1988307E+04  0.7818608E-02  0.8612107E-01
          2   -1    0    0  501    0  0.00000000000E+00  0.00000000000E+00  0.20505329262E+04  0.20505329262E+04  0.00000000000E+00 0. -1.
         -2   -1    0    0    0  501 -0.00000000000E+00 -0.00000000000E+00 -0.48199243178E+03  0.48199243178E+03  0.00000000000E+00 0.  1.
         23    2    1    2    0    0 -0.38825696771E+03  0.51226746250E+03 -0.17671306672E+03  0.67266745513E+03  0.89958719030E+02 0.  0.
         13    1    3    3    0    0 -0.66019118349E+02  0.44705177310E+02 -0.36923397676E+02  0.87865887361E+02  0.00000000000E+00 0.  1.
        -13    1    3    3    0    0 -0.32223784936E+03  0.46756228519E+03 -0.13978966905E+03  0.58480156777E+03  0.00000000000E+00 0. -1.
         22    1    1    2    0    0  0.38825696771E+03 -0.51226746250E+03  0.17452535612E+04  0.18598579029E+04  0.00000000000E+00 0. -1.
<mgrwt>
<rscale>  0 0.19883072E+04</rscale>
<asrwt>0</asrwt>
<pdfrwt beam="1">  1        2 0.31546660E+00 0.19883072E+04</pdfrwt>
<pdfrwt beam="2">  1       -2 0.74152683E-01 0.19883072E+04</pdfrwt>
<totfact> 0.95348901E+00</totfact>
</mgrwt>
</event>
<event>
 6    1  0.8968082E-007  0.1338534E+04  0.7818608E-02  0.8999553E-01
         -2   -1    0    0    0  501 -0.00000000000E+00  0.00000000000E+00  0.14711081066E+04  0.14711081066E+04  0.00000000000E+00 0.  1.
          2   -1    0    0  501    0  0.00000000000E+00 -0.00000000000E+00 -0.30447684517E+03  0.30447684517E+03  0.00000000000E+00 0. -1.
         23    2    1    2    0    0  0.40304516127E+03  0.28455742784E+02 -0.11656879474E+03  0.43027550207E+03  0.91069163008E+02 0.  0.
         13    1    3    3    0    0  0.26168098044E+03 -0.55974159142E+01 -0.36480909203E+02  0.26427092789E+03  0.00000000000E+00 0. -1.
        -13    1    3    3    0    0  0.14136418083E+03  0.34053158699E+02 -0.80087885539E+02  0.16600457418E+03  0.00000000000E+00 0.  1.
         22    1    1    2    0    0 -0.40304516127E+03 -0.28455742784E+02  0.12832000562E+04  0.13453094497E+04  0.00000000000E+00 0.  1.
<mgrwt>
<rscale>  0 0.13385341E+04</rscale>
<asrwt>0</asrwt>
<pdfrwt beam="1">  1        2 0.46842592E-01 0.13385341E+04</pdfrwt>
<pdfrwt beam="2">  1       -2 0.22632432E+00 0.13385341E+04</pdfrwt>
<totfact> 0.95186645E+00</totfact>
</mgrwt>
</event>
<event>
 6    1  0.8968082E-007  0.2063815E+04  0.7818608E-02  0.8577353E-01
         -2   -1    0    0    0  501 -0.00000000000E+00  0.00000000000E+00  0.10574223450E+04  0.10574223450E+04  0.00000000000E+00 0.  1.
          2   -1    0    0  501    0  0.00000000000E+00 -0.00000000000E+00 -0.10070087836E+04  0.10070087836E+04  0.00000000000E+00 0. -1.
         23    2    1    2    0    0  0.54030509129E+03 -0.27176163232E+03  0.85763465330E+03  0.10557736706E+04  0.11548536036E+03 0.  0.
         13    1    3    3    0    0  0.37578320194E+03 -0.16329561728E+03  0.65888717224E+03  0.77589353602E+03  0.00000000000E+00 0.  1.
        -13    1    3    3    0    0  0.16452188934E+03 -0.10846601504E+03  0.19874748106E+03  0.27988013455E+03  0.00000000000E+00 0. -1.
         22    1    1    2    0    0 -0.54030509129E+03  0.27176163232E+03 -0.80722109193E+03  0.10086574581E+04  0.00000000000E+00 0. -1.
<mgrwt>
<rscale>  0 0.20638155E+04</rscale>
<asrwt>0</asrwt>
<pdfrwt beam="1">  1        2 0.15492443E+00 0.20638155E+04</pdfrwt>
<pdfrwt beam="2">  1       -2 0.16268036E+00 0.20638155E+04</pdfrwt>
<totfact> 0.55452066E+00</totfact>
</mgrwt>
</event>
<event>
 6    1  0.8968082E-007  0.5848699E+03  0.7818608E-02  0.9937303E-01
          2   -1    0    0  501    0  0.00000000000E+00  0.00000000000E+00  0.31893513419E+03  0.31893513419E+03  0.00000000000E+00 0. -1.
         -2   -1    0    0    0  501 -0.00000000000E+00 -0.00000000000E+00 -0.26813665316E+03  0.26813665316E+03  0.00000000000E+00 0.  1.
         23    2    1    2    0    0 -0.26185755138E+03 -0.66718878900E+02 -0.65821984078E+02  0.29275712767E+03  0.91397025116E+02 0.  0.
         13    1    3    3    0    0 -0.12310983670E+03 -0.55837875945E+02  0.76176016279E+01  0.13539545094E+03  0.00000000000E+00 0. -1.
        -13    1    3    3    0    0 -0.13874771468E+03 -0.10881002955E+02 -0.73439585706E+02  0.15736167673E+03  0.00000000000E+00 0.  1.
         22    1    1    2    0    0  0.26185755138E+03  0.66718878900E+02  0.11662046511E+03  0.29431465967E+03  0.00000000000E+00 0.  1.
<mgrwt>
<rscale>  0 0.58486990E+03</rscale>
<asrwt>0</asrwt>
<pdfrwt beam="1">  1        2 0.49066944E-01 0.58486990E+03</pdfrwt>
<pdfrwt beam="2">  1       -2 0.41251793E-01 0.58486990E+03</pdfrwt>
<totfact> 0.57501145E+02</totfact>
</mgrwt>
</event>
<event>
 6    1  0.8968082E-007  0.1955251E+04  0.7818608E-02  0.8627833E-01
          2   -1    0    0  501    0  0.00000000000E+00  0.00000000000E+00  0.25841303320E+03  0.25841303320E+03  0.00000000000E+00 0. -1.
         -2   -1    0    0    0  501 -0.00000000000E+00 -0.00000000000E+00 -0.36985412606E+04  0.36985412606E+04  0.00000000000E+00 0.  1.
         23    2    1    2    0    0 -0.97468922006E+03  0.37531753702E+02 -0.17090583321E+04  0.19699890977E+04  0.92460554435E+02 0.  0.
         13    1    3    3    0    0 -0.50345622013E+03 -0.25933985711E+02 -0.86101624659E+03  0.99774230847E+03  0.00000000000E+00 0. -1.
        -13    1    3    3    0    0 -0.47123299992E+03  0.63465739413E+02 -0.84804208554E+03  0.97224678922E+03  0.00000000000E+00 0.  1.
         22    1    1    2    0    0  0.97468922006E+03 -0.37531753702E+02 -0.17310698952E+04  0.19869651961E+04  0.00000000000E+00 0.  1.
<mgrwt>
<rscale>  0 0.19552506E+04</rscale>
<asrwt>0</asrwt>
<pdfrwt beam="1">  1        2 0.39755850E-01 0.19552506E+04</pdfrwt>
<pdfrwt beam="2">  1       -2 0.56900637E+00 0.19552506E+04</pdfrwt>
<totfact> 0.81915020E-02</totfact>
</mgrwt>
</event>
<event>
 6    1  0.8968082E-007  0.1537335E+04  0.7818608E-02  0.8859998E-01
          2   -1    0    0  501    0  0.00000000000E+00  0.00000000000E+00  0.12244303191E+04  0.12244303191E+04  0.00000000000E+00 0. -1.
         -2   -1    0    0    0  501 -0.00000000000E+00 -0.00000000000E+00 -0.48255064914E+03  0.48255064914E+03  0.00000000000E+00 0.  1.
         23    2    1    2    0    0 -0.36813253425E+03  0.14221420268E+03  0.11009604526E+04  0.11734217393E+04  0.95174670032E+02 0.  0.
         11    1    3    3    0    0 -0.16738604212E+03  0.16853975441E+02  0.49959168026E+03  0.52715651430E+03  0.00000000000E+00 0.  1.
        -11    1    3    3    0    0 -0.20074649212E+03  0.12536022724E+03  0.60136877237E+03  0.64626522501E+03  0.00000000000E+00 0. -1.
         22    1    1    2    0    0  0.36813253425E+03 -0.14221420268E+03 -0.35908078271E+03  0.53355922888E+03  0.00000000000E+00 0.  1.
<mgrwt>
<rscale>  0 0.15373349E+04</rscale>
<asrwt>0</asrwt>
<pdfrwt beam="1">  1        2 0.18837389E+00 0.15373349E+04</pdfrwt>
<pdfrwt beam="2">  1       -2 0.74238562E-01 0.15373349E+04</pdfrwt>
<totfact> 0.28826465E+01</totfact>
</mgrwt>
</event>
<event>
 6    1  0.8968082E-007  0.1975642E+04  0.7818608E-02  0.8618094E-01
          1   -1    0    0  501    0  0.00000000000E+00  0.00000000000E+00  0.86403659380E+03  0.86403659380E+03  0.00000000000E+00 0. -1.
         -1   -1    0    0    0  501 -0.00000000000E+00 -0.00000000000E+00 -0.11293395495E+04  0.11293395495E+04  0.00000000000E+00 0.  1.
         23    2    1    2    0    0  0.28592864674E+03  0.26634223240E+03 -0.10461751900E+04  0.11201895527E+04  0.87457017040E+02 0.  0.
         11    1    3    3    0    0  0.21083273274E+03  0.22406367186E+03 -0.72336181495E+03  0.78607078916E+03  0.00000000000E+00 0.  1.
        -11    1    3    3    0    0  0.75095914007E+02  0.42278560538E+02 -0.32281337509E+03  0.33411876349E+03  0.00000000000E+00 0. -1.
         22    1    1    2    0    0 -0.28592864674E+03 -0.26634223240E+03  0.78087223432E+03  0.87318659066E+03  0.00000000000E+00 0. -1.
<mgrwt>
<rscale>  0 0.19756424E+04</rscale>
<asrwt>0</asrwt>
<pdfrwt beam="1">  1        1 0.13292871E+00 0.19756424E+04</pdfrwt>
<pdfrwt beam="2">  1       -1 0.17374455E+00 0.19756424E+04</pdfrwt>
<totfact> 0.41853332E+00</totfact>
</mgrwt>
</event>
<event>
 6    1  0.8968082E-007  0.1828227E+04  0.7818608E-02  0.8691431E-01
          1   -1    0    0  501    0  0.00000000000E+00  0.00000000000E+00  0.86775451271E+03  0.86775451271E+03  0.00000000000E+00 0. -1.
         -1   -1    0    0    0  501 -0.00000000000E+00 -0.00000000000E+00 -0.96294908274E+03  0.96294908274E+03  0.00000000000E+00 0.  1.
         23    2    1    2    0    0 -0.86174112275E+03 -0.29552740275E+03 -0.86759532347E+02  0.91965729680E+03  0.91148881998E+02 0.  0.
         11    1    3    3    0    0 -0.61553232108E+03 -0.25387644860E+03 -0.60675194492E+02  0.66859163072E+03  0.00000000000E+00 0. -1.
        -11    1    3    3    0    0 -0.24620880167E+03 -0.41650954158E+02 -0.26084337855E+02  0.25106566608E+03  0.00000000000E+00 0.  1.
         22    1    1    2    0    0  0.86174112275E+03  0.29552740275E+03 -0.84350376795E+01  0.91104629865E+03  0.00000000000E+00 0.  1.
<mgrwt>
<rscale>  0 0.18282269E+04</rscale>
<asrwt>0</asrwt>
<pdfrwt beam="1">  1        1 0.13350069E+00 0.18282269E+04</pdfrwt>
<pdfrwt beam="2">  1       -1 0.14814601E+00 0.18282269E+04</pdfrwt>
<totfact> 0.65726368E+00</totfact>
</mgrwt>
</event>
<event>
 6    1  0.8968082E-007  0.1475542E+04  0.7818608E-02  0.8900882E-01
         -2   -1    0    0    0  501 -0.00000000000E+00  0.00000000000E+00  0.68294076718E+03  0.68294076718E+03  0.00000000000E+00 0.  1.
          2   -1    0    0  501    0  0.00000000000E+00 -0.00000000000E+00 -0.79700362000E+03  0.79700362000E+03  0.00000000000E+00 0. -1.
         23    2    1    2    0    0 -0.70987323214E+02  0.68623282221E+03 -0.31124540526E+03  0.76242390293E+03  0.91988146676E+02 0.  0.
         13    1    3    3    0    0  0.12580649995E+02  0.23667052056E+03 -0.80998908828E+02  0.25046363266E+03  0.00000000000E+00 0.  1.
        -13    1    3    3    0    0 -0.83567973208E+02  0.44956230165E+03 -0.23024649644E+03  0.51196027027E+03  0.00000000000E+00 0. -1.
         22    1    1    2    0    0  0.70987323214E+02 -0.68623282221E+03  0.19718255245E+03  0.71752048425E+03  0.00000000000E+00 0.  1.
<mgrwt>
<rscale>  0 0.14755423E+04</rscale>
<asrwt>0</asrwt>
<pdfrwt beam="1">  1        2 0.12261594E+00 0.14755423E+04</pdfrwt>
<pdfrwt beam="2">  1       -2 0.10506781E+00 0.14755423E+04</pdfrwt>
<totfact> 0.24597901E+01</totfact>
</mgrwt>
</event>
<event>
 6    1  0.8968082E-007  0.2652986E+04  0.7818608E-02  0.8350422E-01
          2   -1    0    0  501    0  0.00000000000E+00  0.00000000000E+00  0.92693342539E+03  0.92693342539E+03  0.00000000000E+00 0. -1.
         -2   -1    0    0    0  501 -0.00000000000E+00 -0.00000000000E+00 -0.18982855464E+04  0.18982855464E+04  0.00000000000E+00 0.  1.
         23    2    1    2    0    0  0.10907850703E+04  0.71971382467E+03 -0.71757108772E+03  0.14939771185E+04  0.96225286568E+02 0.  0.
         13    1    3    3    0    0  0.43499954953E+03  0.25197698525E+03 -0.23435062441E+03  0.55465054254E+03  0.00000000000E+00 0. -1.
        -13    1    3    3    0    0  0.65578552078E+03  0.46773683942E+03 -0.48322046331E+03  0.93932657600E+03  0.00000000000E+00 0.  1.
         22    1    1    2    0    0 -0.10907850703E+04 -0.71971382467E+03 -0.25378103331E+03  0.13312418533E+04  0.00000000000E+00 0.  1.
<mgrwt>
<rscale>  0 0.26529865E+04</rscale>
<asrwt>0</asrwt>
<pdfrwt beam="1">  1        2 0.14260515E+00 0.26529865E+04</pdfrwt>
<pdfrwt beam="2">  1       -2 0.29204392E+00 0.26529865E+04</pdfrwt>
<totfact> 0.88060246E-01</totfact>
</mgrwt>
</event>
<event>
 6    1  0.8968082E-007  0.2032643E+04  0.7818608E-02  0.8591509E-01
         -2   -1    0    0    0  501 -0.00000000000E+00  0.00000000000E+00  0.11063518643E+04  0.11063518643E+04  0.00000000000E+00 0.  1.
          2   -1    0    0  501    0  0.00000000000E+00 -0.00000000000E+00 -0.93361739339E+03  0.93361739339E+03  0.00000000000E+00 0. -1.
         23    2    1    2    0    0  0.69095429565E+03  0.25372960592E+03  0.78663412840E+03  0.10814968579E+04  0.95108622226E+02 0.  0.
         11    1    3    3    0    0  0.50981074035E+03  0.23049695196E+03  0.59913890780E+03  0.81975805374E+03  0.00000000000E+00 0. -1.
        -11    1    3    3    0    0  0.18114355530E+03  0.23232653956E+02  0.18749522061E+03  0.26173880413E+03  0.00000000000E+00 0.  1.
         22    1    1    2    0    0 -0.69095429565E+03 -0.25372960592E+03 -0.61389965754E+03  0.95847239977E+03  0.00000000000E+00 0. -1.
<mgrwt>
<rscale>  0 0.20326430E+04</rscale>
<asrwt>0</asrwt>
<pdfrwt beam="1">  1        2 0.14363345E+00 0.20326430E+04</pdfrwt>
<pdfrwt beam="2">  1       -2 0.17020798E+00 0.20326430E+04</pdfrwt>
<totfact> 0.54772749E+00</totfact>
</mgrwt>
</event>
<event>
 6    1  0.8968082E-007  0.1021581E+04  0.7818608E-02  0.9285187E-01
          3   -1    0    0  501    0  0.00000000000E+00  0.00000000000E+00  0.28120059836E+04  0.28120059836E+04  0.00000000000E+00 0. -1.
         -3   -1    0    0    0  501 -0.00000000000E+00 -0.00000000000E+00 -0.92783235768E+02  0.92783235768E+02  0.00000000000E+00 0.  1.
         23    2    1    2    0    0 -0.46098824745E+03  0.10473897654E+03  0.18885849313E+04  0.19490488782E+04  0.92509833823E+02 0.  0.
         11    1    3    3    0    0 -0.26773095223E+03  0.33909616899E+02  0.91622340677E+03  0.95514138011E+03  0.00000000000E+00 0. -1.
        -11    1    3    3    0    0 -0.19325729523E+03  0.70829359645E+02  0.97236152450E+03  0.99390749805E+03  0.00000000000E+00 0.  1.
         22    1    1    2    0    0  0.46098824745E+03 -0.10473897654E+03  0.83063781655E+03  0.95574034119E+03  0.00000000000E+00 0.  1.
<mgrwt>
<rscale>  0 0.10215812E+04</rscale>
<asrwt>0</asrwt>
<pdfrwt beam="1">  1        3 0.43261624E+00 0.10215812E+04</pdfrwt>
<pdfrwt beam="2">  1       -3 0.14274346E-01 0.10215812E+04</pdfrwt>
<totfact> 0.84391920E-01</totfact>
</mgrwt>
</event>
<event>
 6    1  0.8968082E-007  0.1713735E+04  0.7818608E-02  0.8753569E-01
          2   -1    0    0  501    0  0.00000000000E+00  0.00000000000E+00  0.12087952948E+04  0.12087952948E+04  0.00000000000E+00 0. -1.
         -2   -1    0    0    0  501 -0.00000000000E+00 -0.00000000000E+00 -0.60739989437E+03  0.60739989437E+03  0.00000000000E+00 0.  1.
         23    2    1    2    0    0  0.21124816907E+03  0.19889772281E+03  0.11533188493E+04  0.11926524187E+04  0.89940706124E+02 0.  0.
         13    1    3    3    0    0  0.73162657450E+02  0.12521247978E+03  0.62711336923E+03  0.64366304648E+03  0.00000000000E+00 0.  1.
        -13    1    3    3    0    0  0.13808551162E+03  0.73685243029E+02  0.52620548009E+03  0.54898937224E+03  0.00000000000E+00 0. -1.
         22    1    1    2    0    0 -0.21124816907E+03 -0.19889772281E+03 -0.55192344892E+03  0.62354277042E+03  0.00000000000E+00 0.  1.
<mgrwt>
<rscale>  0 0.17137353E+04</rscale>
<asrwt>0</asrwt>
<pdfrwt beam="1">  1        2 0.18596851E+00 0.17137353E+04</pdfrwt>
<pdfrwt beam="2">  1       -2 0.93446138E-01 0.17137353E+04</pdfrwt>
<totfact> 0.17231270E+01</totfact>
</mgrwt>
</event>
<event>
 6    1  0.8968082E-007  0.8798084E+03  0.7818608E-02  0.9451180E-01
          4   -1    0    0  501    0  0.00000000000E+00  0.00000000000E+00  0.21053720962E+03  0.21053720962E+03  0.00000000000E+00 0. -1.
         -4   -1    0    0    0  501 -0.00000000000E+00 -0.00000000000E+00 -0.91915200129E+03  0.91915200129E+03  0.00000000000E+00 0.  1.
         23    2    1    2    0    0  0.17311336495E+03  0.39770978083E+03 -0.40381851686E+03  0.59955519385E+03  0.90861042384E+02 0.  0.
         13    1    3    3    0    0  0.41974850124E+02  0.18606805175E+03 -0.13859495951E+03  0.23577907186E+03  0.00000000000E+00 0.  1.
        -13    1    3    3    0    0  0.13113851483E+03  0.21164172908E+03 -0.26522355734E+03  0.36377612199E+03  0.00000000000E+00 0. -1.
         22    1    1    2    0    0 -0.17311336495E+03 -0.39770978083E+03 -0.30479627482E+03  0.53013401706E+03  0.00000000000E+00 0.  1.
<mgrwt>
<rscale>  0 0.87980838E+03</rscale>
<asrwt>0</asrwt>
<pdfrwt beam="1">  1        4 0.32390340E-01 0.87980838E+03</pdfrwt>
<pdfrwt beam="2">  1       -4 0.14140800E+00 0.87980838E+03</pdfrwt>
<totfact> 0.64271179E+00</totfact>
</mgrwt>
</event>
<event>
 6    1  0.8968082E-007  0.1126778E+04  0.7818608E-02  0.9179479E-01
         -2   -1    0    0    0  501 -0.00000000000E+00  0.00000000000E+00  0.38867815881E+03  0.38867815881E+03  0.00000000000E+00 0.  1.
          2   -1    0    0  501    0  0.00000000000E+00 -0.00000000000E+00 -0.81663186510E+03  0.81663186510E+03  0.00000000000E+00 0. -1.
         23    2    1    2    0    0 -0.53623048462E+03 -0.97896061009E+02 -0.79673898364E+02  0.55845177359E+03  0.91617039583E+02 0.  0.
         13    1    3    3    0    0 -0.52670938436E+03 -0.99336058486E+02 -0.63655022173E+02  0.53976141946E+03  0.00000000000E+00 0.  1.
        -13    1    3    3    0    0 -0.95211002597E+01  0.14399974775E+01 -0.16018876191E+02  0.18690354125E+02  0.00000000000E+00 0. -1.
         22    1    1    2    0    0  0.53623048462E+03  0.97896061009E+02 -0.34827980792E+03  0.64685825032E+03  0.00000000000E+00 0.  1.
<mgrwt>
<rscale>  0 0.11267777E+04</rscale>
<asrwt>0</asrwt>
<pdfrwt beam="1">  1        2 0.12563567E+00 0.11267777E+04</pdfrwt>
<pdfrwt beam="2">  1       -2 0.59796640E-01 0.11267777E+04</pdfrwt>
<totfact> 0.86679856E+01</totfact>
</mgrwt>
</event>
<event>
 6    1  0.8968082E-007  0.1970651E+04  0.7818608E-02  0.8620466E-01
         -2   -1    0    0    0  501 -0.00000000000E+00  0.00000000000E+00  0.44517200310E+03  0.44517200310E+03  0.00000000000E+00 0.  1.
          2   -1    0    0  501    0  0.00000000000E+00 -0.00000000000E+00 -0.21808796238E+04  0.21808796238E+04  0.00000000000E+00 0. -1.
         23    2    1    2    0    0  0.44449676586E+02  0.24589465611E+03 -0.21368715489E+04  0.21534286768E+04  0.92709730002E+02 0.  0.
         13    1    3    3    0    0 -0.23669709264E+02  0.22049606998E+02 -0.28764756325E+03  0.28946081073E+03  0.00000000000E+00 0. -1.
        -13    1    3    3    0    0  0.68119385850E+02  0.22384504911E+03 -0.18492239856E+04  0.18639678661E+04  0.00000000000E+00 0.  1.
         22    1    1    2    0    0 -0.44449676586E+02 -0.24589465611E+03  0.40116392819E+03  0.47262295007E+03  0.00000000000E+00 0.  1.
<mgrwt>
<rscale>  0 0.19706512E+04</rscale>
<asrwt>0</asrwt>
<pdfrwt beam="1">  1        2 0.33551994E+00 0.19706512E+04</pdfrwt>
<pdfrwt beam="2">  1       -2 0.68488001E-01 0.19706512E+04</pdfrwt>
<totfact> 0.96109242E+00</totfact>
</mgrwt>
</event>
<event>
 6    1  0.8968082E-007  0.4066031E+04  0.7818608E-02  0.7991357E-01
          2   -1    0    0  501    0  0.00000000000E+00  0.00000000000E+00  0.22974726546E+04  0.22974726546E+04  0.00000000000E+00 0. -1.
         -2   -1    0    0    0  501 -0.00000000000E+00 -0.00000000000E+00 -0.17989996811E+04  0.17989996811E+04  0.00000000000E+00 0.  1.
         23    2    1    2    0    0 -0.16275468991E+04  0.47823658772E+03 -0.87776424467E+03  0.19120621124E+04  0.88838674325E+02 0.  0.
         11    1    3    3    0    0 -0.75204374946E+03  0.26185882213E+03 -0.43489247859E+03  0.90734299566E+03  0.00000000000E+00 0. -1.
        -11    1    3    3    0    0 -0.87550314962E+03  0.21637776559E+03 -0.44287176608E+03  0.10047191168E+04  0.00000000000E+00 0.  1.
         22    1    1    2    0    0  0.16275468991E+04 -0.47823658772E+03  0.13762372182E+04  0.21844102232E+04  0.00000000000E+00 0. -1.
<mgrwt>
<rscale>  0 0.40660313E+04</rscale>
<asrwt>0</asrwt>
<pdfrwt beam="1">  1        2 0.35345733E+00 0.40660313E+04</pdfrwt>
<pdfrwt beam="2">  1       -2 0.27676918E+00 0.40660313E+04</pdfrwt>
<totfact> 0.15729919E-01</totfact>
</mgrwt>
</event>
<event>
 6    1  0.8968082E-007  0.3481977E+04  0.7818608E-02  0.8118074E-01
          1   -1    0    0  501    0  0.00000000000E+00  0.00000000000E+00  0.24102660384E+04  0.24102660384E+04  0.00000000000E+00 0. -1.
         -1   -1    0    0    0  501 -0.00000000000E+00 -0.00000000000E+00 -0.12575548256E+04  0.12575548256E+04  0.00000000000E+00 0.  1.
         23    2    1    2    0    0  0.15364165085E+04  0.63233143468E+03  0.11204098402E+04  0.20060561065E+04  0.92326385381E+02 0.  0.
         11    1    3    3    0    0  0.84523448922E+03  0.29810958620E+03  0.60474731534E+03  0.10812076501E+04  0.00000000000E+00 0. -1.
        -11    1    3    3    0    0  0.69118201925E+03  0.33422184848E+03  0.51566252488E+03  0.92484845640E+03  0.00000000000E+00 0.  1.
         22    1    1    2    0    0 -0.15364165085E+04 -0.63233143468E+03  0.32301372624E+02  0.16617647575E+04  0.00000000000E+00 0.  1.
<mgrwt>
<rscale>  0 0.34819774E+04</rscale>
<asrwt>0</asrwt>
<pdfrwt beam="1">  1        1 0.37081016E+00 0.34819774E+04</pdfrwt>
<pdfrwt beam="2">  1       -1 0.19346997E+00 0.34819774E+04</pdfrwt>
<totfact> 0.21335158E-01</totfact>
</mgrwt>
</event>
<event>
 6    1  0.8968082E-007  0.3163125E+04  0.7818608E-02  0.8198624E-01
         -2   -1    0    0    0  501 -0.00000000000E+00  0.00000000000E+00  0.72247233860E+03  0.72247233860E+03  0.00000000000E+00 0.  1.
          2   -1    0    0  501    0  0.00000000000E+00 -0.00000000000E+00 -0.34621953281E+04  0.34621953281E+04  0.00000000000E+00 0. -1.
         23    2    1    2    0    0 -0.14209100782E+04 -0.61706269734E+03 -0.95860115299E+03  0.18241281480E+04  0.93677677615E+02 0.  0.
         11    1    3    3    0    0 -0.28420236321E+03 -0.11292810839E+03 -0.14782268675E+03  0.33966937990E+03  0.00000000000E+00 0. -1.
        -11    1    3    3    0    0 -0.11367077149E+04 -0.50413458896E+03 -0.81077846623E+03  0.14844587681E+04  0.00000000000E+00 0.  1.
         22    1    1    2    0    0  0.14209100782E+04  0.61706269734E+03 -0.17811218365E+04  0.23605395187E+04  0.00000000000E+00 0. -1.
<mgrwt>
<rscale>  0 0.31631253E+04</rscale>
<asrwt>0</asrwt>
<pdfrwt beam="1">  1        2 0.53264543E+00 0.31631253E+04</pdfrwt>
<pdfrwt beam="2">  1       -2 0.11114959E+00 0.31631253E+04</pdfrwt>
<totfact> 0.46689190E-01</totfact>
</mgrwt>
</event>
<event>
 6    1  0.8968082E-007  0.2179350E+04  0.7818608E-02  0.8527072E-01
         -2   -1    0    0    0  501 -0.00000000000E+00  0.00000000000E+00  0.15877759481E+04  0.15877759481E+04  0.00000000000E+00 0.  1.
          2   -1    0    0  501    0  0.00000000000E+00 -0.00000000000E+00 -0.74783332406E+03  0.74783332406E+03  0.00000000000E+00 0. -1.
         23    2    1    2    0    0 -0.12310614725E+03  0.10150281299E+04  0.23019990462E+02  0.10268694901E+04  0.92161823390E+02 0.  0.
         13    1    3    3    0    0 -0.10385048373E+03  0.47640916652E+03  0.57926005589E+01  0.48763118352E+03  0.00000000000E+00 0. -1.
        -13    1    3    3    0    0 -0.19255663521E+02  0.53861896338E+03  0.17227389903E+02  0.53923830656E+03  0.00000000000E+00 0.  1.
         22    1    1    2    0    0  0.12310614725E+03 -0.10150281299E+04  0.81692263360E+03  0.13087397821E+04  0.00000000000E+00 0.  1.
<mgrwt>
<rscale>  0 0.21793501E+04</rscale>
<asrwt>0</asrwt>
<pdfrwt beam="1">  1        2 0.11505128E+00 0.21793501E+04</pdfrwt>
<pdfrwt beam="2">  1       -2 0.24427322E+00 0.21793501E+04</pdfrwt>
<totfact> 0.24016126E+00</totfact>
</mgrwt>
</event>
<event>
 6    1  0.8968082E-007  0.9230559E+03  0.7818608E-02  0.9397211E-01
         -2   -1    0    0    0  501 -0.00000000000E+00  0.00000000000E+00  0.11818638529E+04  0.11818638529E+04  0.00000000000E+00 0.  1.
          2   -1    0    0  501    0  0.00000000000E+00 -0.00000000000E+00 -0.18023060614E+03  0.18023060614E+03  0.00000000000E+00 0. -1.
         23    2    1    2    0    0 -0.18516116522E+03  0.26951353505E+03  0.97699877056E+03  0.10341782196E+04  0.89865396525E+02 0.  0.
         11    1    3    3    0    0 -0.18838789834E+02  0.97819661607E+02  0.31226533107E+03  0.32777007671E+03  0.00000000000E+00 0. -1.
        -11    1    3    3    0    0 -0.16632237538E+03  0.17169387344E+03  0.66473343949E+03  0.70640814286E+03  0.00000000000E+00 0.  1.
         22    1    1    2    0    0  0.18516116522E+03 -0.26951353505E+03  0.24634476180E+02  0.32791623945E+03  0.00000000000E+00 0. -1.
<mgrwt>
<rscale>  0 0.92305588E+03</rscale>
<asrwt>0</asrwt>
<pdfrwt beam="1">  1        2 0.27727786E-01 0.92305588E+03</pdfrwt>
<pdfrwt beam="2">  1       -2 0.18182520E+00 0.92305588E+03</pdfrwt>
<totfact> 0.34408946E+01</totfact>
</mgrwt>
</event>
<event>
 6    1  0.8968082E-007  0.3758907E+04  0.7818608E-02  0.8055031E-01
          1   -1    0    0  501    0  0.00000000000E+00  0.00000000000E+00  0.20895077279E+04  0.20895077279E+04  0.00000000000E+00 0. -1.
         -1   -1    0    0    0  501 -0.00000000000E+00 -0.00000000000E+00 -0.16905158850E+04  0.16905158850E+04  0.00000000000E+00 0.  1.
         23    2    1    2    0    0  0.15763199527E+04  0.53402658512E+03  0.10750201318E+04  0.19836430201E+04  0.95928936144E+02 0.  0.
         11    1    3    3    0    0  0.80130125144E+03  0.32186332948E+03  0.56205928438E+03  0.10303350608E+04  0.00000000000E+00 0. -1.
        -11    1    3    3    0    0  0.77501870125E+03  0.21216325565E+03  0.51296084738E+03  0.95330795930E+03  0.00000000000E+00 0.  1.
         22    1    1    2    0    0 -0.15763199527E+04 -0.53402658512E+03 -0.67602828877E+03  0.17963805928E+04  0.00000000000E+00 0.  1.
<mgrwt>
<rscale>  0 0.37589073E+04</rscale>
<asrwt>0</asrwt>
<pdfrwt beam="1">  1        1 0.32146273E+00 0.37589073E+04</pdfrwt>
<pdfrwt beam="2">  1       -1 0.26007937E+00 0.37589073E+04</pdfrwt>
<totfact> 0.12396776E-01</totfact>
</mgrwt>
</event>
<event>
 6    1  0.8968082E-007  0.1360553E+04  0.7818608E-02  0.8982878E-01
         -2   -1    0    0    0  501 -0.00000000000E+00  0.00000000000E+00  0.17387301732E+04  0.17387301732E+04  0.00000000000E+00 0.  1.
          2   -1    0    0  501    0  0.00000000000E+00 -0.00000000000E+00 -0.26615767488E+03  0.26615767488E+03  0.00000000000E+00 0. -1.
         23    2    1    2    0    0  0.67615212904E+03  0.30850833323E+02  0.68811850112E+03  0.96878864951E+03  0.83131824862E+02 0.  0.
         11    1    3    3    0    0  0.10063230693E+03  0.15667913181E+02  0.14591224823E+03  0.17794023964E+03  0.00000000000E+00 0.  1.
        -11    1    3    3    0    0  0.57551982211E+03  0.15182920142E+02  0.54220625289E+03  0.79084840987E+03  0.00000000000E+00 0. -1.
         22    1    1    2    0    0 -0.67615212904E+03 -0.30850833323E+02  0.78445399716E+03  0.10360991985E+04  0.00000000000E+00 0.  1.
<mgrwt>
<rscale>  0 0.13605534E+04</rscale>
<asrwt>0</asrwt>
<pdfrwt beam="1">  1        2 0.40947336E-01 0.13605534E+04</pdfrwt>
<pdfrwt beam="2">  1       -2 0.26749694E+00 0.13605534E+04</pdfrwt>
<totfact> 0.61652293E+00</totfact>
</mgrwt>
</event>
<event>
 6    1  0.8968082E-007  0.1734776E+04  0.7818608E-02  0.8741775E-01
         -1   -1    0    0    0  501 -0.00000000000E+00  0.00000000000E+00  0.31903236591E+03  0.31903236591E+03  0.00000000000E+00 0.  1.
          1   -1    0    0  501    0  0.00000000000E+00 -0.00000000000E+00 -0.23582622348E+04  0.23582622348E+04  0.00000000000E+00 0. -1.
         23    2    1    2    0    0  0.27517783244E+03  0.68948498371E+03 -0.33910764344E+03  0.82215903594E+03  0.99192259327E+02 0.  0.
         13    1    3    3    0    0  0.21850054190E+03  0.62965232242E+03 -0.29837502185E+03  0.73022749031E+03  0.00000000000E+00 0.  1.
        -13    1    3    3    0    0  0.56677290545E+02  0.59832661286E+02 -0.40732621592E+02  0.91931545629E+02  0.00000000000E+00 0. -1.
         22    1    1    2    0    0 -0.27517783244E+03 -0.68948498371E+03 -0.17001222255E+04  0.18551355648E+04  0.00000000000E+00 0. -1.
<mgrwt>
<rscale>  0 0.17347760E+04</rscale>
<asrwt>0</asrwt>
<pdfrwt beam="1">  1        1 0.36280959E+00 0.17347760E+04</pdfrwt>
<pdfrwt beam="2">  1       -1 0.49081900E-01 0.17347760E+04</pdfrwt>
<totfact> 0.67029657E+00</totfact>
</mgrwt>
</event>
<event>
 6    1  0.8968082E-007  0.2251999E+04  0.7818608E-02  0.8497091E-01
          2   -1    0    0  501    0  0.00000000000E+00  0.00000000000E+00  0.16498430061E+04  0.16498430061E+04  0.00000000000E+00 0. -1.
         -2   -1    0    0    0  501 -0.00000000000E+00 -0.00000000000E+00 -0.76848227877E+03  0.76848227877E+03  0.00000000000E+00 0.  1.
         23    2    1    2    0    0 -0.23352302762E+03 -0.42503870759E+03 -0.64791840891E+03  0.81399190807E+03  0.87141576864E+02 0.  0.
         11    1    3    3    0    0 -0.58110871986E+02 -0.19171374323E+03 -0.24585183608E+03  0.31713429032E+03  0.00000000000E+00 0. -1.
        -11    1    3    3    0    0 -0.17541215563E+03 -0.23332496436E+03 -0.40206657283E+03  0.49685761775E+03  0.00000000000E+00 0.  1.
         22    1    1    2    0    0  0.23352302762E+03  0.42503870759E+03  0.15292791362E+04  0.16043333768E+04  0.00000000000E+00 0. -1.
<mgrwt>
<rscale>  0 0.22519992E+04</rscale>
<asrwt>0</asrwt>
<pdfrwt beam="1">  1        2 0.25382200E+00 0.22519992E+04</pdfrwt>
<pdfrwt beam="2">  1       -2 0.11822804E+00 0.22519992E+04</pdfrwt>
<totfact> 0.52455793E+00</totfact>
</mgrwt>
</event>
<event>
 6    1  0.8968082E-007  0.3005079E+04  0.7818608E-02  0.8242282E-01
          2   -1    0    0  501    0  0.00000000000E+00  0.00000000000E+00  0.19723340892E+04  0.19723340892E+04  0.00000000000E+00 0. -1.
         -2   -1    0    0    0  501 -0.00000000000E+00 -0.00000000000E+00 -0.11446462056E+04  0.11446462056E+04  0.00000000000E+00 0.  1.
         23    2    1    2    0    0  0.41462689315E+03  0.12989051455E+04 -0.23700517126E+03  0.13870550539E+04  0.93167772431E+02 0.  0.
         13    1    3    3    0    0  0.30704766295E+03  0.95908401097E+03 -0.21635339230E+03  0.10300141736E+04  0.00000000000E+00 0.  1.
        -13    1    3    3    0    0  0.10757923020E+03  0.33982113457E+03 -0.20651778955E+02  0.35704088036E+03  0.00000000000E+00 0. -1.
         22    1    1    2    0    0 -0.41462689315E+03 -0.12989051455E+04  0.10646930549E+04  0.17299252408E+04  0.00000000000E+00 0. -1.
<mgrwt>
<rscale>  0 0.30050789E+04</rscale>
<asrwt>0</asrwt>
<pdfrwt beam="1">  1        2 0.30343601E+00 0.30050789E+04</pdfrwt>
<pdfrwt beam="2">  1       -2 0.17609942E+00 0.30050789E+04</pdfrwt>
<totfact> 0.11433892E+00</totfact>
</mgrwt>
</event>
<event>
 6    1  0.8968082E-007  0.1081385E+04  0.7818608E-02  0.9223528E-01
         -1   -1    0    0    0  501 -0.00000000000E+00  0.00000000000E+00  0.11996026069E+04  0.11996026069E+04  0.00000000000E+00 0.  1.
          1   -1    0    0  501    0  0.00000000000E+00 -0.00000000000E+00 -0.24370427286E+03  0.24370427286E+03  0.00000000000E+00 0. -1.
         23    2    1    2    0    0  0.49562669100E+03 -0.20588277292E+03  0.49919120603E+03  0.73859776687E+03  0.91111294737E+02 0.  0.
         11    1    3    3    0    0  0.37528814538E+02 -0.38655361692E+02  0.74426567726E+02  0.91880155048E+02  0.00000000000E+00 0. -1.
        -11    1    3    3    0    0  0.45809787646E+03 -0.16722741123E+03  0.42476463831E+03  0.64671761182E+03  0.00000000000E+00 0.  1.
         22    1    1    2    0    0 -0.49562669100E+03  0.20588277292E+03  0.45670712802E+03  0.70470911290E+03  0.00000000000E+00 0. -1.
<mgrwt>
<rscale>  0 0.10813848E+04</rscale>
<asrwt>0</asrwt>
<pdfrwt beam="1">  1        1 0.37492966E-01 0.10813848E+04</pdfrwt>
<pdfrwt beam="2">  1       -1 0.18455424E+00 0.10813848E+04</pdfrwt>
<totfact> 0.22157134E+01</totfact>
</mgrwt>
</event>
<event>
 6    1  0.8968082E-007  0.3078279E+04  0.7818608E-02  0.8221724E-01
         -2   -1    0    0    0  501 -0.00000000000E+00  0.00000000000E+00  0.95339460706E+03  0.95339460706E+03  0.00000000000E+00 0.  1.
          2   -1    0    0  501    0  0.00000000000E+00 -0.00000000000E+00 -0.24847538315E+04  0.24847538315E+04  0.00000000000E+00 0. -1.
         23    2    1    2    0    0  0.94289287454E+03  0.12124977172E+04 -0.84781411031E+03  0.17569489828E+04  0.94251130748E+02 0.  0.
         11    1    3    3    0    0  0.69726196047E+03  0.89331851850E+03 -0.67205084417E+03  0.13175145366E+04  0.00000000000E+00 0. -1.
        -11    1    3    3    0    0  0.24563091407E+03  0.31917919867E+03 -0.17576326613E+03  0.43943444623E+03  0.00000000000E+00 0.  1.
         22    1    1    2    0    0 -0.94289287454E+03 -0.12124977172E+04 -0.68354511418E+03  0.16811994558E+04  0.00000000000E+00 0.  1.
<mgrwt>
<rscale>  0 0.30782793E+04</rscale>
<asrwt>0</asrwt>
<pdfrwt beam="1">  1        2 0.38226982E+00 0.30782793E+04</pdfrwt>
<pdfrwt beam="2">  1       -2 0.14667609E+00 0.30782793E+04</pdfrwt>
<totfact> 0.96044166E-01</totfact>
</mgrwt>
</event>
<event>
 6    1  0.8968082E-007  0.1365483E+04  0.7818608E-02  0.8979190E-01
         -1   -1    0    0    0  501 -0.00000000000E+00  0.00000000000E+00  0.37916475402E+03  0.37916475402E+03  0.00000000000E+00 0.  1.
          1   -1    0    0  501    0  0.00000000000E+00 -0.00000000000E+00 -0.12293753201E+04  0.12293753201E+04  0.00000000000E+00 0. -1.
         23    2    1    2    0    0 -0.40158293636E+03  0.47084508073E+03 -0.95357204006E+02  0.63244195249E+03  0.89027423218E+02 0.  0.
         11    1    3    3    0    0 -0.13065361239E+03  0.11803787327E+03  0.61122408674E+01  0.17618361288E+03  0.00000000000E+00 0. -1.
        -11    1    3    3    0    0 -0.27092932396E+03  0.35280720746E+03 -0.10146944487E+03  0.45625833961E+03  0.00000000000E+00 0.  1.
         22    1    1    2    0    0  0.40158293636E+03 -0.47084508073E+03 -0.75485336211E+03  0.97609812166E+03  0.00000000000E+00 0. -1.
<mgrwt>
<rscale>  0 0.13654828E+04</rscale>
<asrwt>0</asrwt>
<pdfrwt beam="1">  1        1 0.18913467E+00 0.13654828E+04</pdfrwt>
<pdfrwt beam="2">  1       -1 0.58333038E-01 0.13654828E+04</pdfrwt>
<totfact> 0.29609324E+01</totfact>
</mgrwt>
</event>
<event>
 6    1  0.8968082E-007  0.1658683E+04  0.7818608E-02  0.8785287E-01
         -1   -1    0    0    0  501 -0.00000000000E+00  0.00000000000E+00  0.87925317908E+03  0.87925317908E+03  0.00000000000E+00 0.  1.
          1   -1    0    0  501    0  0.00000000000E+00 -0.00000000000E+00 -0.78226266635E+03  0.78226266635E+03  0.00000000000E+00 0. -1.
         23    2    1    2    0    0 -0.18592944760E+03 -0.21233288940E+03  0.82686208313E+03  0.87897669327E+03  0.96146281194E+02 0.  0.
         11    1    3    3    0    0 -0.12081720128E+03 -0.19469024468E+03  0.67425140159E+03  0.71212080439E+03  0.00000000000E+00 0. -1.
        -11    1    3    3    0    0 -0.65112246320E+02 -0.17642644715E+02  0.15261068154E+03  0.16685588888E+03  0.00000000000E+00 0.  1.
         22    1    1    2    0    0  0.18592944760E+03  0.21233288940E+03 -0.72987157039E+03  0.78253915216E+03  0.00000000000E+00 0. -1.
<mgrwt>
<rscale>  0 0.16586825E+04</rscale>
<asrwt>0</asrwt>
<pdfrwt beam="1">  1        1 0.12034810E+00 0.16586825E+04</pdfrwt>
<pdfrwt beam="2">  1       -1 0.13526972E+00 0.16586825E+04</pdfrwt>
<totfact> 0.10030811E+01</totfact>
</mgrwt>
</event>
<event>
 6    1  0.8968082E-007  0.7912040E+03  0.7818608E-02  0.9572837E-01
         -1   -1    0    0    0  501 -0.00000000000E+00  0.00000000000E+00  0.15698632010E+03  0.15698632010E+03  0.00000000000E+00 0.  1.
          1   -1    0    0  501    0  0.00000000000E+00 -0.00000000000E+00 -0.99690825764E+03  0.99690825764E+03  0.00000000000E+00 0. -1.
         23    2    1    2    0    0  0.70411748256E+01 -0.38719815679E+03 -0.35489116567E+03  0.53322812914E+03  0.91719722383E+02 0.  0.
         11    1    3    3    0    0  0.26854817182E+02 -0.55356879616E+02 -0.85553111016E+02  0.10537978996E+03  0.00000000000E+00 0. -1.
        -11    1    3    3    0    0 -0.19813642357E+02 -0.33184127717E+03 -0.26933805465E+03  0.42784833918E+03  0.00000000000E+00 0.  1.
         22    1    1    2    0    0 -0.70411748256E+01  0.38719815679E+03 -0.48503077186E+03  0.62066644860E+03  0.00000000000E+00 0.  1.
<mgrwt>
<rscale>  0 0.79120404E+03</rscale>
<asrwt>0</asrwt>
<pdfrwt beam="1">  1        1 0.15337050E+00 0.79120404E+03</pdfrwt>
<pdfrwt beam="2">  1       -1 0.24151742E-01 0.79120404E+03</pdfrwt>
<totfact> 0.22839606E+02</totfact>
</mgrwt>
</event>
<event>
 6    1  0.8968082E-007  0.1934288E+04  0.7818608E-02  0.8637975E-01
         -1   -1    0    0    0  501 -0.00000000000E+00  0.00000000000E+00  0.18697907929E+04  0.18697907929E+04  0.00000000000E+00 0.  1.
          1   -1    0    0  501    0  0.00000000000E+00 -0.00000000000E+00 -0.50025266893E+03  0.50025266893E+03  0.00000000000E+00 0. -1.
         23    2    1    2    0    0  0.54174156862E+03  0.48108160136E+03 -0.94203782954E+02  0.73680624562E+03  0.95318710274E+02 0.  0.
         13    1    3    3    0    0  0.45709261739E+03  0.41822597469E+03 -0.11281888430E+03  0.62974179425E+03  0.00000000000E+00 0.  1.
        -13    1    3    3    0    0  0.84648951235E+02  0.62855626669E+02  0.18615101345E+02  0.10706445137E+03  0.00000000000E+00 0. -1.
         22    1    1    2    0    0 -0.54174156862E+03 -0.48108160136E+03  0.14637419069E+04  0.16332372162E+04  0.00000000000E+00 0.  1.
<mgrwt>
<rscale>  0 0.19342883E+04</rscale>
<asrwt>0</asrwt>
<pdfrwt beam="1">  1        1 0.76961950E-01 0.19342883E+04</pdfrwt>
<pdfrwt beam="2">  1       -1 0.28766012E+00 0.19342883E+04</pdfrwt>
<totfact> 0.16414014E+00</totfact>
</mgrwt>
</event>
<event>
 6    1  0.8968082E-007  0.4473331E+04  0.7818608E-02  0.7915322E-01
         -2   -1    0    0    0  501 -0.00000000000E+00  0.00000000000E+00  0.12606850245E+04  0.12606850245E+04  0.00000000000E+00 0.  1.
          2   -1    0    0  501    0  0.00000000000E+00 -0.00000000000E+00 -0.39682171658E+04  0.39682171658E+04  0.00000000000E+00 0. -1.
         23    2    1    2    0    0  0.41202948480E+03  0.20253001756E+04 -0.35779344511E+03  0.20995442630E+04  0.91982961918E+02 0.  0.
         13    1    3    3    0    0  0.28896701406E+03  0.15721615302E+04 -0.25227069492E+03  0.16182812845E+04  0.00000000000E+00 0. -1.
        -13    1    3    3    0    0  0.12306247074E+03  0.45313864537E+03 -0.10552275019E+03  0.48126297846E+03  0.00000000000E+00 0.  1.
         22    1    1    2    0    0 -0.41202948480E+03 -0.20253001756E+04 -0.23497386962E+04  0.31293579274E+04  0.00000000000E+00 0.  1.
<mgrwt>
<rscale>  0 0.44733307E+04</rscale>
<asrwt>0</asrwt>
<pdfrwt beam="1">  1        2 0.61049495E+00 0.44733307E+04</pdfrwt>
<pdfrwt beam="2">  1       -2 0.19395154E+00 0.44733307E+04</pdfrwt>
<totfact> 0.40030072E-02</totfact>
</mgrwt>
</event>
<event>
 6    1  0.8968082E-007  0.2003183E+04  0.7818608E-02  0.8605134E-01
         -2   -1    0    0    0  501 -0.00000000000E+00  0.00000000000E+00  0.47348634834E+03  0.47348634834E+03  0.00000000000E+00 0.  1.
          2   -1    0    0  501    0  0.00000000000E+00 -0.00000000000E+00 -0.21187210623E+04  0.21187210623E+04  0.00000000000E+00 0. -1.
         23    2    1    2    0    0 -0.58916135445E+03  0.60695455903E+03 -0.13525441919E+03  0.86144300468E+03  0.91023920447E+02 0.  0.
         13    1    3    3    0    0 -0.27711232803E+03  0.32844613812E+03 -0.33820917520E+02  0.43105911712E+03  0.00000000000E+00 0.  1.
        -13    1    3    3    0    0 -0.31204902642E+03  0.27850842092E+03 -0.10143350167E+03  0.43038388756E+03  0.00000000000E+00 0. -1.
         22    1    1    2    0    0  0.58916135445E+03 -0.60695455903E+03 -0.15099802947E+04  0.17307644059E+04  0.00000000000E+00 0. -1.
<mgrwt>
<rscale>  0 0.20031830E+04</rscale>
<asrwt>0</asrwt>
<pdfrwt beam="1">  1        2 0.32595708E+00 0.20031830E+04</pdfrwt>
<pdfrwt beam="2">  1       -2 0.72844056E-01 0.20031830E+04</pdfrwt>
<totfact> 0.90738257E+00</totfact>
</mgrwt>
</event>
<event>
 6    1  0.8968082E-007  0.2683926E+04  0.7818608E-02  0.8340239E-01
          1   -1    0    0  501    0  0.00000000000E+00  0.00000000000E+00  0.12191596109E+04  0.12191596109E+04  0.00000000000E+00 0. -1.
         -1   -1    0    0    0  501 -0.00000000000E+00 -0.00000000000E+00 -0.14771359611E+04  0.14771359611E+04  0.00000000000E+00 0.  1.
         23    2    1    2    0    0 -0.52965414724E+03 -0.48912303682E+03  0.10060239709E+04  0.12411420845E+04  0.92599044389E+02 0.  0.
         13    1    3    3    0    0 -0.19777403417E+03 -0.15398839978E+03  0.41720292936E+03  0.48670861932E+03  0.00000000000E+00 0. -1.
        -13    1    3    3    0    0 -0.33188011307E+03 -0.33513463703E+03  0.58882104150E+03  0.75443346513E+03  0.00000000000E+00 0.  1.
         22    1    1    2    0    0  0.52965414724E+03  0.48912303682E+03 -0.12640003211E+04  0.14551534876E+04  0.00000000000E+00 0.  1.
<mgrwt>
<rscale>  0 0.26839259E+04</rscale>
<asrwt>0</asrwt>
<pdfrwt beam="1">  1        1 0.18756302E+00 0.26839259E+04</pdfrwt>
<pdfrwt beam="2">  1       -1 0.22725169E+00 0.26839259E+04</pdfrwt>
<totfact> 0.89059588E-01</totfact>
</mgrwt>
</event>
<event>
 6    1  0.8968082E-007  0.2106297E+04  0.7818608E-02  0.8558474E-01
          2   -1    0    0  501    0  0.00000000000E+00  0.00000000000E+00  0.38038869826E+04  0.38038869826E+04  0.00000000000E+00 0. -1.
         -2   -1    0    0    0  501 -0.00000000000E+00 -0.00000000000E+00 -0.29157600475E+03  0.29157600475E+03  0.00000000000E+00 0.  1.
         23    2    1    2    0    0 -0.92036314115E+03  0.16886073982E+03  0.26906593048E+04  0.28501944489E+04  0.91534916765E+02 0.  0.
         13    1    3    3    0    0 -0.81840482528E+03  0.12135398983E+03  0.23933252774E+04  0.25322952301E+04  0.00000000000E+00 0.  1.
        -13    1    3    3    0    0 -0.10195831587E+03  0.47506749999E+02  0.29733402742E+03  0.31789921883E+03  0.00000000000E+00 0. -1.
         22    1    1    2    0    0  0.92036314115E+03 -0.16886073982E+03  0.82165167310E+03  0.12452685385E+04  0.00000000000E+00 0.  1.
<mgrwt>
<rscale>  0 0.21062974E+04</rscale>
<asrwt>0</asrwt>
<pdfrwt beam="1">  1        2 0.58521335E+00 0.21062974E+04</pdfrwt>
<pdfrwt beam="2">  1       -2 0.44857850E-01 0.21062974E+04</pdfrwt>
<totfact> 0.21320343E+00</totfact>
</mgrwt>
</event>
<event>
 6    1  0.8968082E-007  0.1325031E+04  0.7818608E-02  0.9009948E-01
          2   -1    0    0  501    0  0.00000000000E+00  0.00000000000E+00  0.12837165947E+04  0.12837165947E+04  0.00000000000E+00 0. -1.
         -2   -1    0    0    0  501 -0.00000000000E+00 -0.00000000000E+00 -0.34191870354E+03  0.34191870354E+03  0.00000000000E+00 0.  1.
         23    2    1    2    0    0 -0.57091138526E+03 -0.39531707158E+02  0.71146807996E+02  0.58374476929E+03  0.90518073851E+02 0.  0.
         13    1    3    3    0    0 -0.23650401856E+03 -0.22094896090E+02 -0.14911891222E+02  0.23800147001E+03  0.00000000000E+00 0.  1.
        -13    1    3    3    0    0 -0.33440736670E+03 -0.17436811068E+02  0.86058699218E+02  0.34574329928E+03  0.00000000000E+00 0. -1.
         22    1    1    2    0    0  0.57091138526E+03  0.39531707158E+02  0.87065108317E+03  0.10418905290E+04  0.00000000000E+00 0. -1.
<mgrwt>
<rscale>  0 0.13250309E+04</rscale>
<asrwt>0</asrwt>
<pdfrwt beam="1">  1        2 0.19749486E+00 0.13250309E+04</pdfrwt>
<pdfrwt beam="2">  1       -2 0.52602878E-01 0.13250309E+04</pdfrwt>
<totfact> 0.56367735E+01</totfact>
</mgrwt>
</event>
<event>
 6    1  0.8968082E-007  0.1250423E+04  0.7818608E-02  0.9069831E-01
          2   -1    0    0  501    0  0.00000000000E+00  0.00000000000E+00  0.10000590056E+04  0.10000590056E+04  0.00000000000E+00 0. -1.
         -2   -1    0    0    0  501 -0.00000000000E+00 -0.00000000000E+00 -0.39086655349E+03  0.39086655349E+03  0.00000000000E+00 0.  1.
         23    2    1    2    0    0  0.48514001472E+03 -0.12144760991E+02 -0.12678299546E+03  0.50935412776E+03  0.88653090351E+02 0.  0.
         13    1    3    3    0    0  0.19432469546E+03 -0.21722123342E+02 -0.99079368399E+01  0.19578586547E+03  0.00000000000E+00 0. -1.
        -13    1    3    3    0    0  0.29081531927E+03  0.95773623507E+01 -0.11687505862E+03  0.31356826229E+03  0.00000000000E+00 0.  1.
         22    1    1    2    0    0 -0.48514001472E+03  0.12144760991E+02  0.73597544752E+03  0.88157143128E+03  0.00000000000E+00 0. -1.
<mgrwt>
<rscale>  0 0.12504233E+04</rscale>
<asrwt>0</asrwt>
<pdfrwt beam="1">  1        2 0.15385523E+00 0.12504233E+04</pdfrwt>
<pdfrwt beam="2">  1       -2 0.60133316E-01 0.12504233E+04</pdfrwt>
<totfact> 0.63859880E+01</totfact>
</mgrwt>
</event>
<event>
 6    1  0.8968082E-007  0.6106258E+04  0.7818608E-02  0.7677365E-01
          2   -1    0    0  501    0  0.00000000000E+00  0.00000000000E+00  0.22985755889E+04  0.22985755889E+04  0.00000000000E+00 0. -1.
         -2   -1    0    0    0  501 -0.00000000000E+00 -0.00000000000E+00 -0.40553793263E+04  0.40553793263E+04  0.00000000000E+00 0.  1.
         23    2    1    2    0    0 -0.98887860445E+02  0.26227868723E+04  0.74310603546E+03  0.27292702864E+04  0.88993989053E+02 0.  0.
         11    1    3    3    0    0 -0.78263123291E+02  0.17251787541E+04  0.53047184837E+03  0.18065899457E+04  0.00000000000E+00 0. -1.
        -11    1    3    3    0    0 -0.20624737154E+02  0.89760811821E+03  0.21263418709E+03  0.92268034073E+03  0.00000000000E+00 0.  1.
         22    1    1    2    0    0  0.98887860445E+02 -0.26227868723E+04 -0.24999097728E+04  0.36246846288E+04  0.00000000000E+00 0.  1.
<mgrwt>
<rscale>  0 0.61062577E+04</rscale>
<asrwt>0</asrwt>
<pdfrwt beam="1">  1        2 0.35362702E+00 0.61062577E+04</pdfrwt>
<pdfrwt beam="2">  1       -2 0.62390451E+00 0.61062577E+04</pdfrwt>
<totfact> 0.12812148E-03</totfact>
</mgrwt>
</event>
<event>
 6    1  0.8968082E-007  0.9066983E+03  0.7818608E-02  0.9417247E-01
         -2   -1    0    0    0  501 -0.00000000000E+00  0.00000000000E+00  0.70845147669E+02  0.70845147669E+02  0.00000000000E+00 0.  1.
          2   -1    0    0  501    0  0.00000000000E+00 -0.00000000000E+00 -0.29010519216E+04  0.29010519216E+04  0.00000000000E+00 0. -1.
         23    2    1    2    0    0 -0.29540867689E+03 -0.10773397306E+03 -0.24788785903E+04  0.25004054066E+04  0.91187919441E+02 0.  0.
         11    1    3    3    0    0 -0.10977287102E+03  0.53462396040E+01 -0.79982375146E+03  0.80733927124E+03  0.00000000000E+00 0. -1.
        -11    1    3    3    0    0 -0.18563580587E+03 -0.11308021266E+03 -0.16790548389E+04  0.16930661354E+04  0.00000000000E+00 0.  1.
         22    1    1    2    0    0  0.29540867689E+03  0.10773397306E+03 -0.35132818360E+03  0.47149166262E+03  0.00000000000E+00 0.  1.
<mgrwt>
<rscale>  0 0.90669830E+03</rscale>
<asrwt>0</asrwt>
<pdfrwt beam="1">  1        2 0.44631558E+00 0.90669830E+03</pdfrwt>
<pdfrwt beam="2">  1       -2 0.10899256E-01 0.90669830E+03</pdfrwt>
<totfact> 0.12362997E+02</totfact>
</mgrwt>
</event>
<event>
 6    1  0.8968082E-007  0.2771515E+04  0.7818608E-02  0.8312167E-01
         -1   -1    0    0    0  501 -0.00000000000E+00  0.00000000000E+00  0.93220326123E+03  0.93220326123E+03  0.00000000000E+00 0.  1.
          1   -1    0    0  501    0  0.00000000000E+00 -0.00000000000E+00 -0.20599845294E+04  0.20599845294E+04  0.00000000000E+00 0. -1.
         23    2    1    2    0    0 -0.10614143487E+04 -0.54767410823E+03  0.19105381352E+03  0.12128976734E+04  0.89843519289E+02 0.  0.
         11    1    3    3    0    0 -0.25437040389E+03 -0.97422034297E+02  0.66568211400E+02  0.28040449695E+03  0.00000000000E+00 0. -1.
        -11    1    3    3    0    0 -0.80704394486E+03 -0.45025207394E+03  0.12448560212E+03  0.93249317647E+03  0.00000000000E+00 0.  1.
         22    1    1    2    0    0  0.10614143487E+04  0.54767410823E+03 -0.13188350817E+04  0.17792901172E+04  0.00000000000E+00 0. -1.
<mgrwt>
<rscale>  0 0.27715153E+04</rscale>
<asrwt>0</asrwt>
<pdfrwt beam="1">  1        1 0.31692070E+00 0.27715153E+04</pdfrwt>
<pdfrwt beam="2">  1       -1 0.14341589E+00 0.27715153E+04</pdfrwt>
<totfact> 0.92611667E-01</totfact>
</mgrwt>
</event>
<event>
 6    1  0.8968082E-007  0.2238889E+04  0.7818608E-02  0.8502414E-01
          1   -1    0    0  501    0  0.00000000000E+00  0.00000000000E+00  0.13556990804E+04  0.13556990804E+04  0.00000000000E+00 0. -1.
         -1   -1    0    0    0  501 -0.00000000000E+00 -0.00000000000E+00 -0.92436129131E+03  0.92436129131E+03  0.00000000000E+00 0.  1.
         23    2    1    2    0    0 -0.63918259933E+03 -0.24578377633E+03  0.11154106328E+04  0.13121142392E+04  0.92405827655E+02 0.  0.
         11    1    3    3    0    0 -0.74008985909E+02 -0.31589689439E+02  0.19553654346E+03  0.21144686875E+03  0.00000000000E+00 0. -1.
        -11    1    3    3    0    0 -0.56517361342E+03 -0.21419408689E+03  0.91987408929E+03  0.11006673704E+04  0.00000000000E+00 0.  1.
         22    1    1    2    0    0  0.63918259933E+03  0.24578377633E+03 -0.68407284368E+03  0.96794613252E+03  0.00000000000E+00 0.  1.
<mgrwt>
<rscale>  0 0.22388888E+04</rscale>
<asrwt>0</asrwt>
<pdfrwt beam="1">  1        1 0.20856909E+00 0.22388888E+04</pdfrwt>
<pdfrwt beam="2">  1       -1 0.14220943E+00 0.22388888E+04</pdfrwt>
<totfact> 0.30179975E+00</totfact>
</mgrwt>
</event>
<event>
 6    1  0.8968082E-007  0.2753821E+04  0.7818608E-02  0.8317750E-01
          1   -1    0    0  501    0  0.00000000000E+00  0.00000000000E+00  0.11220573679E+04  0.11220573679E+04  0.00000000000E+00 0. -1.
         -1   -1    0    0    0  501 -0.00000000000E+00 -0.00000000000E+00 -0.16896485871E+04  0.16896485871E+04  0.00000000000E+00 0.  1.
         23    2    1    2    0    0 -0.96657564051E+02  0.13697463700E+04 -0.36194243745E+03  0.14232394540E+04  0.95186199131E+02 0.  0.
         11    1    3    3    0    0  0.13800555746E+01  0.54176408505E+03 -0.11724370731E+03  0.55430705869E+03  0.00000000000E+00 0. -1.
        -11    1    3    3    0    0 -0.98037619625E+02  0.82798228499E+03 -0.24469873014E+03  0.86893239533E+03  0.00000000000E+00 0.  1.
         22    1    1    2    0    0  0.96657564051E+02 -0.13697463700E+04 -0.20564878174E+03  0.13884665010E+04  0.00000000000E+00 0. -1.
<mgrwt>
<rscale>  0 0.27538211E+04</rscale>
<asrwt>0</asrwt>
<pdfrwt beam="1">  1        1 0.17262421E+00 0.27538211E+04</pdfrwt>
<pdfrwt beam="2">  1       -1 0.25994594E+00 0.27538211E+04</pdfrwt>
<totfact> 0.63692275E-01</totfact>
</mgrwt>
</event>
<event>
 6    1  0.8968082E-007  0.1423202E+04  0.7818608E-02  0.8937193E-01
          1   -1    0    0  501    0  0.00000000000E+00  0.00000000000E+00  0.27480130116E+04  0.27480130116E+04  0.00000000000E+00 0. -1.
         -1   -1    0    0    0  501 -0.00000000000E+00 -0.00000000000E+00 -0.18426994581E+03  0.18426994581E+03  0.00000000000E+00 0.  1.
         23    2    1    2    0    0  0.40302517338E+03 -0.50620373788E+03  0.69135284931E+03  0.95124367527E+03  0.90687666641E+02 0.  0.
         11    1    3    3    0    0  0.12689270873E+03 -0.13469543609E+03  0.25528305763E+03  0.31529995171E+03  0.00000000000E+00 0. -1.
        -11    1    3    3    0    0  0.27613246464E+03 -0.37150830179E+03  0.43606979168E+03  0.63594372357E+03  0.00000000000E+00 0.  1.
         22    1    1    2    0    0 -0.40302517338E+03  0.50620373788E+03  0.18723902165E+04  0.19810392821E+04  0.00000000000E+00 0. -1.
<mgrwt>
<rscale>  0 0.14232023E+04</rscale>
<asrwt>0</asrwt>
<pdfrwt beam="1">  1        1 0.42277120E+00 0.14232023E+04</pdfrwt>
<pdfrwt beam="2">  1       -1 0.28349224E-01 0.14232023E+04</pdfrwt>
<totfact> 0.10003246E+01</totfact>
</mgrwt>
</event>
<event>
 6    1  0.8968082E-007  0.2595470E+04  0.7818608E-02  0.8369742E-01
          2   -1    0    0  501    0  0.00000000000E+00  0.00000000000E+00  0.21379690558E+04  0.21379690558E+04  0.00000000000E+00 0. -1.
         -2   -1    0    0    0  501 -0.00000000000E+00 -0.00000000000E+00 -0.78771771815E+03  0.78771771815E+03  0.00000000000E+00 0.  1.
         23    2    1    2    0    0 -0.10566140111E+04  0.42215478088E+03  0.13757196662E+04  0.17875758552E+04  0.90415765997E+02 0.  0.
         11    1    3    3    0    0 -0.65747426761E+03  0.30936671991E+03  0.87060420098E+03  0.11339893539E+04  0.00000000000E+00 0. -1.
        -11    1    3    3    0    0 -0.39913974353E+03  0.11278806097E+03  0.50511546520E+03  0.65358650136E+03  0.00000000000E+00 0.  1.
         22    1    1    2    0    0  0.10566140111E+04 -0.42215478088E+03 -0.25468328514E+02  0.11381109187E+04  0.00000000000E+00 0.  1.
<mgrwt>
<rscale>  0 0.25954700E+04</rscale>
<asrwt>0</asrwt>
<pdfrwt beam="1">  1        2 0.32891831E+00 0.25954700E+04</pdfrwt>
<pdfrwt beam="2">  1       -2 0.12118734E+00 0.25954700E+04</pdfrwt>
<totfact> 0.25652197E+00</totfact>
</mgrwt>
</event>
<event>
 6    1  0.8968082E-007  0.1907649E+04  0.7818608E-02  0.8651059E-01
         -2   -1    0    0    0  501 -0.00000000000E+00  0.00000000000E+00  0.58909863971E+03  0.58909863971E+03  0.00000000000E+00 0.  1.
          2   -1    0    0  501    0  0.00000000000E+00 -0.00000000000E+00 -0.15443606886E+04  0.15443606886E+04  0.00000000000E+00 0. -1.
         23    2    1    2    0    0  0.56630914730E+03  0.68238900650E+03 -0.86498531449E+03  0.12421060340E+04  0.90923037851E+02 0.  0.
         13    1    3    3    0    0  0.52338344768E+02  0.65027540707E+02 -0.12238968483E+03  0.14814559844E+03  0.00000000000E+00 0.  1.
        -13    1    3    3    0    0  0.51397080254E+03  0.61736146579E+03 -0.74259562965E+03  0.10939604355E+04  0.00000000000E+00 0. -1.
         22    1    1    2    0    0 -0.56630914730E+03 -0.68238900650E+03 -0.90276734373E+02  0.89135329431E+03  0.00000000000E+00 0.  1.
<mgrwt>
<rscale>  0 0.19076486E+04</rscale>
<asrwt>0</asrwt>
<pdfrwt beam="1">  1        2 0.23759395E+00 0.19076486E+04</pdfrwt>
<pdfrwt beam="2">  1       -2 0.90630561E-01 0.19076486E+04</pdfrwt>
<totfact> 0.11664186E+01</totfact>
</mgrwt>
</event>
<event>
 6    1  0.8968082E-007  0.3289057E+04  0.7818608E-02  0.8165685E-01
          1   -1    0    0  501    0  0.00000000000E+00  0.00000000000E+00  0.41596826387E+04  0.41596826387E+04  0.00000000000E+00 0. -1.
         -1   -1    0    0    0  501 -0.00000000000E+00 -0.00000000000E+00 -0.65016358536E+03  0.65016358536E+03  0.00000000000E+00 0.  1.
         23    2    1    2    0    0  0.60663721696E+03 -0.15101477197E+04  0.14237811558E+04  0.21643108481E+04  0.92378673521E+02 0.  0.
         13    1    3    3    0    0  0.23549912607E+03 -0.55330632425E+03  0.58349239987E+03  0.83789683586E+03  0.00000000000E+00 0.  1.
        -13    1    3    3    0    0  0.37113809090E+03 -0.95684139542E+03  0.84028875589E+03  0.13264140122E+04  0.00000000000E+00 0. -1.
         22    1    1    2    0    0 -0.60663721696E+03  0.15101477197E+04  0.20857378975E+04  0.26455353760E+04  0.00000000000E+00 0. -1.
<mgrwt>
<rscale>  0 0.32890571E+04</rscale>
<asrwt>0</asrwt>
<pdfrwt beam="1">  1        1 0.63995116E+00 0.32890571E+04</pdfrwt>
<pdfrwt beam="2">  1       -1 0.10002517E+00 0.32890571E+04</pdfrwt>
<totfact> 0.54399429E-02</totfact>
</mgrwt>
</event>
<event>
 6    1  0.8968082E-007  0.1030666E+04  0.7818608E-02  0.9275536E-01
          2   -1    0    0  501    0  0.00000000000E+00  0.00000000000E+00  0.15509115877E+04  0.15509115877E+04  0.00000000000E+00 0. -1.
         -2   -1    0    0    0  501 -0.00000000000E+00 -0.00000000000E+00 -0.17123344299E+03  0.17123344299E+03  0.00000000000E+00 0.  1.
         23    2    1    2    0    0  0.23352435985E+03  0.43546678722E+03  0.91529533161E+03  0.10440474370E+04  0.90025314891E+02 0.  0.
         11    1    3    3    0    0  0.74626266412E+02  0.64353166902E+02  0.18354912375E+03  0.20832832395E+03  0.00000000000E+00 0.  1.
        -11    1    3    3    0    0  0.15889809344E+03  0.37111362031E+03  0.73174620786E+03  0.83571911310E+03  0.00000000000E+00 0. -1.
         22    1    1    2    0    0 -0.23352435985E+03 -0.43546678722E+03  0.46438281315E+03  0.67809759368E+03  0.00000000000E+00 0.  1.
<mgrwt>
<rscale>  0 0.10306657E+04</rscale>
<asrwt>0</asrwt>
<pdfrwt beam="1">  1        2 0.23860177E+00 0.10306657E+04</pdfrwt>
<pdfrwt beam="2">  1       -2 0.26343608E-01 0.10306657E+04</pdfrwt>
<totfact> 0.15434700E+02</totfact>
</mgrwt>
</event>
<event>
 6    1  0.8968082E-007  0.1359861E+04  0.7818608E-02  0.8983397E-01
         -2   -1    0    0    0  501 -0.00000000000E+00  0.00000000000E+00  0.37028927866E+03  0.37028927866E+03  0.00000000000E+00 0.  1.
          2   -1    0    0  501    0  0.00000000000E+00 -0.00000000000E+00 -0.12484977335E+04  0.12484977335E+04  0.00000000000E+00 0. -1.
         23    2    1    2    0    0  0.23361104417E+03 -0.12566186300E+03  0.29890215863E+03  0.41215764897E+03  0.10082858423E+03 0.  0.
         11    1    3    3    0    0  0.18548958797E+03 -0.10916278780E+03  0.17224150794E+03  0.27566290745E+03  0.00000000000E+00 0.  1.
        -11    1    3    3    0    0  0.48121456197E+02 -0.16499075197E+02  0.12666065069E+03  0.13649474152E+03  0.00000000000E+00 0. -1.
         22    1    1    2    0    0 -0.23361104417E+03  0.12566186300E+03 -0.11771106135E+04  0.12066293632E+04  0.00000000000E+00 0. -1.
<mgrwt>
<rscale>  0 0.13598608E+04</rscale>
<asrwt>0</asrwt>
<pdfrwt beam="1">  1        2 0.19207657E+00 0.13598608E+04</pdfrwt>
<pdfrwt beam="2">  1       -2 0.56967583E-01 0.13598608E+04</pdfrwt>
<totfact> 0.49973772E+01</totfact>
</mgrwt>
</event>
<event>
 6    1  0.8968082E-007  0.3450769E+04  0.7818608E-02  0.8125557E-01
         -2   -1    0    0    0  501 -0.00000000000E+00  0.00000000000E+00  0.14975088059E+04  0.14975088059E+04  0.00000000000E+00 0.  1.
          2   -1    0    0  501    0  0.00000000000E+00 -0.00000000000E+00 -0.19879356768E+04  0.19879356768E+04  0.00000000000E+00 0. -1.
         23    2    1    2    0    0 -0.69925623693E+03 -0.11642478495E+04  0.82649634692E+03  0.15936942081E+04  0.11105258863E+03 0.  0.
         11    1    3    3    0    0 -0.27815528113E+03 -0.49286782383E+03  0.40622710312E+03  0.69664159472E+03  0.00000000000E+00 0. -1.
        -11    1    3    3    0    0 -0.42110095581E+03 -0.67138002572E+03  0.42026924380E+03  0.89705261340E+03  0.00000000000E+00 0.  1.
         22    1    1    2    0    0  0.69925623693E+03  0.11642478495E+04 -0.13169232178E+04  0.18917502746E+04  0.00000000000E+00 0. -1.
<mgrwt>
<rscale>  0 0.34507687E+04</rscale>
<asrwt>0</asrwt>
<pdfrwt beam="1">  1        2 0.30583626E+00 0.34507687E+04</pdfrwt>
<pdfrwt beam="2">  1       -2 0.23038597E+00 0.34507687E+04</pdfrwt>
<totfact> 0.47599803E-01</totfact>
</mgrwt>
</event>
<event>
 6    1  0.8968082E-007  0.5432702E+03  0.7818608E-02  0.1003064E+00
          2   -1    0    0  501    0  0.00000000000E+00  0.00000000000E+00  0.74330165832E+03  0.74330165832E+03  0.00000000000E+00 0. -1.
         -2   -1    0    0    0  501 -0.00000000000E+00 -0.00000000000E+00 -0.99267416734E+02  0.99267416734E+02  0.00000000000E+00 0.  1.
         23    2    1    2    0    0 -0.18928870558E+03 -0.11299247192E+03  0.55621624483E+03  0.60527281860E+03  0.91548681911E+02 0.  0.
         13    1    3    3    0    0 -0.69374134569E+02 -0.85885051458E+01  0.98937542066E+02  0.12114111688E+03  0.00000000000E+00 0. -1.
        -13    1    3    3    0    0 -0.11991457101E+03 -0.10440396677E+03  0.45727870276E+03  0.48413170173E+03  0.00000000000E+00 0.  1.
         22    1    1    2    0    0  0.18928870558E+03  0.11299247192E+03  0.87817996760E+02  0.23729625645E+03  0.00000000000E+00 0.  1.
<mgrwt>
<rscale>  0 0.54327023E+03</rscale>
<asrwt>0</asrwt>
<pdfrwt beam="1">  1        2 0.11435410E+00 0.54327023E+03</pdfrwt>
<pdfrwt beam="2">  1       -2 0.15271911E-01 0.54327023E+03</pdfrwt>
<totfact> 0.12937458E+03</totfact>
</mgrwt>
</event>
<event>
 6    1  0.8968082E-007  0.2250592E+04  0.7818608E-02  0.8497661E-01
          2   -1    0    0  501    0  0.00000000000E+00  0.00000000000E+00  0.10729291795E+04  0.10729291795E+04  0.00000000000E+00 0. -1.
         -2   -1    0    0    0  501 -0.00000000000E+00 -0.00000000000E+00 -0.11802191339E+04  0.11802191339E+04  0.00000000000E+00 0.  1.
         23    2    1    2    0    0 -0.16465537536E+03  0.38770067770E+03  0.98907998275E+03  0.10786483146E+04  0.88202983326E+02 0.  0.
         13    1    3    3    0    0 -0.16098582637E+03  0.30465656473E+03  0.74565134954E+03  0.82141828188E+03  0.00000000000E+00 0. -1.
        -13    1    3    3    0    0 -0.36695489915E+01  0.83044112965E+02  0.24342863321E+03  0.25723003276E+03  0.00000000000E+00 0.  1.
         22    1    1    2    0    0  0.16465537536E+03 -0.38770067770E+03 -0.10963699372E+04  0.11744999988E+04  0.00000000000E+00 0.  1.
<mgrwt>
<rscale>  0 0.22505924E+04</rscale>
<asrwt>0</asrwt>
<pdfrwt beam="1">  1        2 0.16506603E+00 0.22505924E+04</pdfrwt>
<pdfrwt beam="2">  1       -2 0.18157217E+00 0.22505924E+04</pdfrwt>
<totfact> 0.36452726E+00</totfact>
</mgrwt>
</event>
<event>
 6    1  0.8968082E-007  0.4681502E+04  0.7818608E-02  0.7879609E-01
          2   -1    0    0  501    0  0.00000000000E+00  0.00000000000E+00  0.20105879322E+04  0.20105879322E+04  0.00000000000E+00 0. -1.
         -2   -1    0    0    0  501 -0.00000000000E+00 -0.00000000000E+00 -0.27251303920E+04  0.27251303920E+04  0.00000000000E+00 0.  1.
         23    2    1    2    0    0 -0.77013948135E+03  0.10082842047E+04 -0.23461914800E+04  0.26688292649E+04  0.91012780096E+02 0.  0.
         13    1    3    3    0    0 -0.16185142669E+03  0.15885334666E+03 -0.44666748788E+03  0.50094122889E+03  0.00000000000E+00 0. -1.
        -13    1    3    3    0    0 -0.60828805466E+03  0.84943085800E+03 -0.18995239922E+04  0.21678880360E+04  0.00000000000E+00 0.  1.
         22    1    1    2    0    0  0.77013948135E+03 -0.10082842047E+04  0.16316490202E+04  0.20668890592E+04  0.00000000000E+00 0. -1.
<mgrwt>
<rscale>  0 0.46815016E+04</rscale>
<asrwt>0</asrwt>
<pdfrwt beam="1">  1        2 0.30932122E+00 0.46815016E+04</pdfrwt>
<pdfrwt beam="2">  1       -2 0.41925083E+00 0.46815016E+04</pdfrwt>
<totfact> 0.27313913E-02</totfact>
</mgrwt>
</event>
<event>
 6    1  0.8968082E-007  0.1024048E+04  0.7818608E-02  0.9282556E-01
         -2   -1    0    0    0  501 -0.00000000000E+00  0.00000000000E+00  0.19123943355E+03  0.19123943355E+03  0.00000000000E+00 0.  1.
          2   -1    0    0  501    0  0.00000000000E+00 -0.00000000000E+00 -0.13708905025E+04  0.13708905025E+04  0.00000000000E+00 0. -1.
         23    2    1    2    0    0 -0.31095467258E+03  0.32484092140E+03 -0.23570977531E+03  0.51654894996E+03  0.95127739988E+02 0.  0.
         13    1    3    3    0    0 -0.17353871186E+03  0.11471377696E+03 -0.11925939589E+03  0.23978686087E+03  0.00000000000E+00 0.  1.
        -13    1    3    3    0    0 -0.13741596072E+03  0.21012714444E+03 -0.11645037942E+03  0.27676208909E+03  0.00000000000E+00 0. -1.
         22    1    1    2    0    0  0.31095467258E+03 -0.32484092140E+03 -0.94394129365E+03  0.10455809861E+04  0.00000000000E+00 0. -1.
<mgrwt>
<rscale>  0 0.10240475E+04</rscale>
<asrwt>0</asrwt>
<pdfrwt beam="1">  1        2 0.21090624E+00 0.10240475E+04</pdfrwt>
<pdfrwt beam="2">  1       -2 0.29421451E-01 0.10240475E+04</pdfrwt>
<totfact> 0.15926522E+02</totfact>
</mgrwt>
</event>
<event>
 6    1  0.8968082E-007  0.3706542E+03  0.7818608E-02  0.1054443E+00
          1   -1    0    0  501    0  0.00000000000E+00  0.00000000000E+00  0.34525852152E+03  0.34525852152E+03  0.00000000000E+00 0. -1.
         -1   -1    0    0    0  501 -0.00000000000E+00 -0.00000000000E+00 -0.99479459863E+02  0.99479459863E+02  0.00000000000E+00 0.  1.
         23    2    1    2    0    0  0.34921179942E+02 -0.12456255251E+03 -0.96092469994E+01  0.15845402009E+03  0.90994618291E+02 0.  0.
         11    1    3    3    0    0  0.49233249668E+02 -0.21215744563E+02  0.68515849927E+00  0.53614271724E+02  0.00000000000E+00 0. -1.
        -11    1    3    3    0    0 -0.14312069726E+02 -0.10334680795E+03 -0.10294405499E+02  0.10483974836E+03  0.00000000000E+00 0.  1.
         22    1    1    2    0    0 -0.34921179942E+02  0.12456255251E+03  0.25538830866E+03  0.28628396130E+03  0.00000000000E+00 0.  1.
<mgrwt>
<rscale>  0 0.37065419E+03</rscale>
<asrwt>0</asrwt>
<pdfrwt beam="1">  1        1 0.53116695E-01 0.37065419E+03</pdfrwt>
<pdfrwt beam="2">  1       -1 0.15304532E-01 0.37065419E+03</pdfrwt>
<totfact> 0.22883586E+03</totfact>
</mgrwt>
</event>
<event>
 6    1  0.8968082E-007  0.6210125E+04  0.7818608E-02  0.7664881E-01
          2   -1    0    0  501    0  0.00000000000E+00  0.00000000000E+00  0.50613222021E+04  0.50613222021E+04  0.00000000000E+00 0. -1.
         -2   -1    0    0    0  501 -0.00000000000E+00 -0.00000000000E+00 -0.19049198212E+04  0.19049198212E+04  0.00000000000E+00 0.  1.
         23    2    1    2    0    0 -0.14070054222E+04 -0.67150548483E+03  0.45898995202E+04  0.48483426105E+04  0.93083772508E+02 0.  0.
         13    1    3    3    0    0 -0.94625298956E+03 -0.40362427125E+03  0.29970824892E+04  0.31687238314E+04  0.00000000000E+00 0.  1.
        -13    1    3    3    0    0 -0.46075243269E+03 -0.26788121357E+03  0.15928170310E+04  0.16796187791E+04  0.00000000000E+00 0. -1.
         22    1    1    2    0    0  0.14070054222E+04  0.67150548483E+03 -0.14334971393E+04  0.21178994128E+04  0.00000000000E+00 0.  1.
<mgrwt>
<rscale>  0 0.62101250E+04</rscale>
<asrwt>0</asrwt>
<pdfrwt beam="1">  1        2 0.77866495E+00 0.62101250E+04</pdfrwt>
<pdfrwt beam="2">  1       -2 0.29306459E+00 0.62101250E+04</pdfrwt>
<totfact> 0.64863271E-04</totfact>
</mgrwt>
</event>
<event>
 6    1  0.8968082E-007  0.1926916E+04  0.7818608E-02  0.8641573E-01
          1   -1    0    0  501    0  0.00000000000E+00  0.00000000000E+00  0.18195192956E+04  0.18195192956E+04  0.00000000000E+00 0. -1.
         -1   -1    0    0    0  501 -0.00000000000E+00 -0.00000000000E+00 -0.51016308221E+03  0.51016308221E+03  0.00000000000E+00 0.  1.
         23    2    1    2    0    0  0.76891634328E+03 -0.53013950027E+03  0.93143057043E+03  0.13221566837E+04  0.90857888754E+02 0.  0.
         13    1    3    3    0    0  0.62702539077E+03 -0.40327321135E+03  0.77953204072E+03  0.10786381813E+04  0.00000000000E+00 0.  1.
        -13    1    3    3    0    0  0.14189095251E+03 -0.12686628892E+03  0.15189852970E+03  0.24351850236E+03  0.00000000000E+00 0. -1.
         22    1    1    2    0    0 -0.76891634328E+03  0.53013950027E+03  0.37792564294E+03  0.10075256941E+04  0.00000000000E+00 0.  1.
<mgrwt>
<rscale>  0 0.19269163E+04</rscale>
<asrwt>0</asrwt>
<pdfrwt beam="1">  1        1 0.27992604E+00 0.19269163E+04</pdfrwt>
<pdfrwt beam="2">  1       -1 0.78486629E-01 0.19269163E+04</pdfrwt>
<totfact> 0.59917833E+00</totfact>
</mgrwt>
</event>
<event>
 6    1  0.8968082E-007  0.1233260E+04  0.7818608E-02  0.9084232E-01
          1   -1    0    0  501    0  0.00000000000E+00  0.00000000000E+00  0.17970142436E+04  0.17970142436E+04  0.00000000000E+00 0. -1.
         -1   -1    0    0    0  501 -0.00000000000E+00 -0.00000000000E+00 -0.21159135014E+03  0.21159135014E+03  0.00000000000E+00 0.  1.
         23    2    1    2    0    0  0.44668320890E+03 -0.40792885774E+03  0.63229299830E+03  0.87971745085E+03  0.90424087157E+02 0.  0.
         11    1    3    3    0    0  0.24428028851E+03 -0.21584524168E+03  0.40452370567E+03  0.51952040976E+03  0.00000000000E+00 0. -1.
        -11    1    3    3    0    0  0.20240292040E+03 -0.19208361607E+03  0.22776929263E+03  0.36019704109E+03  0.00000000000E+00 0.  1.
         22    1    1    2    0    0 -0.44668320890E+03  0.40792885774E+03  0.95312989516E+03  0.11288881429E+04  0.00000000000E+00 0.  1.
<mgrwt>
<rscale>  0 0.12332602E+04</rscale>
<asrwt>0</asrwt>
<pdfrwt beam="1">  1        1 0.27646372E+00 0.12332602E+04</pdfrwt>
<pdfrwt beam="2">  1       -1 0.32552517E-01 0.12332602E+04</pdfrwt>
<totfact> 0.35718303E+01</totfact>
</mgrwt>
</event>
<event>
 6    1  0.9310396E-007  0.4636455E+04  0.7818608E-02  0.7887174E-01
         -2   -1    0    0    0  501 -0.00000000000E+00  0.00000000000E+00  0.22410138158E+04  0.22410138158E+04  0.00000000000E+00 0.  1.
          2   -1    0    0  501    0  0.00000000000E+00 -0.00000000000E+00 -0.23981014758E+04  0.23981014758E+04  0.00000000000E+00 0. -1.
         23    2    1    2    0    0 -0.51889133605E+03 -0.86343005082E+03 -0.21666808205E+04  0.23911774940E+04  0.92001950549E+02 0.  0.
         13    1    3    3    0    0 -0.23202426167E+03 -0.38176742341E+03 -0.85396921142E+03  0.96376606997E+03  0.00000000000E+00 0.  1.
        -13    1    3    3    0    0 -0.28686707438E+03 -0.48166262742E+03 -0.13127116091E+04  0.14274114241E+04  0.00000000000E+00 0. -1.
         22    1    1    2    0    0  0.51889133605E+03  0.86343005082E+03  0.20095931605E+04  0.22479377976E+04  0.00000000000E+00 0.  1.
<mgrwt>
<rscale>  0 0.46364549E+04</rscale>
<asrwt>0</asrwt>
<pdfrwt beam="1">  1        2 0.36893869E+00 0.46364549E+04</pdfrwt>
<pdfrwt beam="2">  1       -2 0.34477136E+00 0.46364549E+04</pdfrwt>
<totfact> 0.50128808E-02</totfact>
</mgrwt>
</event>
<event>
 6    1  0.8968082E-007  0.1427246E+04  0.7818608E-02  0.8934329E-01
          2   -1    0    0  501    0  0.00000000000E+00  0.00000000000E+00  0.10506685452E+04  0.10506685452E+04  0.00000000000E+00 0. -1.
         -2   -1    0    0    0  501 -0.00000000000E+00 -0.00000000000E+00 -0.48469882462E+03  0.48469882462E+03  0.00000000000E+00 0.  1.
         23    2    1    2    0    0  0.15367767159E+03  0.48988791582E+03 -0.24441174449E+03  0.57603160184E+03  0.92023413651E+02 0.  0.
         13    1    3    3    0    0  0.88832197522E+02  0.37444099829E+03 -0.21337957516E+03  0.44003188931E+03  0.00000000000E+00 0. -1.
        -13    1    3    3    0    0  0.64845474065E+02  0.11544691753E+03 -0.31032169338E+02  0.13599971253E+03  0.00000000000E+00 0.  1.
         22    1    1    2    0    0 -0.15367767159E+03 -0.48988791582E+03  0.81038146506E+03  0.95933576798E+03  0.00000000000E+00 0. -1.
<mgrwt>
<rscale>  0 0.14272460E+04</rscale>
<asrwt>0</asrwt>
<pdfrwt beam="1">  1        2 0.16164131E+00 0.14272460E+04</pdfrwt>
<pdfrwt beam="2">  1       -2 0.74569050E-01 0.14272460E+04</pdfrwt>
<totfact> 0.36748631E+01</totfact>
</mgrwt>
</event>
<event>
 6    1  0.8968082E-007  0.2629065E+04  0.7818608E-02  0.8358395E-01
          1   -1    0    0  501    0  0.00000000000E+00  0.00000000000E+00  0.22615366370E+04  0.22615366370E+04  0.00000000000E+00 0. -1.
         -1   -1    0    0    0  501 -0.00000000000E+00 -0.00000000000E+00 -0.76408041192E+03  0.76408041192E+03  0.00000000000E+00 0.  1.
         23    2    1    2    0    0  0.11448958793E+03 -0.93907767359E+03 -0.29814417906E+03  0.99604676086E+03  0.90798984194E+02 0.  0.
         11    1    3    3    0    0  0.11848434917E+03 -0.64732878386E+03 -0.22168768836E+03  0.69441956091E+03  0.00000000000E+00 0.  1.
        -11    1    3    3    0    0 -0.39947612320E+01 -0.29174888973E+03 -0.76456490697E+02  0.30162719995E+03  0.00000000000E+00 0. -1.
         22    1    1    2    0    0 -0.11448958793E+03  0.93907767359E+03  0.17956004041E+04  0.20295702880E+04  0.00000000000E+00 0. -1.
<mgrwt>
<rscale>  0 0.26290651E+04</rscale>
<asrwt>0</asrwt>
<pdfrwt beam="1">  1        1 0.34792871E+00 0.26290651E+04</pdfrwt>
<pdfrwt beam="2">  1       -1 0.11755083E+00 0.26290651E+04</pdfrwt>
<totfact> 0.11306925E+00</totfact>
</mgrwt>
</event>
<event>
 6    1  0.8968082E-007  0.3818771E+04  0.7818608E-02  0.8042139E-01
         -1   -1    0    0    0  501 -0.00000000000E+00  0.00000000000E+00  0.21755088520E+04  0.21755088520E+04  0.00000000000E+00 0.  1.
          1   -1    0    0  501    0  0.00000000000E+00 -0.00000000000E+00 -0.16758162642E+04  0.16758162642E+04  0.00000000000E+00 0. -1.
         23    2    1    2    0    0  0.14313098320E+04  0.60993016923E+03 -0.86435078692E+03  0.17822004282E+04  0.92051271924E+02 0.  0.
         13    1    3    3    0    0  0.60917851697E+03  0.27460489725E+03 -0.32170520443E+03  0.74162022201E+03  0.00000000000E+00 0.  1.
        -13    1    3    3    0    0  0.82213131506E+03  0.33532527198E+03 -0.54264558250E+03  0.10405802062E+04  0.00000000000E+00 0. -1.
         22    1    1    2    0    0 -0.14313098320E+04 -0.60993016923E+03  0.13640433748E+04  0.20691246881E+04  0.00000000000E+00 0.  1.
<mgrwt>
<rscale>  0 0.38187711E+04</rscale>
<asrwt>0</asrwt>
<pdfrwt beam="1">  1        1 0.25781789E+00 0.38187711E+04</pdfrwt>
<pdfrwt beam="2">  1       -1 0.33469367E+00 0.38187711E+04</pdfrwt>
<totfact> 0.77101871E-02</totfact>
</mgrwt>
</event>
<event>
 6    1  0.8968082E-007  0.1539543E+04  0.7818608E-02  0.8858575E-01
         -2   -1    0    0    0  501 -0.00000000000E+00  0.00000000000E+00  0.41559376320E+03  0.41559376320E+03  0.00000000000E+00 0.  1.
          2   -1    0    0  501    0  0.00000000000E+00 -0.00000000000E+00 -0.14257872340E+04  0.14257872340E+04  0.00000000000E+00 0. -1.
         23    2    1    2    0    0 -0.87197624983E+02  0.75977158166E+03 -0.43564770347E+03  0.88484604184E+03  0.91144468418E+02 0.  0.
         13    1    3    3    0    0 -0.29811070010E+02  0.41493151444E+03 -0.28453494628E+03  0.50400098931E+03  0.00000000000E+00 0. -1.
        -13    1    3    3    0    0 -0.57386554973E+02  0.34484006722E+03 -0.15111275719E+03  0.38084505253E+03  0.00000000000E+00 0.  1.
         22    1    1    2    0    0  0.87197624983E+02 -0.75977158166E+03 -0.57454576738E+03  0.95653495540E+03  0.00000000000E+00 0. -1.
<mgrwt>
<rscale>  0 0.15395432E+04</rscale>
<asrwt>0</asrwt>
<pdfrwt beam="1">  1        2 0.21935189E+00 0.15395432E+04</pdfrwt>
<pdfrwt beam="2">  1       -2 0.63937501E-01 0.15395432E+04</pdfrwt>
<totfact> 0.30474933E+01</totfact>
</mgrwt>
</event>
<event>
 6    1  0.8968082E-007  0.3907822E+04  0.7818608E-02  0.8023404E-01
          2   -1    0    0  501    0  0.00000000000E+00  0.00000000000E+00  0.16422262824E+04  0.16422262824E+04  0.00000000000E+00 0. -1.
         -2   -1    0    0    0  501 -0.00000000000E+00 -0.00000000000E+00 -0.23247516063E+04  0.23247516063E+04  0.00000000000E+00 0.  1.
         23    2    1    2    0    0 -0.11600654866E+04 -0.94668431883E+03  0.93117295464E+03  0.17656180211E+04  0.91437366637E+02 0.  0.
         11    1    3    3    0    0 -0.36431067271E+03 -0.27920592729E+03  0.23917734824E+03  0.51757513464E+03  0.00000000000E+00 0.  1.
        -11    1    3    3    0    0 -0.79575481393E+03 -0.66747839154E+03  0.69199560640E+03  0.12480428864E+04  0.00000000000E+00 0. -1.
         22    1    1    2    0    0  0.11600654866E+04  0.94668431883E+03 -0.16136982785E+04  0.22013598677E+04  0.00000000000E+00 0.  1.
<mgrwt>
<rscale>  0 0.39078220E+04</rscale>
<asrwt>0</asrwt>
<pdfrwt beam="1">  1        2 0.25265020E+00 0.39078220E+04</pdfrwt>
<pdfrwt beam="2">  1       -2 0.35765409E+00 0.39078220E+04</pdfrwt>
<totfact> 0.11678046E-01</totfact>
</mgrwt>
</event>
<event>
 6    1  0.8968082E-007  0.1326784E+04  0.7818608E-02  0.9008591E-01
         -2   -1    0    0    0  501 -0.00000000000E+00  0.00000000000E+00  0.78879752121E+03  0.78879752121E+03  0.00000000000E+00 0.  1.
          2   -1    0    0  501    0  0.00000000000E+00 -0.00000000000E+00 -0.55792358060E+03  0.55792358060E+03  0.00000000000E+00 0. -1.
         23    2    1    2    0    0  0.65148309725E+03 -0.92645007638E+02  0.40028946801E+02  0.66156773569E+03  0.55283170043E+02 0.  0.
         11    1    3    3    0    0  0.34841309375E+03 -0.63760760453E+02  0.45261725707E+02  0.35707946214E+03  0.00000000000E+00 0. -1.
        -11    1    3    3    0    0  0.30307000350E+03 -0.28884247186E+02 -0.52327789058E+01  0.30448827355E+03  0.00000000000E+00 0.  1.
         22    1    1    2    0    0 -0.65148309725E+03  0.92645007638E+02  0.19084499381E+03  0.68515336612E+03  0.00000000000E+00 0. -1.
<mgrwt>
<rscale>  0 0.13267837E+04</rscale>
<asrwt>0</asrwt>
<pdfrwt beam="1">  1        2 0.85834397E-01 0.13267837E+04</pdfrwt>
<pdfrwt beam="2">  1       -2 0.12135347E+00 0.13267837E+04</pdfrwt>
<totfact> 0.27335370E+01</totfact>
</mgrwt>
</event>
<event>
 6    1  0.8968082E-007  0.8515978E+03  0.7818608E-02  0.9488195E-01
         -2   -1    0    0    0  501 -0.00000000000E+00  0.00000000000E+00  0.24761906541E+03  0.24761906541E+03  0.00000000000E+00 0.  1.
          2   -1    0    0  501    0  0.00000000000E+00 -0.00000000000E+00 -0.73219202658E+03  0.73219202658E+03  0.00000000000E+00 0. -1.
         23    2    1    2    0    0 -0.34237858921E+03 -0.16538514413E+03 -0.35717016395E+02  0.39155349245E+03  0.86389165651E+02 0.  0.
         13    1    3    3    0    0 -0.18912518189E+03 -0.66727830143E+02  0.18484890242E+02  0.20140166064E+03  0.00000000000E+00 0. -1.
        -13    1    3    3    0    0 -0.15325340731E+03 -0.98657313991E+02 -0.54201906636E+02  0.19015183181E+03  0.00000000000E+00 0.  1.
         22    1    1    2    0    0  0.34237858921E+03  0.16538514413E+03 -0.44885594478E+03  0.58825759953E+03  0.00000000000E+00 0.  1.
<mgrwt>
<rscale>  0 0.85159780E+03</rscale>
<asrwt>0</asrwt>
<pdfrwt beam="1">  1        2 0.11264493E+00 0.85159780E+03</pdfrwt>
<pdfrwt beam="2">  1       -2 0.38095241E-01 0.85159780E+03</pdfrwt>
<totfact> 0.25264204E+02</totfact>
</mgrwt>
</event>
<event>
 6    1  0.8968082E-007  0.2184580E+04  0.7818608E-02  0.8524874E-01
          2   -1    0    0  501    0  0.00000000000E+00  0.00000000000E+00  0.17971037682E+04  0.17971037682E+04  0.00000000000E+00 0. -1.
         -2   -1    0    0    0  501 -0.00000000000E+00 -0.00000000000E+00 -0.66389987905E+03  0.66389987905E+03  0.00000000000E+00 0.  1.
         23    2    1    2    0    0 -0.39904254795E+03  0.25543900742E+03  0.16737861055E+04  0.17421760086E+04  0.95568176293E+02 0.  0.
         11    1    3    3    0    0 -0.24935200076E+03  0.15544831895E+03  0.86319515702E+03  0.91183687096E+03  0.00000000000E+00 0.  1.
        -11    1    3    3    0    0 -0.14969054720E+03  0.99990688470E+02  0.81059094849E+03  0.83033913762E+03  0.00000000000E+00 0. -1.
         22    1    1    2    0    0  0.39904254795E+03 -0.25543900742E+03 -0.54058221631E+03  0.71882763871E+03  0.00000000000E+00 0.  1.
<mgrwt>
<rscale>  0 0.21845796E+04</rscale>
<asrwt>0</asrwt>
<pdfrwt beam="1">  1        2 0.27647750E+00 0.21845796E+04</pdfrwt>
<pdfrwt beam="2">  1       -2 0.10213844E+00 0.21845796E+04</pdfrwt>
<totfact> 0.62254084E+00</totfact>
</mgrwt>
</event>
<event>
 6    1  0.8968082E-007  0.2098543E+04  0.7818608E-02  0.8561885E-01
          1   -1    0    0  501    0  0.00000000000E+00  0.00000000000E+00  0.14468191795E+04  0.14468191795E+04  0.00000000000E+00 0. -1.
         -1   -1    0    0    0  501 -0.00000000000E+00 -0.00000000000E+00 -0.76095957464E+03  0.76095957464E+03  0.00000000000E+00 0.  1.
         23    2    1    2    0    0  0.12630876668E+03 -0.12148515830E+03  0.14297760299E+04  0.14434985727E+04  0.93359978436E+02 0.  0.
         11    1    3    3    0    0  0.90253501879E+02 -0.47904248557E+02  0.51358646827E+03  0.52365214792E+03  0.00000000000E+00 0.  1.
        -11    1    3    3    0    0  0.36055264797E+02 -0.73580909740E+02  0.91618956160E+03  0.91984642478E+03  0.00000000000E+00 0. -1.
         22    1    1    2    0    0 -0.12630876668E+03  0.12148515830E+03 -0.74391642504E+03  0.76428018140E+03  0.00000000000E+00 0.  1.
<mgrwt>
<rscale>  0 0.20985432E+04</rscale>
<asrwt>0</asrwt>
<pdfrwt beam="1">  1        1 0.22258757E+00 0.20985432E+04</pdfrwt>
<pdfrwt beam="2">  1       -1 0.11707070E+00 0.20985432E+04</pdfrwt>
<totfact> 0.43082973E+00</totfact>
</mgrwt>
</event>
<event>
 6    1  0.8968082E-007  0.2112935E+04  0.7818608E-02  0.8555567E-01
         -1   -1    0    0    0  501 -0.00000000000E+00  0.00000000000E+00  0.43449154550E+03  0.43449154550E+03  0.00000000000E+00 0.  1.
          1   -1    0    0  501    0  0.00000000000E+00 -0.00000000000E+00 -0.25688027975E+04  0.25688027975E+04  0.00000000000E+00 0. -1.
         23    2    1    2    0    0  0.80475187320E+03  0.36152313833E+03 -0.18900832254E+04  0.20878862996E+04  0.92358236586E+02 0.  0.
         11    1    3    3    0    0  0.41282475868E+03  0.21172909310E+03 -0.10848823549E+04  0.11799250883E+04  0.00000000000E+00 0.  1.
        -11    1    3    3    0    0  0.39192711453E+03  0.14979404523E+03 -0.80520087059E+03  0.90796121123E+03  0.00000000000E+00 0. -1.
         22    1    1    2    0    0 -0.80475187320E+03 -0.36152313833E+03 -0.24422802652E+03  0.91540804339E+03  0.00000000000E+00 0.  1.
<mgrwt>
<rscale>  0 0.21129345E+04</rscale>
<asrwt>0</asrwt>
<pdfrwt beam="1">  1        1 0.39520043E+00 0.21129345E+04</pdfrwt>
<pdfrwt beam="2">  1       -1 0.66844853E-01 0.21129345E+04</pdfrwt>
<totfact> 0.25279085E+00</totfact>
</mgrwt>
</event>
<event>
 6    1  0.8968082E-007  0.2331013E+04  0.7818608E-02  0.8465793E-01
          1   -1    0    0  501    0  0.00000000000E+00  0.00000000000E+00  0.17111800748E+04  0.17111800748E+04  0.00000000000E+00 0. -1.
         -1   -1    0    0    0  501 -0.00000000000E+00 -0.00000000000E+00 -0.79384110849E+03  0.79384110849E+03  0.00000000000E+00 0.  1.
         23    2    1    2    0    0 -0.80866137841E+03 -0.82986844932E+03  0.57693135249E+03  0.12973406744E+04  0.87339406003E+02 0.  0.
         13    1    3    3    0    0 -0.69825229687E+03 -0.67626902261E+03  0.46514918326E+03  0.10776176612E+04  0.00000000000E+00 0. -1.
        -13    1    3    3    0    0 -0.11040908154E+03 -0.15359942671E+03  0.11178216923E+03  0.21972301320E+03  0.00000000000E+00 0.  1.
         22    1    1    2    0    0  0.80866137841E+03  0.82986844932E+03  0.34040761386E+03  0.12076805089E+04  0.00000000000E+00 0.  1.
<mgrwt>
<rscale>  0 0.23310127E+04</rscale>
<asrwt>0</asrwt>
<pdfrwt beam="1">  1        1 0.26325847E+00 0.23310127E+04</pdfrwt>
<pdfrwt beam="2">  1       -1 0.12212940E+00 0.23310127E+04</pdfrwt>
<totfact> 0.25025479E+00</totfact>
</mgrwt>
</event>
<event>
 6    1  0.8968082E-007  0.3434988E+04  0.7818608E-02  0.8129372E-01
         -2   -1    0    0    0  501 -0.00000000000E+00  0.00000000000E+00  0.76299719524E+03  0.76299719524E+03  0.00000000000E+00 0.  1.
          2   -1    0    0  501    0  0.00000000000E+00 -0.00000000000E+00 -0.38660505743E+04  0.38660505743E+04  0.00000000000E+00 0. -1.
         23    2    1    2    0    0 -0.10724410697E+04 -0.51790437203E+03  0.11278402175E+03  0.11997672364E+04  0.91468023396E+02 0.  0.
         11    1    3    3    0    0 -0.52034286171E+03 -0.20656000299E+03  0.31322213081E+02  0.56071811956E+03  0.00000000000E+00 0. -1.
        -11    1    3    3    0    0 -0.55209820802E+03 -0.31134436905E+03  0.81461808672E+02  0.63904911682E+03  0.00000000000E+00 0.  1.
         22    1    1    2    0    0  0.10724410697E+04  0.51790437203E+03 -0.32158374008E+04  0.34292805331E+04  0.00000000000E+00 0. -1.
<mgrwt>
<rscale>  0 0.34349881E+04</rscale>
<asrwt>0</asrwt>
<pdfrwt beam="1">  1        2 0.59477699E+00 0.34349881E+04</pdfrwt>
<pdfrwt beam="2">  1       -2 0.11738419E+00 0.34349881E+04</pdfrwt>
<totfact> 0.20195017E-01</totfact>
</mgrwt>
</event>
<event>
 6    1  0.8968082E-007  0.6416552E+03  0.7818608E-02  0.9822565E-01
         -2   -1    0    0    0  501 -0.00000000000E+00  0.00000000000E+00  0.37178277739E+02  0.37178277739E+02  0.00000000000E+00 0.  1.
          2   -1    0    0  501    0  0.00000000000E+00 -0.00000000000E+00 -0.27685611246E+04  0.27685611246E+04  0.00000000000E+00 0. -1.
         23    2    1    2    0    0  0.61225913943E+01  0.31081577905E+03 -0.14925845372E+04  0.15285294796E+04  0.10931529989E+03 0.  0.
         13    1    3    3    0    0  0.52287259045E+02  0.11580514906E+03 -0.49780340402E+03  0.51376358285E+03  0.00000000000E+00 0.  1.
        -13    1    3    3    0    0 -0.46164667651E+02  0.19501062999E+03 -0.99478113316E+03  0.10147658968E+04  0.00000000000E+00 0. -1.
         22    1    1    2    0    0 -0.61225913943E+01 -0.31081577905E+03 -0.12387983096E+04  0.12772099227E+04  0.00000000000E+00 0.  1.
<mgrwt>
<rscale>  0 0.64165515E+03</rscale>
<asrwt>0</asrwt>
<pdfrwt beam="1">  1        2 0.42593247E+00 0.64165515E+03</pdfrwt>
<pdfrwt beam="2">  1       -2 0.57197352E-02 0.64165515E+03</pdfrwt>
<totfact> 0.42784544E+02</totfact>
</mgrwt>
</event>
<event>
 6    1  0.8968082E-007  0.3113916E+04  0.7818608E-02  0.8211929E-01
         -1   -1    0    0    0  501 -0.00000000000E+00  0.00000000000E+00  0.17504530722E+04  0.17504530722E+04  0.00000000000E+00 0.  1.
          1   -1    0    0  501    0  0.00000000000E+00 -0.00000000000E+00 -0.13848520882E+04  0.13848520882E+04  0.00000000000E+00 0. -1.
         23    2    1    2    0    0 -0.53622792870E+03  0.14583746706E+04  0.11024089129E+03  0.15606287339E+04  0.94931130435E+02 0.  0.
         11    1    3    3    0    0 -0.95435856222E+02  0.36783356791E+03  0.10601978744E+02  0.38016041126E+03  0.00000000000E+00 0. -1.
        -11    1    3    3    0    0 -0.44079207248E+03  0.10905411027E+04  0.99638912549E+02  0.11804683227E+04  0.00000000000E+00 0.  1.
         22    1    1    2    0    0  0.53622792870E+03 -0.14583746706E+04  0.25536009270E+03  0.15746764266E+04  0.00000000000E+00 0.  1.
<mgrwt>
<rscale>  0 0.31139162E+04</rscale>
<asrwt>0</asrwt>
<pdfrwt beam="1">  1        1 0.21305417E+00 0.31139162E+04</pdfrwt>
<pdfrwt beam="2">  1       -1 0.26930047E+00 0.31139162E+04</pdfrwt>
<totfact> 0.34647141E-01</totfact>
</mgrwt>
</event>
<event>
 6    1  0.8968082E-007  0.4520195E+04  0.7818608E-02  0.7907111E-01
         -2   -1    0    0    0  501 -0.00000000000E+00  0.00000000000E+00  0.20272086249E+04  0.20272086249E+04  0.00000000000E+00 0.  1.
          2   -1    0    0  501    0  0.00000000000E+00 -0.00000000000E+00 -0.25197413703E+04  0.25197413703E+04  0.00000000000E+00 0. -1.
         23    2    1    2    0    0  0.21475170751E+04 -0.11380002730E+03 -0.94265059190E+03  0.23498186587E+04  0.90981077012E+02 0.  0.
         11    1    3    3    0    0  0.11574162870E+04 -0.54698673255E+02 -0.45884640551E+03  0.12462521535E+04  0.00000000000E+00 0. -1.
        -11    1    3    3    0    0  0.99010078804E+03 -0.59101354045E+02 -0.48380418639E+03  0.11035665052E+04  0.00000000000E+00 0.  1.
         22    1    1    2    0    0 -0.21475170751E+04  0.11380002730E+03  0.45011784648E+03  0.21971313365E+04  0.00000000000E+00 0.  1.
<mgrwt>
<rscale>  0 0.45201953E+04</rscale>
<asrwt>0</asrwt>
<pdfrwt beam="1">  1        2 0.38765252E+00 0.45201953E+04</pdfrwt>
<pdfrwt beam="2">  1       -2 0.31187825E+00 0.45201953E+04</pdfrwt>
<totfact> 0.68916502E-02</totfact>
</mgrwt>
</event>
<event>
 6    1  0.8968082E-007  0.2890586E+04  0.7818608E-02  0.8275684E-01
         -1   -1    0    0    0  501 -0.00000000000E+00  0.00000000000E+00  0.20679245870E+04  0.20679245870E+04  0.00000000000E+00 0.  1.
          1   -1    0    0  501    0  0.00000000000E+00 -0.00000000000E+00 -0.10101298742E+04  0.10101298742E+04  0.00000000000E+00 0. -1.
         23    2    1    2    0    0 -0.99612703291E+02 -0.11044215485E+04 -0.45522023790E+03  0.12021856256E+04  0.91406597050E+02 0.  0.
         13    1    3    3    0    0 -0.96225534470E+00 -0.22053795726E+03 -0.57354314628E+02  0.22787591785E+03  0.00000000000E+00 0.  1.
        -13    1    3    3    0    0 -0.98650447946E+02 -0.88388359122E+03 -0.39786592327E+03  0.97430970775E+03  0.00000000000E+00 0. -1.
         22    1    1    2    0    0  0.99612703291E+02  0.11044215485E+04  0.15130149507E+04  0.18758688356E+04  0.00000000000E+00 0.  1.
<mgrwt>
<rscale>  0 0.28905864E+04</rscale>
<asrwt>0</asrwt>
<pdfrwt beam="1">  1        1 0.15540460E+00 0.28905864E+04</pdfrwt>
<pdfrwt beam="2">  1       -1 0.31814224E+00 0.28905864E+04</pdfrwt>
<totfact> 0.32119577E-01</totfact>
</mgrwt>
</event>
<event>
 6    1  0.8968082E-007  0.1757998E+04  0.7818608E-02  0.8728960E-01
         -1   -1    0    0    0  501 -0.00000000000E+00  0.00000000000E+00  0.58022979334E+03  0.58022979334E+03  0.00000000000E+00 0.  1.
          1   -1    0    0  501    0  0.00000000000E+00 -0.00000000000E+00 -0.13316097262E+04  0.13316097262E+04  0.00000000000E+00 0. -1.
         23    2    1    2    0    0  0.55741461174E+03 -0.47593640834E+03 -0.89942592773E+03  0.11640801126E+04  0.94281465987E+02 0.  0.
         11    1    3    3    0    0  0.19818493586E+03 -0.19626889544E+03 -0.40751600015E+03  0.49382996922E+03  0.00000000000E+00 0. -1.
        -11    1    3    3    0    0  0.35922967588E+03 -0.27966751290E+03 -0.49190992759E+03  0.67025014335E+03  0.00000000000E+00 0.  1.
         22    1    1    2    0    0 -0.55741461174E+03  0.47593640834E+03  0.14804599484E+03  0.74775940700E+03  0.00000000000E+00 0.  1.
<mgrwt>
<rscale>  0 0.17579984E+04</rscale>
<asrwt>0</asrwt>
<pdfrwt beam="1">  1        1 0.20486304E+00 0.17579984E+04</pdfrwt>
<pdfrwt beam="2">  1       -1 0.89266122E-01 0.17579984E+04</pdfrwt>
<totfact> 0.10003118E+01</totfact>
</mgrwt>
</event>
<event>
 6    1  0.8968082E-007  0.1793460E+04  0.7818608E-02  0.8709785E-01
          2   -1    0    0  501    0  0.00000000000E+00  0.00000000000E+00  0.25780207063E+04  0.25780207063E+04  0.00000000000E+00 0. -1.
         -2   -1    0    0    0  501 -0.00000000000E+00 -0.00000000000E+00 -0.31191549454E+03  0.31191549454E+03  0.00000000000E+00 0.  1.
         23    2    1    2    0    0 -0.21627333200E+03 -0.38523675825E+03  0.23891011505E+04  0.24313410472E+04  0.91833906323E+02 0.  0.
         13    1    3    3    0    0 -0.40648306901E+02 -0.10901012606E+03  0.44943086725E+03  0.46424519047E+03  0.00000000000E+00 0. -1.
        -13    1    3    3    0    0 -0.17562502510E+03 -0.27622663219E+03  0.19396702832E+04  0.19670958567E+04  0.00000000000E+00 0.  1.
         22    1    1    2    0    0  0.21627333200E+03  0.38523675825E+03 -0.12299593872E+03  0.45859515368E+03  0.00000000000E+00 0.  1.
<mgrwt>
<rscale>  0 0.17934599E+04</rscale>
<asrwt>0</asrwt>
<pdfrwt beam="1">  1        2 0.39661856E+00 0.17934599E+04</pdfrwt>
<pdfrwt beam="2">  1       -2 0.47987001E-01 0.17934599E+04</pdfrwt>
<totfact> 0.12201904E+01</totfact>
</mgrwt>
</event>
<event>
 6    1  0.8968082E-007  0.2450596E+04  0.7818608E-02  0.8420800E-01
         -2   -1    0    0    0  501 -0.00000000000E+00  0.00000000000E+00  0.58666815384E+03  0.58666815384E+03  0.00000000000E+00 0.  1.
          2   -1    0    0  501    0  0.00000000000E+00 -0.00000000000E+00 -0.25591224204E+04  0.25591224204E+04  0.00000000000E+00 0. -1.
         23    2    1    2    0    0 -0.20727305803E+03 -0.79275202538E+03  0.17884950513E+03  0.84372067686E+03  0.91975761676E+02 0.  0.
         13    1    3    3    0    0 -0.12745981740E+03 -0.37626955176E+03  0.12372266286E+03  0.41609142978E+03  0.00000000000E+00 0. -1.
        -13    1    3    3    0    0 -0.79813240634E+02 -0.41648247362E+03  0.55126842277E+02  0.42762924708E+03  0.00000000000E+00 0.  1.
         22    1    1    2    0    0  0.20727305803E+03  0.79275202538E+03 -0.21513037717E+04  0.23020698974E+04  0.00000000000E+00 0. -1.
<mgrwt>
<rscale>  0 0.24505964E+04</rscale>
<asrwt>0</asrwt>
<pdfrwt beam="1">  1        2 0.39371113E+00 0.24505964E+04</pdfrwt>
<pdfrwt beam="2">  1       -2 0.90256641E-01 0.24505964E+04</pdfrwt>
<totfact> 0.30230534E+00</totfact>
</mgrwt>
</event>
<event>
 6    1  0.8968082E-007  0.2426122E+04  0.7818608E-02  0.8429788E-01
         -2   -1    0    0    0  501 -0.00000000000E+00  0.00000000000E+00  0.12339627765E+04  0.12339627765E+04  0.00000000000E+00 0.  1.
          2   -1    0    0  501    0  0.00000000000E+00 -0.00000000000E+00 -0.11925134442E+04  0.11925134442E+04  0.00000000000E+00 0. -1.
         23    2    1    2    0    0 -0.63347942742E+03 -0.94985636145E+03 -0.38412449424E+03  0.12080196666E+04  0.90755691404E+02 0.  0.
         11    1    3    3    0    0 -0.17605388954E+03 -0.20183323005E+03 -0.72196659174E+02  0.27738778338E+03  0.00000000000E+00 0.  1.
        -11    1    3    3    0    0 -0.45742553788E+03 -0.74802313139E+03 -0.31192783506E+03  0.93063188323E+03  0.00000000000E+00 0. -1.
         22    1    1    2    0    0  0.63347942742E+03  0.94985636145E+03  0.42557382648E+03  0.12184565541E+04  0.00000000000E+00 0.  1.
<mgrwt>
<rscale>  0 0.24261222E+04</rscale>
<asrwt>0</asrwt>
<pdfrwt beam="1">  1        2 0.18346361E+00 0.24261222E+04</pdfrwt>
<pdfrwt beam="2">  1       -2 0.18984043E+00 0.24261222E+04</pdfrwt>
<totfact> 0.26682214E+00</totfact>
</mgrwt>
</event>
<event>
 6    1  0.8968082E-007  0.4561291E+04  0.7818608E-02  0.7899994E-01
         -2   -1    0    0    0  501 -0.00000000000E+00  0.00000000000E+00  0.16945135252E+04  0.16945135252E+04  0.00000000000E+00 0.  1.
          2   -1    0    0  501    0  0.00000000000E+00 -0.00000000000E+00 -0.30695198065E+04  0.30695198065E+04  0.00000000000E+00 0. -1.
         23    2    1    2    0    0  0.14358122692E+04 -0.16237286941E+04  0.50246398642E+02  0.21699252102E+04  0.89436976991E+02 0.  0.
         11    1    3    3    0    0  0.91272143204E+03 -0.10761398160E+04  0.15405930759E+01  0.14110774924E+04  0.00000000000E+00 0. -1.
        -11    1    3    3    0    0  0.52309083713E+03 -0.54758887809E+03  0.48705805566E+02  0.75884771779E+03  0.00000000000E+00 0.  1.
         22    1    1    2    0    0 -0.14358122692E+04  0.16237286941E+04 -0.14252526799E+04  0.25941081215E+04  0.00000000000E+00 0. -1.
<mgrwt>
<rscale>  0 0.45612905E+04</rscale>
<asrwt>0</asrwt>
<pdfrwt beam="1">  1        2 0.47223381E+00 0.45612905E+04</pdfrwt>
<pdfrwt beam="2">  1       -2 0.26069439E+00 0.45612905E+04</pdfrwt>
<totfact> 0.65512515E-02</totfact>
</mgrwt>
</event>
<event>
 6    1  0.8968082E-007  0.2599347E+04  0.7818608E-02  0.8368423E-01
          2   -1    0    0  501    0  0.00000000000E+00  0.00000000000E+00  0.27435300746E+04  0.27435300746E+04  0.00000000000E+00 0. -1.
         -2   -1    0    0    0  501 -0.00000000000E+00 -0.00000000000E+00 -0.61568538157E+03  0.61568538157E+03  0.00000000000E+00 0.  1.
         23    2    1    2    0    0  0.45803279510E+03  0.84387574413E+03  0.21945048161E+04  0.23967374643E+04  0.81109630326E+02 0.  0.
         11    1    3    3    0    0  0.10901867765E+03  0.26836561384E+03  0.70729871415E+03  0.76431449404E+03  0.00000000000E+00 0. -1.
        -11    1    3    3    0    0  0.34901411745E+03  0.57551013029E+03  0.14872061019E+04  0.16324229702E+04  0.00000000000E+00 0.  1.
         22    1    1    2    0    0 -0.45803279510E+03 -0.84387574413E+03 -0.66660122995E+02  0.96247799191E+03  0.00000000000E+00 0.  1.
<mgrwt>
<rscale>  0 0.25993471E+04</rscale>
<asrwt>0</asrwt>
<pdfrwt beam="1">  1        2 0.42208154E+00 0.25993471E+04</pdfrwt>
<pdfrwt beam="2">  1       -2 0.94720830E-01 0.25993471E+04</pdfrwt>
<totfact> 0.20757550E+00</totfact>
</mgrwt>
</event>
<event>
 6    1  0.9263064E-007  0.3646875E+04  0.7818608E-02  0.8079838E-01
          2   -1    0    0  501    0  0.00000000000E+00  0.00000000000E+00  0.17535477054E+04  0.17535477054E+04  0.00000000000E+00 0. -1.
         -2   -1    0    0    0  501 -0.00000000000E+00 -0.00000000000E+00 -0.18961125298E+04  0.18961125298E+04  0.00000000000E+00 0.  1.
         23    2    1    2    0    0  0.23222369711E+03 -0.25486927423E+03 -0.18620816561E+04  0.18959144364E+04  0.90869486588E+02 0.  0.
         11    1    3    3    0    0  0.49222549949E+02 -0.89699212050E+01 -0.25505001485E+03  0.25991119442E+03  0.00000000000E+00 0.  1.
        -11    1    3    3    0    0  0.18300114716E+03 -0.24589935302E+03 -0.16070316413E+04  0.16360032420E+04  0.00000000000E+00 0. -1.
         22    1    1    2    0    0 -0.23222369711E+03  0.25486927423E+03  0.17195168317E+04  0.17537457988E+04  0.00000000000E+00 0. -1.
<mgrwt>
<rscale>  0 0.36468747E+04</rscale>
<asrwt>0</asrwt>
<pdfrwt beam="1">  1        2 0.26977657E+00 0.36468747E+04</pdfrwt>
<pdfrwt beam="2">  1       -2 0.29170962E+00 0.36468747E+04</pdfrwt>
<totfact> 0.26556088E-01</totfact>
</mgrwt>
</event>
<event>
 6    1  0.8968082E-007  0.2374660E+04  0.7818608E-02  0.8449052E-01
          4   -1    0    0  501    0  0.00000000000E+00  0.00000000000E+00  0.98271201201E+03  0.98271201201E+03  0.00000000000E+00 0. -1.
         -4   -1    0    0    0  501 -0.00000000000E+00 -0.00000000000E+00 -0.14345529161E+04  0.14345529161E+04  0.00000000000E+00 0.  1.
         23    2    1    2    0    0 -0.39718583041E+03 -0.42082837131E+03  0.82706423656E+03  0.10135372263E+04  0.91484183168E+02 0.  0.
         13    1    3    3    0    0 -0.35400859777E+03 -0.36278909977E+03  0.76776152404E+03  0.91999770435E+03  0.00000000000E+00 0. -1.
        -13    1    3    3    0    0 -0.43177232644E+02 -0.58039271540E+02  0.59302712517E+02  0.93539521977E+02  0.00000000000E+00 0.  1.
         22    1    1    2    0    0  0.39718583041E+03  0.42082837131E+03 -0.12789051407E+04  0.14037277018E+04  0.00000000000E+00 0.  1.
<mgrwt>
<rscale>  0 0.23746599E+04</rscale>
<asrwt>0</asrwt>
<pdfrwt beam="1">  1        4 0.15118646E+00 0.23746599E+04</pdfrwt>
<pdfrwt beam="2">  1       -4 0.22070045E+00 0.23746599E+04</pdfrwt>
<totfact> 0.50662164E-02</totfact>
</mgrwt>
</event>
<event>
 6    1  0.8968082E-007  0.3766621E+04  0.7818608E-02  0.8053356E-01
         -1   -1    0    0    0  501 -0.00000000000E+00  0.00000000000E+00  0.18541025410E+04  0.18541025410E+04  0.00000000000E+00 0.  1.
          1   -1    0    0  501    0  0.00000000000E+00 -0.00000000000E+00 -0.19129783302E+04  0.19129783302E+04  0.00000000000E+00 0. -1.
         23    2    1    2    0    0 -0.37028585024E+03 -0.76750556762E+03 -0.17078724595E+04  0.19109110445E+04  0.92608178207E+02 0.  0.
         11    1    3    3    0    0 -0.71204032576E+02 -0.24039479701E+03 -0.47324153184E+03  0.53555319077E+03  0.00000000000E+00 0.  1.
        -11    1    3    3    0    0 -0.29908181766E+03 -0.52711077061E+03 -0.12346309277E+04  0.13753578537E+04  0.00000000000E+00 0. -1.
         22    1    1    2    0    0  0.37028585024E+03  0.76750556762E+03  0.16489966703E+04  0.18561698268E+04  0.00000000000E+00 0.  1.
<mgrwt>
<rscale>  0 0.37666208E+04</rscale>
<asrwt>0</asrwt>
<pdfrwt beam="1">  1        1 0.29430436E+00 0.37666208E+04</pdfrwt>
<pdfrwt beam="2">  1       -1 0.28524655E+00 0.37666208E+04</pdfrwt>
<totfact> 0.11211888E-01</totfact>
</mgrwt>
</event>
<event>
 6    1  0.8968082E-007  0.1951819E+04  0.7818608E-02  0.8629484E-01
          2   -1    0    0  501    0  0.00000000000E+00  0.00000000000E+00  0.23298814193E+04  0.23298814193E+04  0.00000000000E+00 0. -1.
         -2   -1    0    0    0  501 -0.00000000000E+00 -0.00000000000E+00 -0.40877573448E+03  0.40877573448E+03  0.00000000000E+00 0.  1.
         23    2    1    2    0    0  0.37245455565E+03 -0.73753901908E+03  0.16853028409E+04  0.18794195953E+04  0.96364666365E+02 0.  0.
         13    1    3    3    0    0  0.69707991070E+02 -0.77677436081E+02  0.25132299496E+03  0.27213275417E+03  0.00000000000E+00 0. -1.
        -13    1    3    3    0    0  0.30274656458E+03 -0.65986158300E+03  0.14339798460E+04  0.16072868411E+04  0.00000000000E+00 0.  1.
         22    1    1    2    0    0 -0.37245455565E+03  0.73753901908E+03  0.23580284388E+03  0.85923755846E+03  0.00000000000E+00 0.  1.
<mgrwt>
<rscale>  0 0.19518186E+04</rscale>
<asrwt>0</asrwt>
<pdfrwt beam="1">  1        2 0.35844329E+00 0.19518186E+04</pdfrwt>
<pdfrwt beam="2">  1       -2 0.62888576E-01 0.19518186E+04</pdfrwt>
<totfact> 0.95313933E+00</totfact>
</mgrwt>
</event>
<event>
 6    1  0.8968082E-007  0.2133629E+04  0.7818608E-02  0.8546572E-01
          2   -1    0    0  501    0  0.00000000000E+00  0.00000000000E+00  0.36353463468E+04  0.36353463468E+04  0.00000000000E+00 0. -1.
         -2   -1    0    0    0  501 -0.00000000000E+00 -0.00000000000E+00 -0.31306326244E+03  0.31306326244E+03  0.00000000000E+00 0.  1.
         23    2    1    2    0    0  0.83699675509E+03  0.64369802262E+03  0.14086938505E+04  0.17628354357E+04  0.90882871838E+02 0.  0.
         11    1    3    3    0    0  0.60424573841E+03  0.49004626018E+03  0.10928094760E+04  0.13414510055E+04  0.00000000000E+00 0.  1.
        -11    1    3    3    0    0  0.23275101668E+03  0.15365176244E+03  0.31588437456E+03  0.42138443013E+03  0.00000000000E+00 0. -1.
         22    1    1    2    0    0 -0.83699675509E+03 -0.64369802262E+03  0.19135892338E+04  0.21855741736E+04  0.00000000000E+00 0. -1.
<mgrwt>
<rscale>  0 0.21336292E+04</rscale>
<asrwt>0</asrwt>
<pdfrwt beam="1">  1        2 0.55928402E+00 0.21336292E+04</pdfrwt>
<pdfrwt beam="2">  1       -2 0.48163582E-01 0.21336292E+04</pdfrwt>
<totfact> 0.24557096E+00</totfact>
</mgrwt>
</event>
<event>
 6    1  0.8968082E-007  0.1592148E+04  0.7818608E-02  0.8825386E-01
          2   -1    0    0  501    0  0.00000000000E+00  0.00000000000E+00  0.29529153416E+04  0.29529153416E+04  0.00000000000E+00 0. -1.
         -2   -1    0    0    0  501 -0.00000000000E+00 -0.00000000000E+00 -0.21461289717E+03  0.21461289717E+03  0.00000000000E+00 0.  1.
         23    2    1    2    0    0  0.78286339270E+03  0.11368137199E+03  0.12682674409E+04  0.14981566631E+04  0.10085900871E+03 0.  0.
         11    1    3    3    0    0  0.38746539729E+03  0.13668459316E+02  0.56621035365E+03  0.68622913481E+03  0.00000000000E+00 0.  1.
        -11    1    3    3    0    0  0.39539799541E+03  0.10001291267E+03  0.70205708723E+03  0.81192752830E+03  0.00000000000E+00 0. -1.
         22    1    1    2    0    0 -0.78286339270E+03 -0.11368137199E+03  0.14700350035E+04  0.16693715757E+04  0.00000000000E+00 0.  1.
<mgrwt>
<rscale>  0 0.15921479E+04</rscale>
<asrwt>0</asrwt>
<pdfrwt beam="1">  1        2 0.45429464E+00 0.15921479E+04</pdfrwt>
<pdfrwt beam="2">  1       -2 0.33017371E-01 0.15921479E+04</pdfrwt>
<totfact> 0.15391802E+01</totfact>
</mgrwt>
</event>
<event>
 6    1  0.8968082E-007  0.7585920E+04  0.7818608E-02  0.7519853E-01
         -2   -1    0    0    0  501 -0.00000000000E+00  0.00000000000E+00  0.42872422908E+04  0.42872422908E+04  0.00000000000E+00 0.  1.
          2   -1    0    0  501    0  0.00000000000E+00 -0.00000000000E+00 -0.33556638890E+04  0.33556638890E+04  0.00000000000E+00 0. -1.
         23    2    1    2    0    0 -0.33530522774E+03 -0.23331752784E+04  0.34590653603E+04  0.41868496408E+04  0.91870955743E+02 0.  0.
         11    1    3    3    0    0 -0.23429402363E+03 -0.13217971793E+04  0.19472468163E+04  0.23651240214E+04  0.00000000000E+00 0.  1.
        -11    1    3    3    0    0 -0.10101120411E+03 -0.10113780991E+04  0.15118185440E+04  0.18217256195E+04  0.00000000000E+00 0. -1.
         22    1    1    2    0    0  0.33530522774E+03  0.23331752784E+04 -0.25274869585E+04  0.34560565390E+04  0.00000000000E+00 0. -1.
<mgrwt>
<rscale>  0 0.75859196E+04</rscale>
<asrwt>0</asrwt>
<pdfrwt beam="1">  1        2 0.51625598E+00 0.75859196E+04</pdfrwt>
<pdfrwt beam="2">  1       -2 0.65957573E+00 0.75859196E+04</pdfrwt>
<totfact> 0.19662206E-04</totfact>
</mgrwt>
</event>
<event>
 6    1  0.8968082E-007  0.5553605E+04  0.7818608E-02  0.7748356E-01
         -1   -1    0    0    0  501 -0.00000000000E+00  0.00000000000E+00  0.17309847275E+04  0.17309847275E+04  0.00000000000E+00 0.  1.
          1   -1    0    0  501    0  0.00000000000E+00 -0.00000000000E+00 -0.44544769260E+04  0.44544769260E+04  0.00000000000E+00 0. -1.
         23    2    1    2    0    0  0.16873159589E+04 -0.52402191665E+03  0.10227204993E+04  0.20435123912E+04  0.91386865858E+02 0.  0.
         13    1    3    3    0    0  0.11507935331E+04 -0.33920070228E+03  0.73892957289E+03  0.14090421520E+04  0.00000000000E+00 0.  1.
        -13    1    3    3    0    0  0.53652242578E+03 -0.18482121438E+03  0.28379092638E+03  0.63447023929E+03  0.00000000000E+00 0. -1.
         22    1    1    2    0    0 -0.16873159589E+04  0.52402191665E+03 -0.37462126978E+04  0.41419492623E+04  0.00000000000E+00 0. -1.
<mgrwt>
<rscale>  0 0.55536048E+04</rscale>
<asrwt>0</asrwt>
<pdfrwt beam="1">  1        1 0.68530413E+00 0.55536048E+04</pdfrwt>
<pdfrwt beam="2">  1       -1 0.26630535E+00 0.55536048E+04</pdfrwt>
<totfact> 0.13425826E-03</totfact>
</mgrwt>
</event>
<event>
 6    1  0.8968082E-007  0.4494713E+04  0.7818608E-02  0.7911563E-01
         -1   -1    0    0    0  501 -0.00000000000E+00  0.00000000000E+00  0.22038044875E+04  0.22038044875E+04  0.00000000000E+00 0.  1.
          1   -1    0    0  501    0  0.00000000000E+00 -0.00000000000E+00 -0.22917689368E+04  0.22917689368E+04  0.00000000000E+00 0. -1.
         23    2    1    2    0    0  0.12422976229E+04 -0.91418631780E+03  0.15895478304E+04  0.22167387537E+04  0.90710470765E+02 0.  0.
         11    1    3    3    0    0  0.30336369567E+03 -0.27283107780E+03  0.41764115250E+03  0.58385825431E+03  0.00000000000E+00 0. -1.
        -11    1    3    3    0    0  0.93893392724E+03 -0.64135524000E+03  0.11719066779E+04  0.16328804994E+04  0.00000000000E+00 0.  1.
         22    1    1    2    0    0 -0.12422976229E+04  0.91418631780E+03 -0.16775122797E+04  0.22788346707E+04  0.00000000000E+00 0. -1.
<mgrwt>
<rscale>  0 0.44947127E+04</rscale>
<asrwt>0</asrwt>
<pdfrwt beam="1">  1        1 0.35257984E+00 0.44947127E+04</pdfrwt>
<pdfrwt beam="2">  1       -1 0.33904685E+00 0.44947127E+04</pdfrwt>
<totfact> 0.26020075E-02</totfact>
</mgrwt>
</event>
<event>
 6    1  0.8968082E-007  0.2515060E+04  0.7818608E-02  0.8397640E-01
          2   -1    0    0  501    0  0.00000000000E+00  0.00000000000E+00  0.16780206455E+04  0.16780206455E+04  0.00000000000E+00 0. -1.
         -2   -1    0    0    0  501 -0.00000000000E+00 -0.00000000000E+00 -0.94240864350E+03  0.94240864350E+03  0.00000000000E+00 0.  1.
         23    2    1    2    0    0 -0.85745324380E+03 -0.82374201637E+03  0.78950080546E+03  0.14301852056E+04  0.91330310774E+02 0.  0.
         11    1    3    3    0    0 -0.66412835649E+03 -0.62443418565E+03  0.55914221077E+03  0.10694038236E+04  0.00000000000E+00 0. -1.
        -11    1    3    3    0    0 -0.19332488732E+03 -0.19930783072E+03  0.23035859469E+03  0.36078138199E+03  0.00000000000E+00 0.  1.
         22    1    1    2    0    0  0.85745324380E+03  0.82374201637E+03 -0.53888803503E+02  0.11902440834E+04  0.00000000000E+00 0.  1.
<mgrwt>
<rscale>  0 0.25150596E+04</rscale>
<asrwt>0</asrwt>
<pdfrwt beam="1">  1        2 0.25815702E+00 0.25150596E+04</pdfrwt>
<pdfrwt beam="2">  1       -2 0.14498594E+00 0.25150596E+04</pdfrwt>
<totfact> 0.29455603E+00</totfact>
</mgrwt>
</event>
<event>
 6    1  0.8968082E-007  0.2365733E+04  0.7818608E-02  0.8452445E-01
         -2   -1    0    0    0  501 -0.00000000000E+00  0.00000000000E+00  0.25515191920E+04  0.25515191920E+04  0.00000000000E+00 0.  1.
          2   -1    0    0  501    0  0.00000000000E+00 -0.00000000000E+00 -0.54836847891E+03  0.54836847891E+03  0.00000000000E+00 0. -1.
         23    2    1    2    0    0 -0.39797310055E+03 -0.66528564291E+03  0.21706946451E+04  0.23067555605E+04  0.90655379414E+02 0.  0.
         11    1    3    3    0    0 -0.80908070970E+02 -0.18828771665E+03  0.66208567210E+03  0.69307706454E+03  0.00000000000E+00 0. -1.
        -11    1    3    3    0    0 -0.31706502958E+03 -0.47699792626E+03  0.15086089730E+04  0.16136784959E+04  0.00000000000E+00 0.  1.
         22    1    1    2    0    0  0.39797310055E+03  0.66528564291E+03 -0.16754393207E+03  0.79313211043E+03  0.00000000000E+00 0. -1.
<mgrwt>
<rscale>  0 0.23657326E+04</rscale>
<asrwt>0</asrwt>
<pdfrwt beam="1">  1        2 0.84364383E-01 0.23657326E+04</pdfrwt>
<pdfrwt beam="2">  1       -2 0.39254141E+00 0.23657326E+04</pdfrwt>
<totfact> 0.41400775E-01</totfact>
</mgrwt>
</event>
<event>
 6    1  0.8968082E-007  0.2115875E+04  0.7818608E-02  0.8554282E-01
          2   -1    0    0  501    0  0.00000000000E+00  0.00000000000E+00  0.39154924951E+04  0.39154924951E+04  0.00000000000E+00 0. -1.
         -2   -1    0    0    0  501 -0.00000000000E+00 -0.00000000000E+00 -0.28584710021E+03  0.28584710021E+03  0.00000000000E+00 0.  1.
         23    2    1    2    0    0 -0.21196259609E+03 -0.27561416930E+02  0.38715358806E+04  0.38785412359E+04  0.92759204601E+02 0.  0.
         11    1    3    3    0    0 -0.84213026921E+02  0.34430855748E+02  0.15425059194E+04  0.15451866648E+04  0.00000000000E+00 0. -1.
        -11    1    3    3    0    0 -0.12774956917E+03 -0.61992272678E+02  0.23290299612E+04  0.23333545711E+04  0.00000000000E+00 0.  1.
         22    1    1    2    0    0  0.21196259609E+03  0.27561416930E+02 -0.24189048563E+03  0.32279835948E+03  0.00000000000E+00 0.  1.
<mgrwt>
<rscale>  0 0.21158754E+04</rscale>
<asrwt>0</asrwt>
<pdfrwt beam="1">  1        2 0.60238342E+00 0.21158754E+04</pdfrwt>
<pdfrwt beam="2">  1       -2 0.43976480E-01 0.21158754E+04</pdfrwt>
<totfact> 0.18178369E+00</totfact>
</mgrwt>
</event>
<event>
 6    1  0.8968082E-007  0.1090067E+04  0.7818608E-02  0.9214927E-01
         -2   -1    0    0    0  501 -0.00000000000E+00  0.00000000000E+00  0.19798023413E+03  0.19798023413E+03  0.00000000000E+00 0.  1.
          2   -1    0    0  501    0  0.00000000000E+00 -0.00000000000E+00 -0.15004611092E+04  0.15004611092E+04  0.00000000000E+00 0. -1.
         23    2    1    2    0    0  0.31100902149E+03  0.35148752946E+03 -0.23741520648E+03  0.53455347362E+03  0.95453345063E+02 0.  0.
         11    1    3    3    0    0  0.71098871223E+02  0.13142580201E+03 -0.43514522772E+02  0.15563195242E+03  0.00000000000E+00 0.  1.
        -11    1    3    3    0    0  0.23991015026E+03  0.22006172746E+03 -0.19390068370E+03  0.37892152121E+03  0.00000000000E+00 0. -1.
         22    1    1    2    0    0 -0.31100902149E+03 -0.35148752946E+03 -0.10650656686E+04  0.11638878697E+04  0.00000000000E+00 0. -1.
<mgrwt>
<rscale>  0 0.10900672E+04</rscale>
<asrwt>0</asrwt>
<pdfrwt beam="1">  1        2 0.23084018E+00 0.10900672E+04</pdfrwt>
<pdfrwt beam="2">  1       -2 0.30458496E-01 0.10900672E+04</pdfrwt>
<totfact> 0.12552394E+02</totfact>
</mgrwt>
</event>
<event>
 6    1  0.8968082E-007  0.1384143E+04  0.7818608E-02  0.8965377E-01
         -2   -1    0    0    0  501 -0.00000000000E+00  0.00000000000E+00  0.65780144132E+03  0.65780144132E+03  0.00000000000E+00 0.  1.
          2   -1    0    0  501    0  0.00000000000E+00 -0.00000000000E+00 -0.72812692594E+03  0.72812692594E+03  0.00000000000E+00 0. -1.
         23    2    1    2    0    0  0.28651719131E+03  0.54871001881E+03  0.26784852507E+03  0.68056573252E+03  0.90841060350E+02 0.  0.
         13    1    3    3    0    0  0.47193246302E+02  0.82516160739E+02  0.78801216697E+02  0.12347368559E+03  0.00000000000E+00 0. -1.
        -13    1    3    3    0    0  0.23932394500E+03  0.46619385807E+03  0.18904730837E+03  0.55709204694E+03  0.00000000000E+00 0.  1.
         22    1    1    2    0    0 -0.28651719131E+03 -0.54871001881E+03 -0.33817400969E+03  0.70536263474E+03  0.00000000000E+00 0.  1.
<mgrwt>
<rscale>  0 0.13841430E+04</rscale>
<asrwt>0</asrwt>
<pdfrwt beam="1">  1        2 0.11201953E+00 0.13841430E+04</pdfrwt>
<pdfrwt beam="2">  1       -2 0.10120022E+00 0.13841430E+04</pdfrwt>
<totfact> 0.30488525E+01</totfact>
</mgrwt>
</event>
<event>
 6    1  0.8968082E-007  0.1010758E+04  0.7818608E-02  0.9296823E-01
         -2   -1    0    0    0  501 -0.00000000000E+00  0.00000000000E+00  0.13074352826E+03  0.13074352826E+03  0.00000000000E+00 0.  1.
          2   -1    0    0  501    0  0.00000000000E+00 -0.00000000000E+00 -0.19535041748E+04  0.19535041748E+04  0.00000000000E+00 0. -1.
         23    2    1    2    0    0 -0.34709053635E+03  0.26764285779E+03 -0.41681123863E+03  0.61156366453E+03  0.90409995986E+02 0.  0.
         11    1    3    3    0    0 -0.66805572159E+02  0.83083401800E+02 -0.62642307391E+02  0.12365231418E+03  0.00000000000E+00 0.  1.
        -11    1    3    3    0    0 -0.28028496420E+03  0.18455945599E+03 -0.35416893124E+03  0.48791135035E+03  0.00000000000E+00 0. -1.
         22    1    1    2    0    0  0.34709053635E+03 -0.26764285779E+03 -0.14059494079E+04  0.14726840386E+04  0.00000000000E+00 0. -1.
<mgrwt>
<rscale>  0 0.10107582E+04</rscale>
<asrwt>0</asrwt>
<pdfrwt beam="1">  1        2 0.30053910E+00 0.10107582E+04</pdfrwt>
<pdfrwt beam="2">  1       -2 0.20114389E-01 0.10107582E+04</pdfrwt>
<totfact> 0.15016855E+02</totfact>
</mgrwt>
</event>
<event>
 6    1  0.8968082E-007  0.1176403E+04  0.7818608E-02  0.9133765E-01
          2   -1    0    0  501    0  0.00000000000E+00  0.00000000000E+00  0.64663348491E+03  0.64663348491E+03  0.00000000000E+00 0. -1.
         -2   -1    0    0    0  501 -0.00000000000E+00 -0.00000000000E+00 -0.53504985689E+03  0.53504985689E+03  0.00000000000E+00 0.  1.
         23    2    1    2    0    0  0.49857275606E+03 -0.27851359078E+03 -0.69966182088E+02  0.58242968359E+03  0.90467985203E+02 0.  0.
         11    1    3    3    0    0  0.24106407529E+03 -0.14571539619E+03  0.10009216082E+02  0.28185998206E+03  0.00000000000E+00 0. -1.
        -11    1    3    3    0    0  0.25750868077E+03 -0.13279819459E+03 -0.79975398170E+02  0.30056970152E+03  0.00000000000E+00 0.  1.
         22    1    1    2    0    0 -0.49857275606E+03  0.27851359078E+03  0.18154981011E+03  0.59925365822E+03  0.00000000000E+00 0.  1.
<mgrwt>
<rscale>  0 0.11764033E+04</rscale>
<asrwt>0</asrwt>
<pdfrwt beam="1">  1        2 0.99482074E-01 0.11764033E+04</pdfrwt>
<pdfrwt beam="2">  1       -2 0.82315363E-01 0.11764033E+04</pdfrwt>
<totfact> 0.57989934E+01</totfact>
</mgrwt>
</event>
<event>
 6    1  0.8968082E-007  0.2648343E+04  0.7818608E-02  0.8351963E-01
          2   -1    0    0  501    0  0.00000000000E+00  0.00000000000E+00  0.22912329573E+04  0.22912329573E+04  0.00000000000E+00 0. -1.
         -2   -1    0    0    0  501 -0.00000000000E+00 -0.00000000000E+00 -0.76527811364E+03  0.76527811364E+03  0.00000000000E+00 0.  1.
         23    2    1    2    0    0 -0.38171430241E+03  0.81287065893E+03  0.18845391295E+04  0.20895326809E+04  0.90523902902E+02 0.  0.
         13    1    3    3    0    0 -0.18885730673E+03  0.50286668892E+03  0.11493958330E+04  0.12687209189E+04  0.00000000000E+00 0.  1.
        -13    1    3    3    0    0 -0.19285699568E+03  0.31000397001E+03  0.73514329655E+03  0.82081176202E+03  0.00000000000E+00 0. -1.
         22    1    1    2    0    0  0.38171430241E+03 -0.81287065893E+03 -0.35858428584E+03  0.96697839007E+03  0.00000000000E+00 0.  1.
<mgrwt>
<rscale>  0 0.26483432E+04</rscale>
<asrwt>0</asrwt>
<pdfrwt beam="1">  1        2 0.35249738E+00 0.26483432E+04</pdfrwt>
<pdfrwt beam="2">  1       -2 0.11773510E+00 0.26483432E+04</pdfrwt>
<totfact> 0.22487520E+00</totfact>
</mgrwt>
</event>
<event>
 6    1  0.8968082E-007  0.3799610E+04  0.7818608E-02  0.8046239E-01
          1   -1    0    0  501    0  0.00000000000E+00  0.00000000000E+00  0.11244356081E+04  0.11244356081E+04  0.00000000000E+00 0. -1.
         -1   -1    0    0    0  501 -0.00000000000E+00 -0.00000000000E+00 -0.32098403460E+04  0.32098403460E+04  0.00000000000E+00 0.  1.
         23    2    1    2    0    0 -0.10821172028E+04 -0.15557650428E+04 -0.11771368001E+04  0.22327686009E+04  0.90675630889E+02 0.  0.
         11    1    3    3    0    0 -0.78181596108E+03 -0.10506871965E+04 -0.81482124727E+03  0.15424375018E+04  0.00000000000E+00 0.  1.
        -11    1    3    3    0    0 -0.30030124176E+03 -0.50507784627E+03 -0.36231555286E+03  0.69033109914E+03  0.00000000000E+00 0. -1.
         22    1    1    2    0    0  0.10821172028E+04  0.15557650428E+04 -0.90826793778E+03  0.21015073532E+04  0.00000000000E+00 0. -1.
<mgrwt>
<rscale>  0 0.37996099E+04</rscale>
<asrwt>0</asrwt>
<pdfrwt beam="1">  1        1 0.17299009E+00 0.37996099E+04</pdfrwt>
<pdfrwt beam="2">  1       -1 0.49382159E+00 0.37996099E+04</pdfrwt>
<totfact> 0.15812022E-02</totfact>
</mgrwt>
</event>
<event>
 6    1  0.8968082E-007  0.2865013E+04  0.7818608E-02  0.8283364E-01
          1   -1    0    0  501    0  0.00000000000E+00  0.00000000000E+00  0.17051432517E+04  0.17051432517E+04  0.00000000000E+00 0. -1.
         -1   -1    0    0    0  501 -0.00000000000E+00 -0.00000000000E+00 -0.12034619835E+04  0.12034619835E+04  0.00000000000E+00 0.  1.
         23    2    1    2    0    0 -0.98078834486E+03  0.47650032688E+03 -0.68978162115E+03  0.12934946645E+04  0.91276631118E+02 0.  0.
         13    1    3    3    0    0 -0.65541951156E+03  0.30280786630E+03 -0.50414189606E+03  0.88058298381E+03  0.00000000000E+00 0.  1.
        -13    1    3    3    0    0 -0.32536883330E+03  0.17369246058E+03 -0.18563972509E+03  0.41291168073E+03  0.00000000000E+00 0. -1.
         22    1    1    2    0    0  0.98078834486E+03 -0.47650032688E+03  0.11914628893E+04  0.16151105707E+04  0.00000000000E+00 0.  1.
<mgrwt>
<rscale>  0 0.28650131E+04</rscale>
<asrwt>0</asrwt>
<pdfrwt beam="1">  1        1 0.26232973E+00 0.28650131E+04</pdfrwt>
<pdfrwt beam="2">  1       -1 0.18514800E+00 0.28650131E+04</pdfrwt>
<totfact> 0.77828093E-01</totfact>
</mgrwt>
</event>
<event>
 6    1  0.8968082E-007  0.2344403E+04  0.7818608E-02  0.8460616E-01
         -2   -1    0    0    0  501 -0.00000000000E+00  0.00000000000E+00  0.11464931012E+04  0.11464931012E+04  0.00000000000E+00 0.  1.
          2   -1    0    0  501    0  0.00000000000E+00 -0.00000000000E+00 -0.11984865456E+04  0.11984865456E+04  0.00000000000E+00 0. -1.
         23    2    1    2    0    0 -0.16443876268E+03 -0.88016306407E+03 -0.78002367890E+03  0.11909626850E+04  0.90708606502E+02 0.  0.
         13    1    3    3    0    0 -0.79786613885E+02 -0.60188127749E+03 -0.49003672737E+03  0.78023263846E+03  0.00000000000E+00 0.  1.
        -13    1    3    3    0    0 -0.84652148797E+02 -0.27828178658E+03 -0.28998695153E+03  0.41073004649E+03  0.00000000000E+00 0. -1.
         22    1    1    2    0    0  0.16443876268E+03  0.88016306407E+03  0.72803023450E+03  0.11540169619E+04  0.00000000000E+00 0.  1.
<mgrwt>
<rscale>  0 0.23444032E+04</rscale>
<asrwt>0</asrwt>
<pdfrwt beam="1">  1        2 0.18438255E+00 0.23444032E+04</pdfrwt>
<pdfrwt beam="2">  1       -2 0.17638355E+00 0.23444032E+04</pdfrwt>
<totfact> 0.32943692E+00</totfact>
</mgrwt>
</event>
<event>
 6    1  0.8968082E-007  0.2497630E+04  0.7818608E-02  0.8403830E-01
         -1   -1    0    0    0  501 -0.00000000000E+00  0.00000000000E+00  0.39981661440E+03  0.39981661440E+03  0.00000000000E+00 0.  1.
          1   -1    0    0  501    0  0.00000000000E+00 -0.00000000000E+00 -0.39006341846E+04  0.39006341846E+04  0.00000000000E+00 0. -1.
         23    2    1    2    0    0 -0.48026398147E+03 -0.10334025671E+04 -0.26252358383E+04  0.28633642578E+04  0.91745891996E+02 0.  0.
         11    1    3    3    0    0 -0.36215938876E+03 -0.85922809449E+03 -0.21133558349E+04  0.23099145495E+04  0.00000000000E+00 0.  1.
        -11    1    3    3    0    0 -0.11810459272E+03 -0.17417447263E+03 -0.51188000345E+03  0.55344970834E+03  0.00000000000E+00 0. -1.
         22    1    1    2    0    0  0.48026398147E+03  0.10334025671E+04 -0.87558173193E+03  0.14370865412E+04  0.00000000000E+00 0.  1.
<mgrwt>
<rscale>  0 0.24976296E+04</rscale>
<asrwt>0</asrwt>
<pdfrwt beam="1">  1        1 0.60009757E+00 0.24976296E+04</pdfrwt>
<pdfrwt beam="2">  1       -1 0.61510248E-01 0.24976296E+04</pdfrwt>
<totfact> 0.27950196E-01</totfact>
</mgrwt>
</event>
<event>
 6    1  0.8968082E-007  0.2658191E+04  0.7818608E-02  0.8348699E-01
         -2   -1    0    0    0  501 -0.00000000000E+00  0.00000000000E+00  0.11338008138E+04  0.11338008138E+04  0.00000000000E+00 0.  1.
          2   -1    0    0  501    0  0.00000000000E+00 -0.00000000000E+00 -0.15580298034E+04  0.15580298034E+04  0.00000000000E+00 0. -1.
         23    2    1    2    0    0  0.10704779969E+04  0.49767915104E+03 -0.82727007579E+03  0.14444133669E+04  0.91359273352E+02 0.  0.
         11    1    3    3    0    0  0.77561313361E+03  0.35488993632E+03 -0.54707747060E+03  0.10133194752E+04  0.00000000000E+00 0.  1.
        -11    1    3    3    0    0  0.29486486332E+03  0.14278921472E+03 -0.28019260519E+03  0.43109389171E+03  0.00000000000E+00 0. -1.
         22    1    1    2    0    0 -0.10704779969E+04 -0.49767915104E+03  0.40304108618E+03  0.12474172503E+04  0.00000000000E+00 0.  1.
<mgrwt>
<rscale>  0 0.26581915E+04</rscale>
<asrwt>0</asrwt>
<pdfrwt beam="1">  1        2 0.23969689E+00 0.26581915E+04</pdfrwt>
<pdfrwt beam="2">  1       -2 0.17443090E+00 0.26581915E+04</pdfrwt>
<totfact> 0.20555022E+00</totfact>
</mgrwt>
</event>
<event>
 6    1  0.8968082E-007  0.2297193E+04  0.7818608E-02  0.8479029E-01
         -2   -1    0    0    0  501 -0.00000000000E+00  0.00000000000E+00  0.11470051363E+04  0.11470051363E+04  0.00000000000E+00 0.  1.
          2   -1    0    0  501    0  0.00000000000E+00 -0.00000000000E+00 -0.11501896549E+04  0.11501896549E+04  0.00000000000E+00 0. -1.
         23    2    1    2    0    0  0.13831413056E+02 -0.66523090182E+03  0.93234163707E+03  0.11491823136E+04  0.92927934378E+02 0.  0.
         11    1    3    3    0    0  0.31254882766E+02 -0.85537946896E+02  0.14668242902E+03  0.17265382428E+03  0.00000000000E+00 0. -1.
        -11    1    3    3    0    0 -0.17423469710E+02 -0.57969295493E+03  0.78565920805E+03  0.97652848933E+03  0.00000000000E+00 0.  1.
         22    1    1    2    0    0 -0.13831413056E+02  0.66523090182E+03 -0.93552615565E+03  0.11480124776E+04  0.00000000000E+00 0. -1.
<mgrwt>
<rscale>  0 0.22971926E+04</rscale>
<asrwt>0</asrwt>
<pdfrwt beam="1">  1        2 0.17695225E+00 0.22971926E+04</pdfrwt>
<pdfrwt beam="2">  1       -2 0.17646233E+00 0.22971926E+04</pdfrwt>
<totfact> 0.35318735E+00</totfact>
</mgrwt>
</event>
<event>
 6    1  0.8968082E-007  0.2953377E+03  0.7818608E-02  0.1087595E+00
          2   -1    0    0  501    0  0.00000000000E+00  0.00000000000E+00  0.27758056175E+03  0.27758056175E+03  0.00000000000E+00 0. -1.
         -2   -1    0    0    0  501 -0.00000000000E+00 -0.00000000000E+00 -0.78557708513E+02  0.78557708513E+02  0.00000000000E+00 0.  1.
         23    2    1    2    0    0 -0.18705281736E+01  0.13330834697E+03  0.94430080169E+02  0.18668543781E+03  0.90331602461E+02 0.  0.
         13    1    3    3    0    0  0.17976843071E+02  0.91137420570E+01 -0.10649349258E+02  0.22795521944E+02  0.00000000000E+00 0.  1.
        -13    1    3    3    0    0 -0.19847371244E+02  0.12419460491E+03  0.10507942943E+03  0.16388991587E+03  0.00000000000E+00 0. -1.
         22    1    1    2    0    0  0.18705281736E+01 -0.13330834697E+03  0.10459277307E+03  0.16945283245E+03  0.00000000000E+00 0.  1.
<mgrwt>
<rscale>  0 0.29533772E+03</rscale>
<asrwt>0</asrwt>
<pdfrwt beam="1">  1        2 0.42704701E-01 0.29533772E+03</pdfrwt>
<pdfrwt beam="2">  1       -2 0.12085801E-01 0.29533772E+03</pdfrwt>
<totfact> 0.57938865E+03</totfact>
</mgrwt>
</event>
<event>
 6    1  0.8968082E-007  0.3502648E+04  0.7818608E-02  0.8113163E-01
         -2   -1    0    0    0  501 -0.00000000000E+00  0.00000000000E+00  0.11894229338E+04  0.11894229338E+04  0.00000000000E+00 0.  1.
          2   -1    0    0  501    0  0.00000000000E+00 -0.00000000000E+00 -0.25786757022E+04  0.25786757022E+04  0.00000000000E+00 0. -1.
         23    2    1    2    0    0  0.15610660164E+04  0.53184007671E+02  0.15424696567E+03  0.15721598674E+04  0.90215719893E+02 0.  0.
         11    1    3    3    0    0  0.90608807975E+03  0.73405853063E+02  0.76383937748E+02  0.91226012380E+03  0.00000000000E+00 0. -1.
        -11    1    3    3    0    0  0.65497793661E+03 -0.20221845392E+02  0.77863027923E+02  0.65989974359E+03  0.00000000000E+00 0.  1.
         22    1    1    2    0    0 -0.15610660164E+04 -0.53184007671E+02 -0.15434997341E+04  0.21959387686E+04  0.00000000000E+00 0. -1.
<mgrwt>
<rscale>  0 0.35026482E+04</rscale>
<asrwt>0</asrwt>
<pdfrwt beam="1">  1        2 0.39671934E+00 0.35026482E+04</pdfrwt>
<pdfrwt beam="2">  1       -2 0.18298814E+00 0.35026482E+04</pdfrwt>
<totfact> 0.44492884E-01</totfact>
</mgrwt>
</event>
<event>
 6    1  0.1150658E-006  0.2626839E+04  0.7818608E-02  0.8359141E-01
         -1   -1    0    0    0  501 -0.00000000000E+00  0.00000000000E+00  0.12330779656E+04  0.12330779656E+04  0.00000000000E+00 0.  1.
          1   -1    0    0  501    0  0.00000000000E+00 -0.00000000000E+00 -0.13989960250E+04  0.13989960250E+04  0.00000000000E+00 0. -1.
         23    2    1    2    0    0  0.15005111513E+03 -0.12921137177E+04  0.86937950052E+02  0.13069289578E+04  0.91825361828E+02 0.  0.
         13    1    3    3    0    0  0.10501148748E+03 -0.57898551051E+03  0.65407676054E+02  0.59205557000E+03  0.00000000000E+00 0.  1.
        -13    1    3    3    0    0  0.45039627653E+02 -0.71312820718E+03  0.21530273998E+02  0.71487338783E+03  0.00000000000E+00 0. -1.
         22    1    1    2    0    0 -0.15005111513E+03  0.12921137177E+04 -0.25285600944E+03  0.13251450328E+04  0.00000000000E+00 0.  1.
<mgrwt>
<rscale>  0 0.26268393E+04</rscale>
<asrwt>0</asrwt>
<pdfrwt beam="1">  1        1 0.21523016E+00 0.26268393E+04</pdfrwt>
<pdfrwt beam="2">  1       -1 0.18970430E+00 0.26268393E+04</pdfrwt>
<totfact> 0.12006117E+00</totfact>
</mgrwt>
</event>
<event>
 6    1  0.8968082E-007  0.3430683E+04  0.7818608E-02  0.8130416E-01
         -2   -1    0    0    0  501 -0.00000000000E+00  0.00000000000E+00  0.17521504839E+04  0.17521504839E+04  0.00000000000E+00 0.  1.
          2   -1    0    0  501    0  0.00000000000E+00 -0.00000000000E+00 -0.16793061745E+04  0.16793061745E+04  0.00000000000E+00 0. -1.
         23    2    1    2    0    0  0.67555921622E+03  0.23636517852E+03 -0.15214685773E+04  0.16838633612E+04  0.90996897091E+02 0.  0.
         13    1    3    3    0    0  0.59710105370E+03  0.22945689762E+03 -0.13982572010E+04  0.15376291283E+04  0.00000000000E+00 0.  1.
        -13    1    3    3    0    0  0.78458162514E+02  0.69082809019E+01 -0.12321137626E+03  0.14623423283E+03  0.00000000000E+00 0. -1.
         22    1    1    2    0    0 -0.67555921622E+03 -0.23636517852E+03  0.15943128866E+04  0.17475932973E+04  0.00000000000E+00 0.  1.
<mgrwt>
<rscale>  0 0.34306834E+04</rscale>
<asrwt>0</asrwt>
<pdfrwt beam="1">  1        2 0.25835480E+00 0.34306834E+04</pdfrwt>
<pdfrwt beam="2">  1       -2 0.26956161E+00 0.34306834E+04</pdfrwt>
<totfact> 0.40584338E-01</totfact>
</mgrwt>
</event>
<event>
 6    1  0.8968082E-007  0.7447202E+03  0.7818608E-02  0.9643670E-01
         -2   -1    0    0    0  501 -0.00000000000E+00  0.00000000000E+00  0.76050840997E+02  0.76050840997E+02  0.00000000000E+00 0.  1.
          2   -1    0    0  501    0  0.00000000000E+00 -0.00000000000E+00 -0.18231494583E+04  0.18231494583E+04  0.00000000000E+00 0. -1.
         23    2    1    2    0    0  0.31405011683E+03  0.70690846375E+02 -0.13351105354E+04  0.13763629907E+04  0.90720828741E+02 0.  0.
         11    1    3    3    0    0  0.93818344121E+02  0.36057538360E+02 -0.59411918911E+03  0.60256090036E+03  0.00000000000E+00 0. -1.
        -11    1    3    3    0    0  0.22023177271E+03  0.34633308014E+02 -0.74099134627E+03  0.77380209032E+03  0.00000000000E+00 0.  1.
         22    1    1    2    0    0 -0.31405011683E+03 -0.70690846375E+02 -0.41198808192E+03  0.52283730862E+03  0.00000000000E+00 0.  1.
<mgrwt>
<rscale>  0 0.74472021E+03</rscale>
<asrwt>0</asrwt>
<pdfrwt beam="1">  1        2 0.28048452E+00 0.74472021E+03</pdfrwt>
<pdfrwt beam="2">  1       -2 0.11700130E-01 0.74472021E+03</pdfrwt>
<totfact> 0.45325410E+02</totfact>
</mgrwt>
</event>
<event>
 6    1  0.8968082E-007  0.1212794E+04  0.7818608E-02  0.9101731E-01
          2   -1    0    0  501    0  0.00000000000E+00  0.00000000000E+00  0.72032815179E+03  0.72032815179E+03  0.00000000000E+00 0. -1.
         -2   -1    0    0    0  501 -0.00000000000E+00 -0.00000000000E+00 -0.51048575848E+03  0.51048575848E+03  0.00000000000E+00 0.  1.
         23    2    1    2    0    0 -0.64604850548E+01 -0.10680794379E+03  0.70790001845E+03  0.72139161719E+03  0.88508499644E+02 0.  0.
         13    1    3    3    0    0  0.40342092811E+02 -0.38606167399E+02  0.26195162541E+03  0.26783684337E+03  0.00000000000E+00 0. -1.
        -13    1    3    3    0    0 -0.46802577866E+02 -0.68201776390E+02  0.44594839304E+03  0.45355477382E+03  0.00000000000E+00 0.  1.
         22    1    1    2    0    0  0.64604850548E+01  0.10680794379E+03 -0.49805762514E+03  0.50942229307E+03  0.00000000000E+00 0.  1.
<mgrwt>
<rscale>  0 0.12127939E+04</rscale>
<asrwt>0</asrwt>
<pdfrwt beam="1">  1        2 0.11081972E+00 0.12127939E+04</pdfrwt>
<pdfrwt beam="2">  1       -2 0.78536270E-01 0.12127939E+04</pdfrwt>
<totfact> 0.56147394E+01</totfact>
</mgrwt>
</event>
<event>
 6    1  0.1332957E-006  0.3079957E+04  0.7818608E-02  0.8221260E-01
         -1   -1    0    0    0  501 -0.00000000000E+00  0.00000000000E+00  0.94483029788E+03  0.94483029788E+03  0.00000000000E+00 0.  1.
          1   -1    0    0  501    0  0.00000000000E+00 -0.00000000000E+00 -0.25100095254E+04  0.25100095254E+04  0.00000000000E+00 0. -1.
         23    2    1    2    0    0 -0.78767436604E+03 -0.34534327246E+03  0.64792911552E+03  0.10804890866E+04  0.89171995496E+02 0.  0.
         11    1    3    3    0    0 -0.39020570800E+03 -0.19129180041E+03  0.37774150080E+03  0.57579656901E+03  0.00000000000E+00 0. -1.
        -11    1    3    3    0    0 -0.39746865804E+03 -0.15405147205E+03  0.27018761472E+03  0.50469251759E+03  0.00000000000E+00 0.  1.
         22    1    1    2    0    0  0.78767436604E+03  0.34534327246E+03 -0.22131083431E+04  0.23743507367E+04  0.00000000000E+00 0. -1.
<mgrwt>
<rscale>  0 0.30799565E+04</rscale>
<asrwt>0</asrwt>
<pdfrwt beam="1">  1        1 0.38615531E+00 0.30799565E+04</pdfrwt>
<pdfrwt beam="2">  1       -1 0.14535851E+00 0.30799565E+04</pdfrwt>
<totfact> 0.42759571E-01</totfact>
</mgrwt>
</event>
<event>
 6    1  0.8968082E-007  0.1704247E+04  0.7818608E-02  0.8758946E-01
          1   -1    0    0  501    0  0.00000000000E+00  0.00000000000E+00  0.15208264185E+04  0.15208264185E+04  0.00000000000E+00 0. -1.
         -1   -1    0    0    0  501 -0.00000000000E+00 -0.00000000000E+00 -0.47744755283E+03  0.47744755283E+03  0.00000000000E+00 0.  1.
         23    2    1    2    0    0 -0.77704820757E+03  0.19524437834E+03  0.19168640127E+03  0.82895607698E+03  0.92196621216E+02 0.  0.
         13    1    3    3    0    0 -0.61565815800E+03  0.17824539536E+03  0.12251346826E+03  0.65254573662E+03  0.00000000000E+00 0. -1.
        -13    1    3    3    0    0 -0.16139004958E+03  0.16998982976E+02  0.69172933010E+02  0.17641034036E+03  0.00000000000E+00 0.  1.
         22    1    1    2    0    0  0.77704820757E+03 -0.19524437834E+03  0.85169246445E+03  0.11693178944E+04  0.00000000000E+00 0. -1.
<mgrwt>
<rscale>  0 0.17042475E+04</rscale>
<asrwt>0</asrwt>
<pdfrwt beam="1">  1        1 0.23397329E+00 0.17042475E+04</pdfrwt>
<pdfrwt beam="2">  1       -1 0.73453470E-01 0.17042475E+04</pdfrwt>
<totfact> 0.11240553E+01</totfact>
</mgrwt>
</event>
<event>
 6    1  0.8968082E-007  0.1413046E+04  0.7818608E-02  0.8944429E-01
         -1   -1    0    0    0  501 -0.00000000000E+00  0.00000000000E+00  0.86208554895E+03  0.86208554895E+03  0.00000000000E+00 0.  1.
          1   -1    0    0  501    0  0.00000000000E+00 -0.00000000000E+00 -0.57903180701E+03  0.57903180701E+03  0.00000000000E+00 0. -1.
         23    2    1    2    0    0  0.60013992651E+03  0.14387664613E+03 -0.20312413962E+03  0.65547280961E+03  0.86699292692E+02 0.  0.
         11    1    3    3    0    0  0.65472395575E+02 -0.40837162331E+01 -0.41583631861E+02  0.77669233030E+02  0.00000000000E+00 0. -1.
        -11    1    3    3    0    0  0.53466753093E+03  0.14796036236E+03 -0.16154050776E+03  0.57780357658E+03  0.00000000000E+00 0.  1.
         22    1    1    2    0    0 -0.60013992651E+03 -0.14387664613E+03  0.48617788156E+03  0.78564454635E+03  0.00000000000E+00 0.  1.
<mgrwt>
<rscale>  0 0.14130463E+04</rscale>
<asrwt>0</asrwt>
<pdfrwt beam="1">  1        1 0.89081817E-01 0.14130463E+04</pdfrwt>
<pdfrwt beam="2">  1       -1 0.13262855E+00 0.14130463E+04</pdfrwt>
<totfact> 0.16929924E+01</totfact>
</mgrwt>
</event>
<event>
 6    1  0.8968082E-007  0.2558510E+04  0.7818608E-02  0.8382433E-01
         -1   -1    0    0    0  501 -0.00000000000E+00  0.00000000000E+00  0.72621458268E+03  0.72621458268E+03  0.00000000000E+00 0.  1.
          1   -1    0    0  501    0  0.00000000000E+00 -0.00000000000E+00 -0.22534561916E+04  0.22534561916E+04  0.00000000000E+00 0. -1.
         23    2    1    2    0    0  0.15559231366E+03 -0.18213851132E+03 -0.22261498833E+04  0.22408499696E+04  0.91004824563E+02 0.  0.
         11    1    3    3    0    0  0.49024448672E+02 -0.26548337168E+02 -0.85166441852E+03  0.85348725389E+03  0.00000000000E+00 0.  1.
        -11    1    3    3    0    0  0.10656786499E+03 -0.15559017415E+03 -0.13744854648E+04  0.13873627157E+04  0.00000000000E+00 0. -1.
         22    1    1    2    0    0 -0.15559231366E+03  0.18213851132E+03  0.69890827439E+03  0.73882080465E+03  0.00000000000E+00 0.  1.
<mgrwt>
<rscale>  0 0.25585095E+04</rscale>
<asrwt>0</asrwt>
<pdfrwt beam="1">  1        1 0.34668557E+00 0.25585095E+04</pdfrwt>
<pdfrwt beam="2">  1       -1 0.11172532E+00 0.25585095E+04</pdfrwt>
<totfact> 0.13017005E+00</totfact>
</mgrwt>
</event>
<event>
 6    1  0.8968082E-007  0.9217376E+03  0.7818608E-02  0.9398809E-01
         -2   -1    0    0    0  501 -0.00000000000E+00  0.00000000000E+00  0.81592453156E+03  0.81592453156E+03  0.00000000000E+00 0.  1.
          2   -1    0    0  501    0  0.00000000000E+00 -0.00000000000E+00 -0.26031827546E+03  0.26031827546E+03  0.00000000000E+00 0. -1.
         23    2    1    2    0    0 -0.26081301052E+03  0.62447117924E+02 -0.15065250191E+03  0.32077970252E+03  0.90996550630E+02 0.  0.
         11    1    3    3    0    0 -0.63524034293E+02 -0.42880313430E+01 -0.76900029830E+02  0.99836389826E+02  0.00000000000E+00 0.  1.
        -11    1    3    3    0    0 -0.19728897622E+03  0.66735149267E+02 -0.73752472080E+02  0.22094331270E+03  0.00000000000E+00 0. -1.
         22    1    1    2    0    0  0.26081301052E+03 -0.62447117924E+02  0.70625875801E+03  0.75546310450E+03  0.00000000000E+00 0.  1.
<mgrwt>
<rscale>  0 0.92173764E+03</rscale>
<asrwt>0</asrwt>
<pdfrwt beam="1">  1        2 0.40048966E-01 0.92173764E+03</pdfrwt>
<pdfrwt beam="2">  1       -2 0.12552685E+00 0.92173764E+03</pdfrwt>
<totfact> 0.61131090E+01</totfact>
</mgrwt>
</event>
<event>
 6    1  0.8968082E-007  0.4467433E+04  0.7818608E-02  0.7916363E-01
         -1   -1    0    0    0  501 -0.00000000000E+00  0.00000000000E+00  0.20078750996E+04  0.20078750996E+04  0.00000000000E+00 0.  1.
          1   -1    0    0  501    0  0.00000000000E+00 -0.00000000000E+00 -0.24849604030E+04  0.24849604030E+04  0.00000000000E+00 0. -1.
         23    2    1    2    0    0  0.76134596425E+03  0.18886058753E+04 -0.11593531912E+04  0.23452858989E+04  0.98925711961E+02 0.  0.
         11    1    3    3    0    0  0.63797369584E+03  0.14745074222E+04 -0.91302324176E+03  0.18479161276E+04  0.00000000000E+00 0.  1.
        -11    1    3    3    0    0  0.12337226842E+03  0.41409845308E+03 -0.24632994940E+03  0.49736977133E+03  0.00000000000E+00 0. -1.
         22    1    1    2    0    0 -0.76134596425E+03 -0.18886058753E+04  0.68226788772E+03  0.21475496036E+04  0.00000000000E+00 0.  1.
<mgrwt>
<rscale>  0 0.44674333E+04</rscale>
<asrwt>0</asrwt>
<pdfrwt beam="1">  1        1 0.38230160E+00 0.44674333E+04</pdfrwt>
<pdfrwt beam="2">  1       -1 0.30890386E+00 0.44674333E+04</pdfrwt>
<totfact> 0.30224828E-02</totfact>
</mgrwt>
</event>
<event>
 6    1  0.8968082E-007  0.4434691E+04  0.7818608E-02  0.7922171E-01
          1   -1    0    0  501    0  0.00000000000E+00  0.00000000000E+00  0.17480923817E+04  0.17480923817E+04  0.00000000000E+00 0. -1.
         -1   -1    0    0    0  501 -0.00000000000E+00 -0.00000000000E+00 -0.28125633965E+04  0.28125633965E+04  0.00000000000E+00 0.  1.
         23    2    1    2    0    0 -0.25513441154E+03 -0.21942265765E+04 -0.71879218253E+03  0.23247627369E+04  0.90198360744E+02 0.  0.
         11    1    3    3    0    0 -0.12640971859E+03 -0.10228321762E+04 -0.38205131175E+03  0.10991488900E+04  0.00000000000E+00 0. -1.
        -11    1    3    3    0    0 -0.12872469295E+03 -0.11713944003E+04 -0.33674087079E+03  0.12256138469E+04  0.00000000000E+00 0.  1.
         22    1    1    2    0    0  0.25513441154E+03  0.21942265765E+04 -0.34567883223E+03  0.22358930413E+04  0.00000000000E+00 0.  1.
<mgrwt>
<rscale>  0 0.44346908E+04</rscale>
<asrwt>0</asrwt>
<pdfrwt beam="1">  1        1 0.26893729E+00 0.44346908E+04</pdfrwt>
<pdfrwt beam="2">  1       -1 0.43270206E+00 0.44346908E+04</pdfrwt>
<totfact> 0.14227382E-02</totfact>
</mgrwt>
</event>
<event>
 6    1  0.8968082E-007  0.1797703E+04  0.7818608E-02  0.8707522E-01
         -2   -1    0    0    0  501 -0.00000000000E+00  0.00000000000E+00  0.15301200476E+04  0.15301200476E+04  0.00000000000E+00 0.  1.
          2   -1    0    0  501    0  0.00000000000E+00 -0.00000000000E+00 -0.52802016195E+03  0.52802016195E+03  0.00000000000E+00 0. -1.
         23    2    1    2    0    0  0.40221160712E+03  0.80082241168E+03  0.46941403025E+03  0.10156216570E+04  0.89705665147E+02 0.  0.
         13    1    3    3    0    0  0.33606678040E+03  0.61398021441E+03  0.33376436752E+03  0.77544260755E+03  0.00000000000E+00 0.  1.
        -13    1    3    3    0    0  0.66144826723E+02  0.18684219727E+03  0.13564966273E+03  0.24017904942E+03  0.00000000000E+00 0. -1.
         22    1    1    2    0    0 -0.40221160712E+03 -0.80082241168E+03  0.53268585543E+03  0.10425185526E+04  0.00000000000E+00 0. -1.
<mgrwt>
<rscale>  0 0.17977032E+04</rscale>
<asrwt>0</asrwt>
<pdfrwt beam="1">  1        2 0.81233872E-01 0.17977032E+04</pdfrwt>
<pdfrwt beam="2">  1       -2 0.23540308E+00 0.17977032E+04</pdfrwt>
<totfact> 0.43135154E+00</totfact>
</mgrwt>
</event>
<event>
 6    1  0.8968082E-007  0.1170006E+04  0.7818608E-02  0.9139523E-01
          2   -1    0    0  501    0  0.00000000000E+00  0.00000000000E+00  0.14635709831E+04  0.14635709831E+04  0.00000000000E+00 0. -1.
         -2   -1    0    0    0  501 -0.00000000000E+00 -0.00000000000E+00 -0.23383109400E+03  0.23383109400E+03  0.00000000000E+00 0.  1.
         23    2    1    2    0    0  0.40221734808E+03 -0.31494909983E+03  0.21513683817E+03  0.56144825694E+03  0.89266765946E+02 0.  0.
         13    1    3    3    0    0  0.36262280127E+03 -0.25468498587E+03  0.20632476122E+03  0.48880430146E+03  0.00000000000E+00 0.  1.
        -13    1    3    3    0    0  0.39594546808E+02 -0.60264113956E+02  0.88120769523E+01  0.72643955482E+02  0.00000000000E+00 0. -1.
         22    1    1    2    0    0 -0.40221734808E+03  0.31494909983E+03  0.10146030510E+04  0.11359538202E+04  0.00000000000E+00 0. -1.
<mgrwt>
<rscale>  0 0.11700058E+04</rscale>
<asrwt>0</asrwt>
<pdfrwt beam="1">  1        2 0.22516476E+00 0.11700058E+04</pdfrwt>
<pdfrwt beam="2">  1       -2 0.35974015E-01 0.11700058E+04</pdfrwt>
<totfact> 0.95578545E+01</totfact>
</mgrwt>
</event>
<event>
 6    1  0.8968082E-007  0.2247770E+04  0.7818608E-02  0.8498804E-01
         -1   -1    0    0    0  501 -0.00000000000E+00  0.00000000000E+00  0.57301476239E+03  0.57301476239E+03  0.00000000000E+00 0.  1.
          1   -1    0    0  501    0  0.00000000000E+00 -0.00000000000E+00 -0.22043364261E+04  0.22043364261E+04  0.00000000000E+00 0. -1.
         23    2    1    2    0    0 -0.51947045556E+03  0.96538442893E+03 -0.51872231901E+03  0.12153992201E+04  0.79408879443E+02 0.  0.
         13    1    3    3    0    0 -0.18435592474E+03  0.36324730662E+03 -0.23407375874E+03  0.46981510968E+03  0.00000000000E+00 0. -1.
        -13    1    3    3    0    0 -0.33511453082E+03  0.60213712231E+03 -0.28464856027E+03  0.74558411041E+03  0.00000000000E+00 0.  1.
         22    1    1    2    0    0  0.51947045556E+03 -0.96538442893E+03 -0.11125993447E+04  0.15619519684E+04  0.00000000000E+00 0. -1.
<mgrwt>
<rscale>  0 0.22477698E+04</rscale>
<asrwt>0</asrwt>
<pdfrwt beam="1">  1        1 0.33912868E+00 0.22477698E+04</pdfrwt>
<pdfrwt beam="2">  1       -1 0.88156118E-01 0.22477698E+04</pdfrwt>
<totfact> 0.24833934E+00</totfact>
</mgrwt>
</event>
<event>
 6    1  0.1185151E-006  0.2484291E+04  0.7818608E-02  0.8408603E-01
          2   -1    0    0  501    0  0.00000000000E+00  0.00000000000E+00  0.20473530449E+04  0.20473530449E+04  0.00000000000E+00 0. -1.
         -2   -1    0    0    0  501 -0.00000000000E+00 -0.00000000000E+00 -0.75361971879E+03  0.75361971879E+03  0.00000000000E+00 0.  1.
         23    2    1    2    0    0 -0.28093427387E+03 -0.54669059209E+03  0.18625833118E+04  0.19634854646E+04  0.90906031732E+02 0.  0.
         13    1    3    3    0    0 -0.99458253952E+02 -0.22995777903E+03  0.63026562469E+03  0.67823836671E+03  0.00000000000E+00 0. -1.
        -13    1    3    3    0    0 -0.18147601992E+03 -0.31673281306E+03  0.12323176872E+04  0.12852470979E+04  0.00000000000E+00 0.  1.
         22    1    1    2    0    0  0.28093427387E+03  0.54669059209E+03 -0.56884998576E+03  0.83748729901E+03  0.00000000000E+00 0.  1.
<mgrwt>
<rscale>  0 0.24842911E+04</rscale>
<asrwt>0</asrwt>
<pdfrwt beam="1">  1        2 0.31497739E+00 0.24842911E+04</pdfrwt>
<pdfrwt beam="2">  1       -2 0.11594150E+00 0.24842911E+04</pdfrwt>
<totfact> 0.32453269E+00</totfact>
</mgrwt>
</event>
<event>
 6    1  0.8968082E-007  0.3788736E+04  0.7818608E-02  0.8048576E-01
         -2   -1    0    0    0  501 -0.00000000000E+00  0.00000000000E+00  0.20830045357E+04  0.20830045357E+04  0.00000000000E+00 0.  1.
          2   -1    0    0  501    0  0.00000000000E+00 -0.00000000000E+00 -0.17228141222E+04  0.17228141222E+04  0.00000000000E+00 0. -1.
         23    2    1    2    0    0  0.51123666822E+03  0.18137326826E+04 -0.35418684231E+01  0.18866286340E+04  0.91465200238E+02 0.  0.
         11    1    3    3    0    0  0.40637132826E+03  0.13348122602E+04  0.25105545702E+02  0.13955256053E+04  0.00000000000E+00 0.  1.
        -11    1    3    3    0    0  0.10486533996E+03  0.47892042237E+03 -0.28647414125E+02  0.49110302872E+03  0.00000000000E+00 0. -1.
         22    1    1    2    0    0 -0.51123666822E+03 -0.18137326826E+04  0.36373228188E+03  0.19191900239E+04  0.00000000000E+00 0. -1.
<mgrwt>
<rscale>  0 0.37887357E+04</rscale>
<asrwt>0</asrwt>
<pdfrwt beam="1">  1        2 0.26504833E+00 0.37887357E+04</pdfrwt>
<pdfrwt beam="2">  1       -2 0.32046224E+00 0.37887357E+04</pdfrwt>
<totfact> 0.18180031E-01</totfact>
</mgrwt>
</event>
<event>
 6    1  0.8968082E-007  0.1193042E+04  0.7818608E-02  0.9118969E-01
         -2   -1    0    0    0  501 -0.00000000000E+00  0.00000000000E+00  0.22284518777E+03  0.22284518777E+03  0.00000000000E+00 0.  1.
          2   -1    0    0  501    0  0.00000000000E+00 -0.00000000000E+00 -0.15967914814E+04  0.15967914814E+04  0.00000000000E+00 0. -1.
         23    2    1    2    0    0  0.14429779605E+03  0.40818260815E+03 -0.13090350912E+04  0.13818600598E+04  0.92355071403E+02 0.  0.
         13    1    3    3    0    0  0.14560547191E+02  0.17621183525E+03 -0.51010466001E+03  0.53987904625E+03  0.00000000000E+00 0. -1.
        -13    1    3    3    0    0  0.12973724886E+03  0.23197077290E+03 -0.79893043120E+03  0.84198101351E+03  0.00000000000E+00 0.  1.
         22    1    1    2    0    0 -0.14429779605E+03 -0.40818260815E+03 -0.64911202417E+02  0.43777660940E+03  0.00000000000E+00 0.  1.
<mgrwt>
<rscale>  0 0.11930420E+04</rscale>
<asrwt>0</asrwt>
<pdfrwt beam="1">  1        2 0.24566022E+00 0.11930420E+04</pdfrwt>
<pdfrwt beam="2">  1       -2 0.34283876E-01 0.11930420E+04</pdfrwt>
<totfact> 0.88064863E+01</totfact>
</mgrwt>
</event>
<event>
 6    1  0.8968082E-007  0.1900679E+04  0.7818608E-02  0.8654518E-01
          1   -1    0    0  501    0  0.00000000000E+00  0.00000000000E+00  0.11189819521E+04  0.11189819521E+04  0.00000000000E+00 0. -1.
         -1   -1    0    0    0  501 -0.00000000000E+00 -0.00000000000E+00 -0.80711358325E+03  0.80711358325E+03  0.00000000000E+00 0.  1.
         23    2    1    2    0    0 -0.60526215980E+03  0.35371798998E+03  0.80322180278E+03  0.10700073999E+04  0.91059721883E+02 0.  0.
         13    1    3    3    0    0 -0.34459435038E+03  0.21274947541E+03  0.39638243372E+03  0.56668036790E+03  0.00000000000E+00 0. -1.
        -13    1    3    3    0    0 -0.26066780942E+03  0.14096851457E+03  0.40683936907E+03  0.50332703205E+03  0.00000000000E+00 0.  1.
         22    1    1    2    0    0  0.60526215980E+03 -0.35371798998E+03 -0.49135343394E+03  0.85608813540E+03  0.00000000000E+00 0.  1.
<mgrwt>
<rscale>  0 0.19006794E+04</rscale>
<asrwt>0</asrwt>
<pdfrwt beam="1">  1        1 0.17215107E+00 0.19006794E+04</pdfrwt>
<pdfrwt beam="2">  1       -1 0.12417132E+00 0.19006794E+04</pdfrwt>
<totfact> 0.65316425E+00</totfact>
</mgrwt>
</event>
<event>
 6    1  0.8968082E-007  0.1205051E+04  0.7818608E-02  0.9108447E-01
         -2   -1    0    0    0  501 -0.00000000000E+00  0.00000000000E+00  0.22792288882E+03  0.22792288882E+03  0.00000000000E+00 0.  1.
          2   -1    0    0  501    0  0.00000000000E+00 -0.00000000000E+00 -0.15928068381E+04  0.15928068381E+04  0.00000000000E+00 0. -1.
         23    2    1    2    0    0  0.13998069682E+03 -0.58239089587E+03 -0.68314719827E+03  0.91323936954E+03  0.92424566512E+02 0.  0.
         11    1    3    3    0    0  0.60555879722E+02 -0.12312299570E+03 -0.19371113757E+03  0.23738216331E+03  0.00000000000E+00 0. -1.
        -11    1    3    3    0    0  0.79424817103E+02 -0.45926790017E+03 -0.48943606070E+03  0.67585720623E+03  0.00000000000E+00 0.  1.
         22    1    1    2    0    0 -0.13998069682E+03  0.58239089587E+03 -0.68173675103E+03  0.90749035741E+03  0.00000000000E+00 0. -1.
<mgrwt>
<rscale>  0 0.12050513E+04</rscale>
<asrwt>0</asrwt>
<pdfrwt beam="1">  1        2 0.24504721E+00 0.12050513E+04</pdfrwt>
<pdfrwt beam="2">  1       -2 0.35065059E-01 0.12050513E+04</pdfrwt>
<totfact> 0.84719692E+01</totfact>
</mgrwt>
</event>
<event>
 6    1  0.8968082E-007  0.1471432E+04  0.7818608E-02  0.8903676E-01
          2   -1    0    0  501    0  0.00000000000E+00  0.00000000000E+00  0.10112012585E+04  0.10112012585E+04  0.00000000000E+00 0. -1.
         -2   -1    0    0    0  501 -0.00000000000E+00 -0.00000000000E+00 -0.53528194078E+03  0.53528194078E+03  0.00000000000E+00 0.  1.
         23    2    1    2    0    0 -0.17741739920E+02 -0.27664577906E+03  0.95205727523E+03  0.99552493327E+03  0.88369570708E+02 0.  0.
         13    1    3    3    0    0  0.34441929849E+02 -0.11957795709E+03  0.45008289010E+03  0.46696867380E+03  0.00000000000E+00 0. -1.
        -13    1    3    3    0    0 -0.52183669769E+02 -0.15706782197E+03  0.50197438513E+03  0.52855625947E+03  0.00000000000E+00 0.  1.
         22    1    1    2    0    0  0.17741739920E+02  0.27664577906E+03 -0.47613795746E+03  0.55095826607E+03  0.00000000000E+00 0.  1.
<mgrwt>
<rscale>  0 0.14714316E+04</rscale>
<asrwt>0</asrwt>
<pdfrwt beam="1">  1        2 0.15556942E+00 0.14714316E+04</pdfrwt>
<pdfrwt beam="2">  1       -2 0.82351068E-01 0.14714316E+04</pdfrwt>
<totfact> 0.31066815E+01</totfact>
</mgrwt>
</event>
<event>
 6    1  0.8968082E-007  0.5028455E+04  0.7818608E-02  0.7824133E-01
          1   -1    0    0  501    0  0.00000000000E+00  0.00000000000E+00  0.33351419592E+04  0.33351419592E+04  0.00000000000E+00 0. -1.
         -1   -1    0    0    0  501 -0.00000000000E+00 -0.00000000000E+00 -0.18953735341E+04  0.18953735341E+04  0.00000000000E+00 0.  1.
         23    2    1    2    0    0  0.12559829340E+02  0.12899161307E+04  0.29639084716E+04  0.32337570564E+04  0.91596389961E+02 0.  0.
         13    1    3    3    0    0  0.33589644853E+02  0.53564267671E+03  0.13204634367E+04  0.14253648757E+04  0.00000000000E+00 0.  1.
        -13    1    3    3    0    0 -0.21029815513E+02  0.75427345401E+03  0.16434450349E+04  0.18083921807E+04  0.00000000000E+00 0. -1.
         22    1    1    2    0    0 -0.12559829340E+02 -0.12899161307E+04 -0.15241400466E+04  0.19967584369E+04  0.00000000000E+00 0.  1.
<mgrwt>
<rscale>  0 0.50284550E+04</rscale>
<asrwt>0</asrwt>
<pdfrwt beam="1">  1        1 0.51309876E+00 0.50284550E+04</pdfrwt>
<pdfrwt beam="2">  1       -1 0.29159593E+00 0.50284550E+04</pdfrwt>
<totfact> 0.90471687E-03</totfact>
</mgrwt>
</event>
<event>
 6    1  0.8968082E-007  0.7498738E+03  0.7818608E-02  0.9635548E-01
          1   -1    0    0  501    0  0.00000000000E+00  0.00000000000E+00  0.75466870559E+02  0.75466870559E+02  0.00000000000E+00 0. -1.
         -1   -1    0    0    0  501 -0.00000000000E+00 -0.00000000000E+00 -0.18627732172E+04  0.18627732172E+04  0.00000000000E+00 0.  1.
         23    2    1    2    0    0  0.34389720622E+03 -0.11154187371E+03 -0.71096433488E+03  0.80280228483E+03  0.91183030354E+02 0.  0.
         13    1    3    3    0    0  0.18661497786E+03 -0.53849938455E+02 -0.28322866189E+03  0.34342894571E+03  0.00000000000E+00 0. -1.
        -13    1    3    3    0    0  0.15728222836E+03 -0.57691935250E+02 -0.42773567299E+03  0.45937333912E+03  0.00000000000E+00 0.  1.
         22    1    1    2    0    0 -0.34389720622E+03  0.11154187371E+03 -0.10763420118E+04  0.11354378029E+04  0.00000000000E+00 0.  1.
<mgrwt>
<rscale>  0 0.74987376E+03</rscale>
<asrwt>0</asrwt>
<pdfrwt beam="1">  1        1 0.11610289E-01 0.74987376E+03</pdfrwt>
<pdfrwt beam="2">  1       -1 0.28658046E+00 0.74987376E+03</pdfrwt>
<totfact> 0.22905752E+01</totfact>
</mgrwt>
</event>
<event>
 6    1  0.8968082E-007  0.3981910E+04  0.7818608E-02  0.8008206E-01
          1   -1    0    0  501    0  0.00000000000E+00  0.00000000000E+00  0.21339899272E+04  0.21339899272E+04  0.00000000000E+00 0. -1.
         -1   -1    0    0    0  501 -0.00000000000E+00 -0.00000000000E+00 -0.18575074197E+04  0.18575074197E+04  0.00000000000E+00 0.  1.
         23    2    1    2    0    0  0.10810836726E+04  0.10559965380E+04  0.14359858784E+04  0.20866827463E+04  0.91207704901E+02 0.  0.
         13    1    3    3    0    0  0.94264460343E+03  0.88534419696E+03  0.12539291838E+04  0.18013194035E+04  0.00000000000E+00 0. -1.
        -13    1    3    3    0    0  0.13843906917E+03  0.17065234107E+03  0.18205669456E+03  0.28536334281E+03  0.00000000000E+00 0.  1.
         22    1    1    2    0    0 -0.10810836726E+04 -0.10559965380E+04 -0.11595033708E+04  0.19048146005E+04  0.00000000000E+00 0.  1.
<mgrwt>
<rscale>  0 0.39819102E+04</rscale>
<asrwt>0</asrwt>
<pdfrwt beam="1">  1        1 0.32830614E+00 0.39819102E+04</pdfrwt>
<pdfrwt beam="2">  1       -1 0.28577037E+00 0.39819102E+04</pdfrwt>
<totfact> 0.77345677E-02</totfact>
</mgrwt>
</event>
<event>
 6    1  0.8968082E-007  0.2553294E+04  0.7818608E-02  0.8384241E-01
          2   -1    0    0  501    0  0.00000000000E+00  0.00000000000E+00  0.31620154985E+04  0.31620154985E+04  0.00000000000E+00 0. -1.
         -2   -1    0    0    0  501 -0.00000000000E+00 -0.00000000000E+00 -0.51543946203E+03  0.51543946203E+03  0.00000000000E+00 0.  1.
         23    2    1    2    0    0 -0.93334869532E+03 -0.63448003727E+03  0.47173313313E+03  0.12272210209E+04  0.99169453266E+02 0.  0.
         11    1    3    3    0    0 -0.48962989923E+03 -0.38016780918E+03  0.29099005413E+03  0.68479209470E+03  0.00000000000E+00 0.  1.
        -11    1    3    3    0    0 -0.44371879609E+03 -0.25431222809E+03  0.18074307900E+03  0.54242892619E+03  0.00000000000E+00 0. -1.
         22    1    1    2    0    0  0.93334869532E+03  0.63448003727E+03  0.21748429033E+04  0.24502339396E+04  0.00000000000E+00 0. -1.
<mgrwt>
<rscale>  0 0.25532940E+04</rscale>
<asrwt>0</asrwt>
<pdfrwt beam="1">  1        2 0.48646391E+00 0.25532940E+04</pdfrwt>
<pdfrwt beam="2">  1       -2 0.79298381E-01 0.25532940E+04</pdfrwt>
<totfact> 0.17190279E+00</totfact>
</mgrwt>
</event>
<event>
 6    1  0.8968082E-007  0.3751704E+04  0.7818608E-02  0.8056599E-01
         -1   -1    0    0    0  501 -0.00000000000E+00  0.00000000000E+00  0.23297015669E+04  0.23297015669E+04  0.00000000000E+00 0.  1.
          1   -1    0    0  501    0  0.00000000000E+00 -0.00000000000E+00 -0.15104166056E+04  0.15104166056E+04  0.00000000000E+00 0. -1.
         23    2    1    2    0    0  0.37977440794E+03 -0.11759564820E+04 -0.10331422639E+04  0.16133292572E+04  0.91357027672E+02 0.  0.
         13    1    3    3    0    0  0.19549160372E+03 -0.73545426047E+03 -0.65999734775E+03  0.10073263798E+04  0.00000000000E+00 0.  1.
        -13    1    3    3    0    0  0.18428280422E+03 -0.44050222150E+03 -0.37314491611E+03  0.60600287746E+03  0.00000000000E+00 0. -1.
         22    1    1    2    0    0 -0.37977440794E+03  0.11759564820E+04  0.18524272251E+04  0.22267889152E+04  0.00000000000E+00 0.  1.
<mgrwt>
<rscale>  0 0.37517036E+04</rscale>
<asrwt>0</asrwt>
<pdfrwt beam="1">  1        1 0.23237178E+00 0.37517036E+04</pdfrwt>
<pdfrwt beam="2">  1       -1 0.35841563E+00 0.37517036E+04</pdfrwt>
<totfact> 0.70170779E-02</totfact>
</mgrwt>
</event>
<event>
 6    1  0.8968082E-007  0.2304881E+04  0.7818608E-02  0.8475999E-01
         -2   -1    0    0    0  501 -0.00000000000E+00  0.00000000000E+00  0.94005777386E+03  0.94005777386E+03  0.00000000000E+00 0.  1.
          2   -1    0    0  501    0  0.00000000000E+00 -0.00000000000E+00 -0.14128064359E+04  0.14128064359E+04  0.00000000000E+00 0. -1.
         23    2    1    2    0    0  0.81372236777E+03 -0.77720072836E+03 -0.48180366037E+03  0.12275788873E+04  0.92898296254E+02 0.  0.
         11    1    3    3    0    0  0.51858776672E+03 -0.43818681734E+03 -0.31049589496E+03  0.74655787416E+03  0.00000000000E+00 0.  1.
        -11    1    3    3    0    0  0.29513460105E+03 -0.33901391102E+03 -0.17130776541E+03  0.48102101315E+03  0.00000000000E+00 0. -1.
         22    1    1    2    0    0 -0.81372236777E+03  0.77720072836E+03  0.90549983069E+01  0.11252853225E+04  0.00000000000E+00 0. -1.
<mgrwt>
<rscale>  0 0.23048815E+04</rscale>
<asrwt>0</asrwt>
<pdfrwt beam="1">  1        2 0.21735484E+00 0.23048815E+04</pdfrwt>
<pdfrwt beam="2">  1       -2 0.14462427E+00 0.23048815E+04</pdfrwt>
<totfact> 0.42548527E+00</totfact>
</mgrwt>
</event>
<event>
 6    1  0.8968082E-007  0.3961731E+04  0.7818608E-02  0.8012311E-01
         -1   -1    0    0    0  501 -0.00000000000E+00  0.00000000000E+00  0.22361619954E+04  0.22361619954E+04  0.00000000000E+00 0.  1.
          1   -1    0    0  501    0  0.00000000000E+00 -0.00000000000E+00 -0.17547158680E+04  0.17547158680E+04  0.00000000000E+00 0. -1.
         23    2    1    2    0    0 -0.14912290550E+04  0.20037388825E+03  0.15370427455E+04  0.21528903744E+04  0.92318868326E+02 0.  0.
         11    1    3    3    0    0 -0.42315725575E+03  0.82993533199E+02  0.39420314314E+03  0.58424832709E+03  0.00000000000E+00 0. -1.
        -11    1    3    3    0    0 -0.10680717992E+04  0.11738035505E+03  0.11428396023E+04  0.15686420473E+04  0.00000000000E+00 0.  1.
         22    1    1    2    0    0  0.14912290550E+04 -0.20037388825E+03 -0.10555966181E+04  0.18379874890E+04  0.00000000000E+00 0. -1.
<mgrwt>
<rscale>  0 0.39617314E+04</rscale>
<asrwt>0</asrwt>
<pdfrwt beam="1">  1        1 0.26995629E+00 0.39617314E+04</pdfrwt>
<pdfrwt beam="2">  1       -1 0.34402492E+00 0.39617314E+04</pdfrwt>
<totfact> 0.58421669E-02</totfact>
</mgrwt>
</event>
<event>
 6    1  0.8968082E-007  0.1448601E+04  0.7818608E-02  0.8919371E-01
          2   -1    0    0  501    0  0.00000000000E+00  0.00000000000E+00  0.21664568366E+04  0.21664568366E+04  0.00000000000E+00 0. -1.
         -2   -1    0    0    0  501 -0.00000000000E+00 -0.00000000000E+00 -0.24215154481E+03  0.24215154481E+03  0.00000000000E+00 0.  1.
         23    2    1    2    0    0 -0.24188414980E+03 -0.47499500918E+03  0.17743060177E+04  0.18548683856E+04  0.90811247984E+02 0.  0.
         13    1    3    3    0    0 -0.47326506114E+02 -0.18415462802E+03  0.58147004661E+03  0.61176804453E+03  0.00000000000E+00 0.  1.
        -13    1    3    3    0    0 -0.19455764369E+03 -0.29084038116E+03  0.11928359711E+04  0.12431003411E+04  0.00000000000E+00 0. -1.
         22    1    1    2    0    0  0.24188414980E+03  0.47499500918E+03  0.14999927400E+03  0.55373999574E+03  0.00000000000E+00 0.  1.
<mgrwt>
<rscale>  0 0.14486005E+04</rscale>
<asrwt>0</asrwt>
<pdfrwt beam="1">  1        2 0.33330104E+00 0.14486005E+04</pdfrwt>
<pdfrwt beam="2">  1       -2 0.37254085E-01 0.14486005E+04</pdfrwt>
<totfact> 0.35572956E+01</totfact>
</mgrwt>
</event>
<event>
 6    1  0.8968082E-007  0.2972390E+04  0.7818608E-02  0.8251659E-01
          1   -1    0    0  501    0  0.00000000000E+00  0.00000000000E+00  0.10868839047E+04  0.10868839047E+04  0.00000000000E+00 0. -1.
         -1   -1    0    0    0  501 -0.00000000000E+00 -0.00000000000E+00 -0.20322098621E+04  0.20322098621E+04  0.00000000000E+00 0.  1.
         23    2    1    2    0    0 -0.12371457592E+04  0.48119891030E+03  0.22438677129E+03  0.13498255880E+04  0.97967718882E+02 0.  0.
         11    1    3    3    0    0 -0.80598683133E+03  0.26297251123E+03  0.14177787379E+03  0.85957563916E+03  0.00000000000E+00 0. -1.
        -11    1    3    3    0    0 -0.43115892790E+03  0.21822639907E+03  0.82608897510E+02  0.49024994881E+03  0.00000000000E+00 0.  1.
         22    1    1    2    0    0  0.12371457592E+04 -0.48119891030E+03 -0.11697127287E+04  0.17692681788E+04  0.00000000000E+00 0.  1.
<mgrwt>
<rscale>  0 0.29723904E+04</rscale>
<asrwt>0</asrwt>
<pdfrwt beam="1">  1        1 0.16721291E+00 0.29723904E+04</pdfrwt>
<pdfrwt beam="2">  1       -1 0.31264767E+00 0.29723904E+04</pdfrwt>
<totfact> 0.30238439E-01</totfact>
</mgrwt>
</event>
<event>
 6    1  0.8968082E-007  0.3114898E+04  0.7818608E-02  0.8211661E-01
          2   -1    0    0  501    0  0.00000000000E+00  0.00000000000E+00  0.41546547277E+04  0.41546547277E+04  0.00000000000E+00 0. -1.
         -2   -1    0    0    0  501 -0.00000000000E+00 -0.00000000000E+00 -0.58383844738E+03  0.58383844738E+03  0.00000000000E+00 0.  1.
         23    2    1    2    0    0  0.11577447916E+04 -0.13902641209E+03  0.21960786731E+03  0.11902120175E+04  0.93143359655E+02 0.  0.
         11    1    3    3    0    0  0.88631358074E+03 -0.14245110363E+03  0.18512119988E+03  0.91657729569E+03  0.00000000000E+00 0.  1.
        -11    1    3    3    0    0  0.27143121087E+03  0.34246915442E+01  0.34486667421E+02  0.27363472181E+03  0.00000000000E+00 0. -1.
         22    1    1    2    0    0 -0.11577447916E+04  0.13902641209E+03  0.33512084131E+04  0.35482811576E+04  0.00000000000E+00 0. -1.
<mgrwt>
<rscale>  0 0.31148979E+04</rscale>
<asrwt>0</asrwt>
<pdfrwt beam="1">  1        2 0.63917763E+00 0.31148979E+04</pdfrwt>
<pdfrwt beam="2">  1       -2 0.89821302E-01 0.31148979E+04</pdfrwt>
<totfact> 0.22872711E-01</totfact>
</mgrwt>
</event>
<event>
 6    1  0.8968082E-007  0.1104062E+04  0.7818608E-02  0.9201242E-01
         -2   -1    0    0    0  501 -0.00000000000E+00  0.00000000000E+00  0.29367503110E+03  0.29367503110E+03  0.00000000000E+00 0.  1.
          2   -1    0    0  501    0  0.00000000000E+00 -0.00000000000E+00 -0.10376719299E+04  0.10376719299E+04  0.00000000000E+00 0. -1.
         23    2    1    2    0    0  0.31444098859E+03  0.23651992800E+03 -0.83500593511E+03  0.92749370007E+03  0.90525357547E+02 0.  0.
         11    1    3    3    0    0  0.14799599633E+03  0.15544644267E+03 -0.38296918978E+03  0.43901231394E+03  0.00000000000E+00 0. -1.
        -11    1    3    3    0    0  0.16644499226E+03  0.81073485332E+02 -0.45203674533E+03  0.48848138613E+03  0.00000000000E+00 0.  1.
         22    1    1    2    0    0 -0.31444098859E+03 -0.23651992800E+03  0.91009036346E+02  0.40385326090E+03  0.00000000000E+00 0.  1.
<mgrwt>
<rscale>  0 0.11040622E+04</rscale>
<asrwt>0</asrwt>
<pdfrwt beam="1">  1        2 0.15964184E+00 0.11040622E+04</pdfrwt>
<pdfrwt beam="2">  1       -2 0.45180774E-01 0.11040622E+04</pdfrwt>
<totfact> 0.10984800E+02</totfact>
</mgrwt>
</event>
<event>
 6    1  0.8968082E-007  0.2579627E+04  0.7818608E-02  0.8375154E-01
         -2   -1    0    0    0  501 -0.00000000000E+00  0.00000000000E+00  0.72683611745E+03  0.72683611745E+03  0.00000000000E+00 0.  1.
          2   -1    0    0  501    0  0.00000000000E+00 -0.00000000000E+00 -0.22888505188E+04  0.22888505188E+04  0.00000000000E+00 0. -1.
         23    2    1    2    0    0  0.33236888635E+03  0.11522062705E+04 -0.13315896399E+04  0.17945625897E+04  0.96309672834E+02 0.  0.
         13    1    3    3    0    0  0.25065057105E+03  0.85771066772E+03 -0.92765106284E+03  0.12880333042E+04  0.00000000000E+00 0. -1.
        -13    1    3    3    0    0  0.81718315291E+02  0.29449560274E+03 -0.40393857701E+03  0.50652928552E+03  0.00000000000E+00 0.  1.
         22    1    1    2    0    0 -0.33236888635E+03 -0.11522062705E+04 -0.23042476149E+03  0.12211240465E+04  0.00000000000E+00 0. -1.
<mgrwt>
<rscale>  0 0.25796273E+04</rscale>
<asrwt>0</asrwt>
<pdfrwt beam="1">  1        2 0.35213084E+00 0.25796273E+04</pdfrwt>
<pdfrwt beam="2">  1       -2 0.11182094E+00 0.25796273E+04</pdfrwt>
<totfact> 0.25729518E+00</totfact>
</mgrwt>
</event>
<event>
 6    1  0.8968082E-007  0.4506322E+04  0.7818608E-02  0.7909531E-01
          2   -1    0    0  501    0  0.00000000000E+00  0.00000000000E+00  0.22470911839E+04  0.22470911839E+04  0.00000000000E+00 0. -1.
         -2   -1    0    0    0  501 -0.00000000000E+00 -0.00000000000E+00 -0.22592476157E+04  0.22592476157E+04  0.00000000000E+00 0.  1.
         23    2    1    2    0    0 -0.13664255249E+04  0.82847536516E+03  0.15810764770E+04  0.22498190794E+04  0.91612870653E+02 0.  0.
         11    1    3    3    0    0 -0.53327199865E+03  0.36393046477E+03  0.67849409941E+03  0.93657816047E+03  0.00000000000E+00 0.  1.
        -11    1    3    3    0    0 -0.83315352627E+03  0.46454490039E+03  0.90258237757E+03  0.13132409189E+04  0.00000000000E+00 0. -1.
         22    1    1    2    0    0  0.13664255249E+04 -0.82847536516E+03 -0.15932329089E+04  0.22565197202E+04  0.00000000000E+00 0.  1.
<mgrwt>
<rscale>  0 0.45063224E+04</rscale>
<asrwt>0</asrwt>
<pdfrwt beam="1">  1        2 0.34570633E+00 0.45063224E+04</pdfrwt>
<pdfrwt beam="2">  1       -2 0.34757656E+00 0.45063224E+04</pdfrwt>
<totfact> 0.59281246E-02</totfact>
</mgrwt>
</event>
<event>
 6    1  0.8968082E-007  0.3469661E+04  0.7818608E-02  0.8121018E-01
         -2   -1    0    0    0  501 -0.00000000000E+00  0.00000000000E+00  0.24563619816E+04  0.24563619816E+04  0.00000000000E+00 0.  1.
          2   -1    0    0  501    0  0.00000000000E+00 -0.00000000000E+00 -0.12252418216E+04  0.12252418216E+04  0.00000000000E+00 0. -1.
         23    2    1    2    0    0 -0.30350693040E+03  0.93904116373E+03 -0.89652688783E+03  0.13362260673E+04  0.88458341932E+02 0.  0.
         11    1    3    3    0    0 -0.48309750264E+02  0.21905883996E+03 -0.16398505407E+03  0.27786994313E+03  0.00000000000E+00 0. -1.
        -11    1    3    3    0    0 -0.25519718014E+03  0.71998232377E+03 -0.73254183377E+03  0.10583561241E+04  0.00000000000E+00 0.  1.
         22    1    1    2    0    0  0.30350693040E+03 -0.93904116373E+03  0.21276470478E+04  0.23453777359E+04  0.00000000000E+00 0. -1.
<mgrwt>
<rscale>  0 0.34696613E+04</rscale>
<asrwt>0</asrwt>
<pdfrwt beam="1">  1        2 0.18849874E+00 0.34696613E+04</pdfrwt>
<pdfrwt beam="2">  1       -2 0.37790184E+00 0.34696613E+04</pdfrwt>
<totfact> 0.15556307E-01</totfact>
</mgrwt>
</event>
<event>
 6    1  0.8968082E-007  0.2397834E+04  0.7818608E-02  0.8440315E-01
          1   -1    0    0  501    0  0.00000000000E+00  0.00000000000E+00  0.13350049947E+04  0.13350049947E+04  0.00000000000E+00 0. -1.
         -1   -1    0    0    0  501 -0.00000000000E+00 -0.00000000000E+00 -0.10767013339E+04  0.10767013339E+04  0.00000000000E+00 0.  1.
         23    2    1    2    0    0  0.10958531763E+04 -0.36135430422E+03  0.45077387794E+03  0.12418704847E+04  0.87029274794E+02 0.  0.
         11    1    3    3    0    0  0.39402192788E+03 -0.13400127603E+03  0.20760048926E+03  0.46508879235E+03  0.00000000000E+00 0.  1.
        -11    1    3    3    0    0  0.70183124840E+03 -0.22735302819E+03  0.24317338869E+03  0.77678169239E+03  0.00000000000E+00 0. -1.
         22    1    1    2    0    0 -0.10958531763E+04  0.36135430422E+03 -0.19247021720E+03  0.11698358439E+04  0.00000000000E+00 0. -1.
<mgrwt>
<rscale>  0 0.23978337E+04</rscale>
<asrwt>0</asrwt>
<pdfrwt beam="1">  1        1 0.20538538E+00 0.23978337E+04</pdfrwt>
<pdfrwt beam="2">  1       -1 0.16564636E+00 0.23978337E+04</pdfrwt>
<totfact> 0.20287899E+00</totfact>
</mgrwt>
</event>
<event>
 6    1  0.8968082E-007  0.2751239E+04  0.7818608E-02  0.8318569E-01
         -1   -1    0    0    0  501 -0.00000000000E+00  0.00000000000E+00  0.86495783034E+03  0.86495783034E+03  0.00000000000E+00 0.  1.
          1   -1    0    0  501    0  0.00000000000E+00 -0.00000000000E+00 -0.21877701803E+04  0.21877701803E+04  0.00000000000E+00 0. -1.
         23    2    1    2    0    0 -0.11363521472E+04  0.77104974366E+03 -0.60924383826E+03  0.15051512175E+04  0.92131554857E+02 0.  0.
         11    1    3    3    0    0 -0.16380496528E+03  0.15111784517E+03 -0.90667203245E+02  0.24060176958E+03  0.00000000000E+00 0. -1.
        -11    1    3    3    0    0 -0.97254718195E+03  0.61993189849E+03 -0.51857663502E+03  0.12645494479E+04  0.00000000000E+00 0.  1.
         22    1    1    2    0    0  0.11363521472E+04 -0.77104974366E+03 -0.71356851168E+03  0.15475767931E+04  0.00000000000E+00 0. -1.
<mgrwt>
<rscale>  0 0.27512390E+04</rscale>
<asrwt>0</asrwt>
<pdfrwt beam="1">  1        1 0.33658003E+00 0.27512390E+04</pdfrwt>
<pdfrwt beam="2">  1       -1 0.13307043E+00 0.27512390E+04</pdfrwt>
<totfact> 0.92249320E-01</totfact>
</mgrwt>
</event>
<event>
 6    1  0.8968082E-007  0.2190945E+04  0.7818608E-02  0.8522207E-01
         -1   -1    0    0    0  501 -0.00000000000E+00  0.00000000000E+00  0.12462453718E+04  0.12462453718E+04  0.00000000000E+00 0.  1.
          1   -1    0    0  501    0  0.00000000000E+00 -0.00000000000E+00 -0.96294019551E+03  0.96294019551E+03  0.00000000000E+00 0. -1.
         23    2    1    2    0    0  0.19489664994E+03  0.82928890886E+03  0.83341301222E+03  0.11951227341E+04  0.89645424788E+02 0.  0.
         11    1    3    3    0    0  0.11880352483E+03  0.57368906764E+03  0.62503542009E+03  0.85668121271E+03  0.00000000000E+00 0.  1.
        -11    1    3    3    0    0  0.76093125119E+02  0.25559984122E+03  0.20837759213E+03  0.33844152143E+03  0.00000000000E+00 0. -1.
         22    1    1    2    0    0 -0.19489664994E+03 -0.82928890886E+03 -0.55010783592E+03  0.10140628332E+04  0.00000000000E+00 0.  1.
<mgrwt>
<rscale>  0 0.21909448E+04</rscale>
<asrwt>0</asrwt>
<pdfrwt beam="1">  1        1 0.14814465E+00 0.21909448E+04</pdfrwt>
<pdfrwt beam="2">  1       -1 0.19173006E+00 0.21909448E+04</pdfrwt>
<totfact> 0.25375366E+00</totfact>
</mgrwt>
</event>
<event>
 6    1  0.8968082E-007  0.1368802E+04  0.7818608E-02  0.8976716E-01
          2   -1    0    0  501    0  0.00000000000E+00  0.00000000000E+00  0.16065774334E+04  0.16065774334E+04  0.00000000000E+00 0. -1.
         -2   -1    0    0    0  501 -0.00000000000E+00 -0.00000000000E+00 -0.29155448301E+03  0.29155448301E+03  0.00000000000E+00 0.  1.
         23    2    1    2    0    0 -0.39883301845E+03  0.12908558908E+03  0.14052870809E+04  0.14693213765E+04  0.91338172195E+02 0.  0.
         11    1    3    3    0    0 -0.20821870555E+03  0.11286908043E+03  0.82416035666E+03  0.85751661917E+03  0.00000000000E+00 0. -1.
        -11    1    3    3    0    0 -0.19061431290E+03  0.16216508649E+02  0.58112672424E+03  0.61180475731E+03  0.00000000000E+00 0.  1.
         22    1    1    2    0    0  0.39883301845E+03 -0.12908558908E+03 -0.90264130505E+02  0.42881053995E+03  0.00000000000E+00 0.  1.
<mgrwt>
<rscale>  0 0.13688022E+04</rscale>
<asrwt>0</asrwt>
<pdfrwt beam="1">  1        2 0.24716575E+00 0.13688022E+04</pdfrwt>
<pdfrwt beam="2">  1       -2 0.44854537E-01 0.13688022E+04</pdfrwt>
<totfact> 0.50832389E+01</totfact>
</mgrwt>
</event>
<event>
 6    1  0.8968082E-007  0.4600380E+04  0.7818608E-02  0.7893295E-01
          2   -1    0    0  501    0  0.00000000000E+00  0.00000000000E+00  0.42209071525E+04  0.42209071525E+04  0.00000000000E+00 0. -1.
         -2   -1    0    0    0  501 -0.00000000000E+00 -0.00000000000E+00 -0.12534922899E+04  0.12534922899E+04  0.00000000000E+00 0.  1.
         23    2    1    2    0    0  0.16053639124E+04  0.13709716876E+04  0.40025929409E+03  0.21506900129E+04  0.92213717036E+02 0.  0.
         11    1    3    3    0    0  0.67272002165E+03  0.56583274305E+03  0.21250168694E+03  0.90436490842E+03  0.00000000000E+00 0.  1.
        -11    1    3    3    0    0  0.93264389072E+03  0.80513894455E+03  0.18775760715E+03  0.12463251044E+04  0.00000000000E+00 0. -1.
         22    1    1    2    0    0 -0.16053639124E+04 -0.13709716876E+04  0.25671555685E+04  0.33237094296E+04  0.00000000000E+00 0. -1.
<mgrwt>
<rscale>  0 0.46003802E+04</rscale>
<asrwt>0</asrwt>
<pdfrwt beam="1">  1        2 0.64937032E+00 0.46003802E+04</pdfrwt>
<pdfrwt beam="2">  1       -2 0.19284497E+00 0.46003802E+04</pdfrwt>
<totfact> 0.24711957E-02</totfact>
</mgrwt>
</event>
<event>
 6    1  0.8968082E-007  0.4127698E+04  0.7818608E-02  0.7979270E-01
          2   -1    0    0  501    0  0.00000000000E+00  0.00000000000E+00  0.24980555008E+04  0.24980555008E+04  0.00000000000E+00 0. -1.
         -2   -1    0    0    0  501 -0.00000000000E+00 -0.00000000000E+00 -0.17051156093E+04  0.17051156093E+04  0.00000000000E+00 0.  1.
         23    2    1    2    0    0 -0.29273504743E+03 -0.82316681790E+03  0.22994416123E+04  0.24616646207E+04  0.95202722808E+02 0.  0.
         13    1    3    3    0    0 -0.18617366105E+03 -0.63240240277E+03  0.16724514371E+04  0.17976894171E+04  0.00000000000E+00 0. -1.
        -13    1    3    3    0    0 -0.10656138638E+03 -0.19076441514E+03  0.62699017519E+03  0.66397520356E+03  0.00000000000E+00 0.  1.
         22    1    1    2    0    0  0.29273504743E+03  0.82316681790E+03 -0.15065017208E+04  0.17415064895E+04  0.00000000000E+00 0.  1.
<mgrwt>
<rscale>  0 0.41276984E+04</rscale>
<asrwt>0</asrwt>
<pdfrwt beam="1">  1        2 0.38431623E+00 0.41276984E+04</pdfrwt>
<pdfrwt beam="2">  1       -2 0.26232548E+00 0.41276984E+04</pdfrwt>
<totfact> 0.14714480E-01</totfact>
</mgrwt>
</event>
<event>
 6    1  0.8968082E-007  0.1413912E+04  0.7818608E-02  0.8943809E-01
         -1   -1    0    0    0  501 -0.00000000000E+00  0.00000000000E+00  0.39438675820E+03  0.39438675820E+03  0.00000000000E+00 0.  1.
          1   -1    0    0  501    0  0.00000000000E+00 -0.00000000000E+00 -0.12672505371E+04  0.12672505371E+04  0.00000000000E+00 0. -1.
         23    2    1    2    0    0  0.48603195631E+03  0.33638936359E+03  0.11602512895E+02  0.59783962291E+03  0.88841037428E+02 0.  0.
         11    1    3    3    0    0  0.36985029055E+03  0.28714420844E+03 -0.16651372465E+02  0.46852780287E+03  0.00000000000E+00 0.  1.
        -11    1    3    3    0    0  0.11618166576E+03  0.49245155148E+02  0.28253885360E+02  0.12931182004E+03  0.00000000000E+00 0. -1.
         22    1    1    2    0    0 -0.48603195631E+03 -0.33638936359E+03 -0.88446629183E+03  0.10637976724E+04  0.00000000000E+00 0. -1.
<mgrwt>
<rscale>  0 0.14139121E+04</rscale>
<asrwt>0</asrwt>
<pdfrwt beam="1">  1        1 0.19496162E+00 0.14139121E+04</pdfrwt>
<pdfrwt beam="2">  1       -1 0.60674886E-01 0.14139121E+04</pdfrwt>
<totfact> 0.25619361E+01</totfact>
</mgrwt>
</event>
<event>
 6    1  0.8968082E-007  0.1736301E+04  0.7818608E-02  0.8740927E-01
         -2   -1    0    0    0  501 -0.00000000000E+00  0.00000000000E+00  0.86862526130E+03  0.86862526130E+03  0.00000000000E+00 0.  1.
          2   -1    0    0  501    0  0.00000000000E+00 -0.00000000000E+00 -0.86767613082E+03  0.86767613082E+03  0.00000000000E+00 0. -1.
         23    2    1    2    0    0 -0.69056469491E+03  0.39979745595E+03  0.33617310108E+03  0.87079996861E+03  0.92534468151E+02 0.  0.
         11    1    3    3    0    0 -0.40255783324E+03  0.18589567090E+03  0.20878995665E+03  0.49010535149E+03  0.00000000000E+00 0. -1.
        -11    1    3    3    0    0 -0.28800686167E+03  0.21390178505E+03  0.12738314443E+03  0.38069461711E+03  0.00000000000E+00 0.  1.
         22    1    1    2    0    0  0.69056469491E+03 -0.39979745595E+03 -0.33522397060E+03  0.86550142351E+03  0.00000000000E+00 0.  1.
<mgrwt>
<rscale>  0 0.17363011E+04</rscale>
<asrwt>0</asrwt>
<pdfrwt beam="1">  1        2 0.13348864E+00 0.17363011E+04</pdfrwt>
<pdfrwt beam="2">  1       -2 0.13363466E+00 0.17363011E+04</pdfrwt>
<totfact> 0.11851479E+01</totfact>
</mgrwt>
</event>
<event>
 6    1  0.8968082E-007  0.1350924E+04  0.7818608E-02  0.8990129E-01
         -2   -1    0    0    0  501 -0.00000000000E+00  0.00000000000E+00  0.25747682646E+03  0.25747682646E+03  0.00000000000E+00 0.  1.
          2   -1    0    0  501    0  0.00000000000E+00 -0.00000000000E+00 -0.17720004694E+04  0.17720004694E+04  0.00000000000E+00 0. -1.
         23    2    1    2    0    0  0.34302661220E+03  0.55228542715E+03 -0.51818871262E+03  0.83978416607E+03  0.11845443836E+03 0.  0.
         11    1    3    3    0    0  0.37092333443E+02  0.11520377975E+03 -0.53707156913E+02  0.13240925486E+03  0.00000000000E+00 0. -1.
        -11    1    3    3    0    0  0.30593427875E+03  0.43708164741E+03 -0.46448155571E+03  0.70737491121E+03  0.00000000000E+00 0.  1.
         22    1    1    2    0    0 -0.34302661220E+03 -0.55228542715E+03 -0.99633493037E+03  0.11896931298E+04  0.00000000000E+00 0. -1.
<mgrwt>
<rscale>  0 0.13509242E+04</rscale>
<asrwt>0</asrwt>
<pdfrwt beam="1">  1        2 0.27261546E+00 0.13509242E+04</pdfrwt>
<pdfrwt beam="2">  1       -2 0.39611820E-01 0.13509242E+04</pdfrwt>
<totfact> 0.52657679E+01</totfact>
</mgrwt>
</event>
<event>
 6    1  0.8968082E-007  0.1218278E+04  0.7818608E-02  0.9097006E-01
         -2   -1    0    0    0  501 -0.00000000000E+00  0.00000000000E+00  0.21756189290E+03  0.21756189290E+03  0.00000000000E+00 0.  1.
          2   -1    0    0  501    0  0.00000000000E+00 -0.00000000000E+00 -0.17054938113E+04  0.17054938113E+04  0.00000000000E+00 0. -1.
         23    2    1    2    0    0  0.23097611478E+03 -0.44602341958E+03 -0.12828040563E+04  0.13805022080E+04  0.88956411749E+02 0.  0.
         13    1    3    3    0    0  0.69349839609E+02 -0.74870093116E+02 -0.32549106937E+03  0.34111488876E+03  0.00000000000E+00 0. -1.
        -13    1    3    3    0    0  0.16162627518E+03 -0.37115332647E+03 -0.95731298689E+03  0.10393873193E+04  0.00000000000E+00 0.  1.
         22    1    1    2    0    0 -0.23097611478E+03  0.44602341958E+03 -0.20512786218E+03  0.54255349622E+03  0.00000000000E+00 0.  1.
<mgrwt>
<rscale>  0 0.12182782E+04</rscale>
<asrwt>0</asrwt>
<pdfrwt beam="1">  1        2 0.26238366E+00 0.12182782E+04</pdfrwt>
<pdfrwt beam="2">  1       -2 0.33471060E-01 0.12182782E+04</pdfrwt>
<totfact> 0.80056719E+01</totfact>
</mgrwt>
</event>
<event>
 6    1  0.8968082E-007  0.7946317E+04  0.7818608E-02  0.7487007E-01
          1   -1    0    0  501    0  0.00000000000E+00  0.00000000000E+00  0.26283076001E+04  0.26283076001E+04  0.00000000000E+00 0. -1.
         -1   -1    0    0    0  501 -0.00000000000E+00 -0.00000000000E+00 -0.60061413382E+04  0.60061413382E+04  0.00000000000E+00 0.  1.
         23    2    1    2    0    0 -0.17230724360E+03 -0.34400096826E+04  0.46177244558E+03  0.34763550997E+04  0.91948817908E+02 0.  0.
         13    1    3    3    0    0 -0.10651257424E+03 -0.12963905081E+04  0.15799677540E+03  0.13103191440E+04  0.00000000000E+00 0.  1.
        -13    1    3    3    0    0 -0.65794669365E+02 -0.21436191745E+04  0.30377567017E+03  0.21660359557E+04  0.00000000000E+00 0. -1.
         22    1    1    2    0    0  0.17230724360E+03  0.34400096826E+04 -0.38396061837E+04  0.51580938386E+04  0.00000000000E+00 0.  1.
<mgrwt>
<rscale>  0 0.79463166E+04</rscale>
<asrwt>0</asrwt>
<pdfrwt beam="1">  1        1 0.40435502E+00 0.79463166E+04</pdfrwt>
<pdfrwt beam="2">  1       -1 0.92402174E+00 0.79463166E+04</pdfrwt>
<totfact> 0.19127495E-06</totfact>
</mgrwt>
</event>
<event>
 6    1  0.8968082E-007  0.1661952E+04  0.7818608E-02  0.8783367E-01
         -2   -1    0    0    0  501 -0.00000000000E+00  0.00000000000E+00  0.78503259183E+03  0.78503259183E+03  0.00000000000E+00 0.  1.
          2   -1    0    0  501    0  0.00000000000E+00 -0.00000000000E+00 -0.87960790763E+03  0.87960790763E+03  0.00000000000E+00 0. -1.
         23    2    1    2    0    0 -0.52420241595E+03 -0.62668992889E+03  0.90354819774E+02  0.82694867372E+03  0.90286630552E+02 0.  0.
         11    1    3    3    0    0 -0.36642601522E+03 -0.49287511578E+03  0.50224759120E+02  0.61621135239E+03  0.00000000000E+00 0. -1.
        -11    1    3    3    0    0 -0.15777640073E+03 -0.13381481311E+03  0.40130060654E+02  0.21073732134E+03  0.00000000000E+00 0.  1.
         22    1    1    2    0    0  0.52420241595E+03  0.62668992889E+03 -0.18493013558E+03  0.83769182573E+03  0.00000000000E+00 0.  1.
<mgrwt>
<rscale>  0 0.16619517E+04</rscale>
<asrwt>0</asrwt>
<pdfrwt beam="1">  1        2 0.13532429E+00 0.16619517E+04</pdfrwt>
<pdfrwt beam="2">  1       -2 0.12077424E+00 0.16619517E+04</pdfrwt>
<totfact> 0.15098797E+01</totfact>
</mgrwt>
</event>
<event>
 6    1  0.8968082E-007  0.2492939E+04  0.7818608E-02  0.8405505E-01
          1   -1    0    0  501    0  0.00000000000E+00  0.00000000000E+00  0.20051502679E+04  0.20051502679E+04  0.00000000000E+00 0. -1.
         -1   -1    0    0    0  501 -0.00000000000E+00 -0.00000000000E+00 -0.77484779523E+03  0.77484779523E+03  0.00000000000E+00 0.  1.
         23    2    1    2    0    0 -0.18435358040E+03 -0.66840287031E+03  0.17688227877E+04  0.19020727990E+04  0.91641906533E+02 0.  0.
         13    1    3    3    0    0  0.34914762873E+01 -0.62864218926E+02  0.21047721043E+03  0.21969241347E+03  0.00000000000E+00 0.  1.
        -13    1    3    3    0    0 -0.18784505669E+03 -0.60553865138E+03  0.15583455772E+04  0.16823803856E+04  0.00000000000E+00 0. -1.
         22    1    1    2    0    0  0.18435358040E+03  0.66840287031E+03 -0.53852031501E+03  0.87792526409E+03  0.00000000000E+00 0.  1.
<mgrwt>
<rscale>  0 0.24929390E+04</rscale>
<asrwt>0</asrwt>
<pdfrwt beam="1">  1        1 0.30848465E+00 0.24929390E+04</pdfrwt>
<pdfrwt beam="2">  1       -1 0.11920735E+00 0.24929390E+04</pdfrwt>
<totfact> 0.16531894E+00</totfact>
</mgrwt>
</event>
<event>
 6    1  0.8968082E-007  0.6985187E+03  0.7818608E-02  0.9719769E-01
          2   -1    0    0  501    0  0.00000000000E+00  0.00000000000E+00  0.26849487173E+03  0.26849487173E+03  0.00000000000E+00 0. -1.
         -2   -1    0    0    0  501 -0.00000000000E+00 -0.00000000000E+00 -0.45431820238E+03  0.45431820238E+03  0.00000000000E+00 0.  1.
         23    2    1    2    0    0  0.32455384844E+03  0.47271134036E+02  0.99897829831E+01  0.34082807948E+03  0.92164110935E+02 0.  0.
         13    1    3    3    0    0  0.31106158587E+03  0.29270368057E+02 -0.71962614722E+01  0.31251856077E+03  0.00000000000E+00 0. -1.
        -13    1    3    3    0    0  0.13492262574E+02  0.18000765979E+02  0.17186044455E+02  0.28309518704E+02  0.00000000000E+00 0.  1.
         22    1    1    2    0    0 -0.32455384844E+03 -0.47271134036E+02 -0.19581311364E+03  0.38198499463E+03  0.00000000000E+00 0.  1.
<mgrwt>
<rscale>  0 0.69851874E+03</rscale>
<asrwt>0</asrwt>
<pdfrwt beam="1">  1        2 0.41306903E-01 0.69851874E+03</pdfrwt>
<pdfrwt beam="2">  1       -2 0.69895108E-01 0.69851874E+03</pdfrwt>
<totfact> 0.23404041E+02</totfact>
</mgrwt>
</event>
<event>
 6    1  0.8968082E-007  0.8774220E+03  0.7818608E-02  0.9454254E-01
          2   -1    0    0  501    0  0.00000000000E+00  0.00000000000E+00  0.12163751365E+04  0.12163751365E+04  0.00000000000E+00 0. -1.
         -2   -1    0    0    0  501 -0.00000000000E+00 -0.00000000000E+00 -0.15823024657E+03  0.15823024657E+03  0.00000000000E+00 0.  1.
         23    2    1    2    0    0  0.27928881971E+03 -0.41840621603E+02  0.19434756741E+02  0.29818928174E+03  0.93735028355E+02 0.  0.
         11    1    3    3    0    0  0.34343696157E+02 -0.39432275728E+02  0.85908013771E+01  0.52992411751E+02  0.00000000000E+00 0. -1.
        -11    1    3    3    0    0  0.24494512355E+03 -0.24083458751E+01  0.10843955364E+02  0.24519686999E+03  0.00000000000E+00 0.  1.
         22    1    1    2    0    0 -0.27928881971E+03  0.41840621603E+02  0.10387101332E+04  0.10764161014E+04  0.00000000000E+00 0. -1.
<mgrwt>
<rscale>  0 0.87742199E+03</rscale>
<asrwt>0</asrwt>
<pdfrwt beam="1">  1        2 0.18713463E+00 0.87742199E+03</pdfrwt>
<pdfrwt beam="2">  1       -2 0.24343116E-01 0.87742199E+03</pdfrwt>
<totfact> 0.27935117E+02</totfact>
</mgrwt>
</event>
<event>
 6    1  0.1013629E-006  0.3948541E+04  0.7818608E-02  0.8015009E-01
          2   -1    0    0  501    0  0.00000000000E+00  0.00000000000E+00  0.15503550837E+04  0.15503550837E+04  0.00000000000E+00 0. -1.
         -2   -1    0    0    0  501 -0.00000000000E+00 -0.00000000000E+00 -0.25140980735E+04  0.25140980735E+04  0.00000000000E+00 0.  1.
         23    2    1    2    0    0  0.21849982313E+03  0.19606823798E+04 -0.44147147196E+03  0.20236726434E+04  0.91303558812E+02 0.  0.
         11    1    3    3    0    0  0.54732306098E+02  0.61858371372E+03 -0.18008137211E+03  0.64658389772E+03  0.00000000000E+00 0. -1.
        -11    1    3    3    0    0  0.16376751703E+03  0.13420986661E+04 -0.26139009986E+03  0.13770887457E+04  0.00000000000E+00 0.  1.
         22    1    1    2    0    0 -0.21849982313E+03 -0.19606823798E+04 -0.52227151788E+03  0.20407805138E+04  0.00000000000E+00 0.  1.
<mgrwt>
<rscale>  0 0.39485414E+04</rscale>
<asrwt>0</asrwt>
<pdfrwt beam="1">  1        2 0.23851617E+00 0.39485414E+04</pdfrwt>
<pdfrwt beam="2">  1       -2 0.38678432E+00 0.39485414E+04</pdfrwt>
<totfact> 0.85199301E-02</totfact>
</mgrwt>
</event>
<event>
 6    1  0.8968082E-007  0.1061203E+04  0.7818608E-02  0.9243853E-01
         -2   -1    0    0    0  501 -0.00000000000E+00  0.00000000000E+00  0.10896990316E+03  0.10896990316E+03  0.00000000000E+00 0.  1.
          2   -1    0    0  501    0  0.00000000000E+00 -0.00000000000E+00 -0.25836325826E+04  0.25836325826E+04  0.00000000000E+00 0. -1.
         23    2    1    2    0    0 -0.47350988249E+03  0.19621226233E+03 -0.94191463914E+03  0.10764256960E+04  0.93692213592E+02 0.  0.
         13    1    3    3    0    0 -0.77008212753E+02  0.33194503130E+02 -0.91827214382E+02  0.12435584896E+03  0.00000000000E+00 0.  1.
        -13    1    3    3    0    0 -0.39650166974E+03  0.16301775920E+03 -0.85008742476E+03  0.95206984704E+03  0.00000000000E+00 0. -1.
         22    1    1    2    0    0  0.47350988249E+03 -0.19621226233E+03 -0.15327480403E+04  0.16161767897E+04  0.00000000000E+00 0. -1.
<mgrwt>
<rscale>  0 0.10612035E+04</rscale>
<asrwt>0</asrwt>
<pdfrwt beam="1">  1        2 0.39748190E+00 0.10612035E+04</pdfrwt>
<pdfrwt beam="2">  1       -2 0.16764602E-01 0.10612035E+04</pdfrwt>
<totfact> 0.90974208E+01</totfact>
</mgrwt>
</event>
<event>
 6    1  0.8968082E-007  0.1902320E+04  0.7818608E-02  0.8653703E-01
         -3   -1    0    0    0  501 -0.00000000000E+00  0.00000000000E+00  0.72116940310E+03  0.72116940310E+03  0.00000000000E+00 0.  1.
          3   -1    0    0  501    0  0.00000000000E+00 -0.00000000000E+00 -0.12544971873E+04  0.12544971873E+04  0.00000000000E+00 0. -1.
         23    2    1    2    0    0 -0.19460927368E+01 -0.71768993440E+03 -0.91234918864E+03  0.11640386866E+04  0.86731728779E+02 0.  0.
         11    1    3    3    0    0  0.18658334266E+02 -0.22121426791E+03 -0.22703798037E+03  0.31753760453E+03  0.00000000000E+00 0. -1.
        -11    1    3    3    0    0 -0.20604427003E+02 -0.49647566649E+03 -0.68531120827E+03  0.84650108211E+03  0.00000000000E+00 0.  1.
         22    1    1    2    0    0  0.19460927368E+01  0.71768993440E+03  0.37902140441E+03  0.81162790379E+03  0.00000000000E+00 0.  1.
<mgrwt>
<rscale>  0 0.19023196E+04</rscale>
<asrwt>0</asrwt>
<pdfrwt beam="1">  1        3 0.19299957E+00 0.19023196E+04</pdfrwt>
<pdfrwt beam="2">  1       -3 0.11094914E+00 0.19023196E+04</pdfrwt>
<totfact> 0.27297722E-01</totfact>
</mgrwt>
</event>
<event>
 6    1  0.8968082E-007  0.3251918E+04  0.7818608E-02  0.8175239E-01
         -2   -1    0    0    0  501 -0.00000000000E+00  0.00000000000E+00  0.69841273847E+03  0.69841273847E+03  0.00000000000E+00 0.  1.
          2   -1    0    0  501    0  0.00000000000E+00 -0.00000000000E+00 -0.37853578110E+04  0.37853578110E+04  0.00000000000E+00 0. -1.
         23    2    1    2    0    0 -0.51409576466E+03 -0.11007478220E+04 -0.57116640208E+02  0.12194481769E+04  0.88607689710E+02 0.  0.
         11    1    3    3    0    0 -0.45055879162E+03 -0.88412453323E+03 -0.42205404429E+02  0.99320728508E+03  0.00000000000E+00 0. -1.
        -11    1    3    3    0    0 -0.63536973034E+02 -0.21662328875E+03 -0.14911235779E+02  0.22624089180E+03  0.00000000000E+00 0.  1.
         22    1    1    2    0    0  0.51409576466E+03  0.11007478220E+04 -0.30298284323E+04  0.32643223726E+04  0.00000000000E+00 0. -1.
<mgrwt>
<rscale>  0 0.32519177E+04</rscale>
<asrwt>0</asrwt>
<pdfrwt beam="1">  1        2 0.58236274E+00 0.32519177E+04</pdfrwt>
<pdfrwt beam="2">  1       -2 0.10744811E+00 0.32519177E+04</pdfrwt>
<totfact> 0.29329184E-01</totfact>
</mgrwt>
</event>
<event>
 6    1  0.8968082E-007  0.1328170E+04  0.7818608E-02  0.9007520E-01
          1   -1    0    0  501    0  0.00000000000E+00  0.00000000000E+00  0.41273866396E+03  0.41273866396E+03  0.00000000000E+00 0. -1.
         -1   -1    0    0    0  501 -0.00000000000E+00 -0.00000000000E+00 -0.10684936902E+04  0.10684936902E+04  0.00000000000E+00 0.  1.
         23    2    1    2    0    0  0.52936187351E+03  0.26002490851E+03  0.33064026543E+01  0.59681225419E+03  0.91307109673E+02 0.  0.
         13    1    3    3    0    0  0.30260962117E+03  0.19293196250E+03 -0.18372526872E+02  0.35935062922E+03  0.00000000000E+00 0. -1.
        -13    1    3    3    0    0  0.22675225234E+03  0.67092946015E+02  0.21678929527E+02  0.23746162497E+03  0.00000000000E+00 0.  1.
         22    1    1    2    0    0 -0.52936187351E+03 -0.26002490851E+03 -0.65906142886E+03  0.88442009995E+03  0.00000000000E+00 0.  1.
<mgrwt>
<rscale>  0 0.13281697E+04</rscale>
<asrwt>0</asrwt>
<pdfrwt beam="1">  1        1 0.63498256E-01 0.13281697E+04</pdfrwt>
<pdfrwt beam="2">  1       -1 0.16438365E+00 0.13281697E+04</pdfrwt>
<totfact> 0.15277190E+01</totfact>
</mgrwt>
</event>
<event>
 6    1  0.8968082E-007  0.1581795E+04  0.7818608E-02  0.8831811E-01
          2   -1    0    0  501    0  0.00000000000E+00  0.00000000000E+00  0.13410982901E+04  0.13410982901E+04  0.00000000000E+00 0. -1.
         -2   -1    0    0    0  501 -0.00000000000E+00 -0.00000000000E+00 -0.46642288756E+03  0.46642288756E+03  0.00000000000E+00 0.  1.
         23    2    1    2    0    0 -0.31608611659E+03 -0.64235655198E+03  0.81561161551E+03  0.10891752276E+04  0.92455373673E+02 0.  0.
         13    1    3    3    0    0 -0.13488052555E+03 -0.35894042325E+03  0.39368873476E+03  0.54956510396E+03  0.00000000000E+00 0.  1.
        -13    1    3    3    0    0 -0.18120559104E+03 -0.28341612874E+03  0.42192288075E+03  0.53961012366E+03  0.00000000000E+00 0. -1.
         22    1    1    2    0    0  0.31608611659E+03  0.64235655198E+03  0.59063786999E+02  0.71834595002E+03  0.00000000000E+00 0.  1.
<mgrwt>
<rscale>  0 0.15817951E+04</rscale>
<asrwt>0</asrwt>
<pdfrwt beam="1">  1        2 0.20632281E+00 0.15817951E+04</pdfrwt>
<pdfrwt beam="2">  1       -2 0.71757368E-01 0.15817951E+04</pdfrwt>
<totfact> 0.26452085E+01</totfact>
</mgrwt>
</event>
<event>
 6    1  0.8968082E-007  0.4321453E+04  0.7818608E-02  0.7942663E-01
         -1   -1    0    0    0  501 -0.00000000000E+00  0.00000000000E+00  0.26748059785E+04  0.26748059785E+04  0.00000000000E+00 0.  1.
          1   -1    0    0  501    0  0.00000000000E+00 -0.00000000000E+00 -0.17454495596E+04  0.17454495596E+04  0.00000000000E+00 0. -1.
         23    2    1    2    0    0  0.10328007961E+04 -0.31976651587E+03  0.23772853962E+04  0.26132064429E+04  0.91836535029E+02 0.  0.
         13    1    3    3    0    0  0.73482797049E+03 -0.19612224839E+03  0.15967292823E+04  0.17686097601E+04  0.00000000000E+00 0. -1.
        -13    1    3    3    0    0  0.29797282564E+03 -0.12364426748E+03  0.78055611388E+03  0.84459668281E+03  0.00000000000E+00 0.  1.
         22    1    1    2    0    0 -0.10328007961E+04  0.31976651587E+03 -0.14479289773E+04  0.18070490952E+04  0.00000000000E+00 0. -1.
<mgrwt>
<rscale>  0 0.43214530E+04</rscale>
<asrwt>0</asrwt>
<pdfrwt beam="1">  1        1 0.26853070E+00 0.43214530E+04</pdfrwt>
<pdfrwt beam="2">  1       -1 0.41150861E+00 0.43214530E+04</pdfrwt>
<totfact> 0.20176630E-02</totfact>
</mgrwt>
</event>
<event>
 6    1  0.8968082E-007  0.6350451E+03  0.7818608E-02  0.9835253E-01
         -2   -1    0    0    0  501 -0.00000000000E+00  0.00000000000E+00  0.94647408114E+03  0.94647408114E+03  0.00000000000E+00 0.  1.
          2   -1    0    0  501    0  0.00000000000E+00 -0.00000000000E+00 -0.10652226587E+03  0.10652226587E+03  0.00000000000E+00 0. -1.
         23    2    1    2    0    0 -0.20850356936E+02 -0.30931467046E+03  0.46581623249E+03  0.56710774142E+03  0.92282854177E+02 0.  0.
         11    1    3    3    0    0  0.24785344189E+02 -0.23065412064E+03  0.31958481609E+03  0.39490516751E+03  0.00000000000E+00 0.  1.
        -11    1    3    3    0    0 -0.45635701125E+02 -0.78660549817E+02  0.14623141641E+03  0.17220257390E+03  0.00000000000E+00 0. -1.
         22    1    1    2    0    0  0.20850356936E+02  0.30931467046E+03  0.37413558278E+03  0.48588860560E+03  0.00000000000E+00 0.  1.
<mgrwt>
<rscale>  0 0.63504508E+03</rscale>
<asrwt>0</asrwt>
<pdfrwt beam="1">  1        2 0.16388042E-01 0.63504508E+03</pdfrwt>
<pdfrwt beam="2">  1       -2 0.14561139E+00 0.63504508E+03</pdfrwt>
<totfact> 0.11851028E+02</totfact>
</mgrwt>
</event>
<event>
 6    1  0.8968082E-007  0.7849559E+03  0.7818608E-02  0.9582052E-01
          1   -1    0    0  501    0  0.00000000000E+00  0.00000000000E+00  0.20235289929E+04  0.20235289929E+04  0.00000000000E+00 0. -1.
         -1   -1    0    0    0  501 -0.00000000000E+00 -0.00000000000E+00 -0.76123904720E+02  0.76123904720E+02  0.00000000000E+00 0.  1.
         23    2    1    2    0    0 -0.72983590445E+02  0.41713777054E+02  0.19977673562E+04  0.20016579912E+04  0.92161057747E+02 0.  0.
         13    1    3    3    0    0 -0.74012794322E+01  0.56609158621E+02  0.83821147597E+03  0.84015347064E+03  0.00000000000E+00 0.  1.
        -13    1    3    3    0    0 -0.65582311013E+02 -0.14895381567E+02  0.11595558802E+04  0.11615045205E+04  0.00000000000E+00 0. -1.
         22    1    1    2    0    0  0.72983590445E+02 -0.41713777054E+02 -0.50362267931E+02  0.97994906508E+02  0.00000000000E+00 0.  1.
<mgrwt>
<rscale>  0 0.78495587E+03</rscale>
<asrwt>0</asrwt>
<pdfrwt beam="1">  1        1 0.31131211E+00 0.78495587E+03</pdfrwt>
<pdfrwt beam="2">  1       -1 0.11711372E-01 0.78495587E+03</pdfrwt>
<totfact> 0.14471689E+02</totfact>
</mgrwt>
</event>
<event>
 6    1  0.8968082E-007  0.2496157E+04  0.7818608E-02  0.8404356E-01
          2   -1    0    0  501    0  0.00000000000E+00  0.00000000000E+00  0.27191434234E+04  0.27191434234E+04  0.00000000000E+00 0. -1.
         -2   -1    0    0    0  501 -0.00000000000E+00 -0.00000000000E+00 -0.57286426553E+03  0.57286426553E+03  0.00000000000E+00 0.  1.
         23    2    1    2    0    0 -0.34201897549E+03  0.10769585366E+04  0.17683201956E+04  0.21005087815E+04  0.91455770498E+02 0.  0.
         13    1    3    3    0    0 -0.27047987294E+03  0.93545510398E+03  0.15544919028E+04  0.18343065963E+04  0.00000000000E+00 0. -1.
        -13    1    3    3    0    0 -0.71539102545E+02  0.14150343262E+03  0.21382829277E+03  0.26620218523E+03  0.00000000000E+00 0.  1.
         22    1    1    2    0    0  0.34201897549E+03 -0.10769585366E+04  0.37795896226E+03  0.11914989074E+04  0.00000000000E+00 0.  1.
<mgrwt>
<rscale>  0 0.24961571E+04</rscale>
<asrwt>0</asrwt>
<pdfrwt beam="1">  1        2 0.41832975E+00 0.24961571E+04</pdfrwt>
<pdfrwt beam="2">  1       -2 0.88132965E-01 0.24961571E+04</pdfrwt>
<totfact> 0.25591278E+00</totfact>
</mgrwt>
</event>
<event>
 6    1  0.8968082E-007  0.1429343E+04  0.7818608E-02  0.8932848E-01
         -1   -1    0    0    0  501 -0.00000000000E+00  0.00000000000E+00  0.59518418500E+03  0.59518418500E+03  0.00000000000E+00 0.  1.
          1   -1    0    0  501    0  0.00000000000E+00 -0.00000000000E+00 -0.85814699192E+03  0.85814699192E+03  0.00000000000E+00 0. -1.
         23    2    1    2    0    0  0.34066778116E+03  0.59674589966E+03 -0.32085088372E+03  0.76375794996E+03  0.90668134756E+02 0.  0.
         11    1    3    3    0    0  0.91211739147E+02  0.24674215661E+03 -0.11228608936E+03  0.28602349392E+03  0.00000000000E+00 0.  1.
        -11    1    3    3    0    0  0.24945604202E+03  0.35000374305E+03 -0.20856479436E+03  0.47773445605E+03  0.00000000000E+00 0. -1.
         22    1    1    2    0    0 -0.34066778116E+03 -0.59674589966E+03  0.57888076800E+02  0.68957322695E+03  0.00000000000E+00 0. -1.
<mgrwt>
<rscale>  0 0.14293432E+04</rscale>
<asrwt>0</asrwt>
<pdfrwt beam="1">  1        1 0.13202261E+00 0.14293432E+04</pdfrwt>
<pdfrwt beam="2">  1       -1 0.91566798E-01 0.14293432E+04</pdfrwt>
<totfact> 0.22304370E+01</totfact>
</mgrwt>
</event>
<event>
 6    1  0.8968082E-007  0.1749109E+04  0.7818608E-02  0.8733841E-01
          2   -1    0    0  501    0  0.00000000000E+00  0.00000000000E+00  0.58433721031E+03  0.58433721031E+03  0.00000000000E+00 0. -1.
         -2   -1    0    0    0  501 -0.00000000000E+00 -0.00000000000E+00 -0.13089118111E+04  0.13089118111E+04  0.00000000000E+00 0.  1.
         23    2    1    2    0    0 -0.47517247688E+02 -0.65721858395E+03  0.25516626292E+03  0.71253469697E+03  0.91660878997E+02 0.  0.
         11    1    3    3    0    0 -0.48701270150E+01 -0.13953778286E+03  0.15517171507E+02  0.14048236044E+03  0.00000000000E+00 0. -1.
        -11    1    3    3    0    0 -0.42647120673E+02 -0.51768080109E+03  0.23964909141E+03  0.57205233653E+03  0.00000000000E+00 0.  1.
         22    1    1    2    0    0  0.47517247688E+02  0.65721858395E+03 -0.97974086373E+03  0.11807143245E+04  0.00000000000E+00 0.  1.
<mgrwt>
<rscale>  0 0.17491093E+04</rscale>
<asrwt>0</asrwt>
<pdfrwt beam="1">  1        2 0.89898032E-01 0.17491093E+04</pdfrwt>
<pdfrwt beam="2">  1       -2 0.20137105E+00 0.17491093E+04</pdfrwt>
<totfact> 0.63177605E+00</totfact>
</mgrwt>
</event>
<event>
 6    1  0.8968082E-007  0.1407159E+04  0.7818608E-02  0.8948653E-01
         -2   -1    0    0    0  501 -0.00000000000E+00  0.00000000000E+00  0.36181866363E+03  0.36181866363E+03  0.00000000000E+00 0.  1.
          2   -1    0    0  501    0  0.00000000000E+00 -0.00000000000E+00 -0.13681546962E+04  0.13681546962E+04  0.00000000000E+00 0. -1.
         23    2    1    2    0    0  0.18530499372E+03  0.64117943442E+03 -0.76756640308E+03  0.10211292699E+04  0.89987748445E+02 0.  0.
         11    1    3    3    0    0  0.79616989513E+02  0.17882577062E+03 -0.17900342146E+03  0.26525411618E+03  0.00000000000E+00 0. -1.
        -11    1    3    3    0    0  0.10568800420E+03  0.46235366381E+03 -0.58856298161E+03  0.75587515371E+03  0.00000000000E+00 0.  1.
         22    1    1    2    0    0 -0.18530499372E+03 -0.64117943442E+03 -0.23876962945E+03  0.70884408989E+03  0.00000000000E+00 0.  1.
<mgrwt>
<rscale>  0 0.14071587E+04</rscale>
<asrwt>0</asrwt>
<pdfrwt beam="1">  1        2 0.21048534E+00 0.14071587E+04</pdfrwt>
<pdfrwt beam="2">  1       -2 0.55664410E-01 0.14071587E+04</pdfrwt>
<totfact> 0.44513866E+01</totfact>
</mgrwt>
</event>
<event>
 6    1  0.8968082E-007  0.6115232E+04  0.7818608E-02  0.7676276E-01
         -1   -1    0    0    0  501 -0.00000000000E+00  0.00000000000E+00  0.41319384151E+04  0.41319384151E+04  0.00000000000E+00 0.  1.
          1   -1    0    0  501    0  0.00000000000E+00 -0.00000000000E+00 -0.22626220128E+04  0.22626220128E+04  0.00000000000E+00 0. -1.
         23    2    1    2    0    0  0.27297547325E+03 -0.25350322459E+04 -0.82856360710E+03  0.26824908378E+04  0.91298123775E+02 0.  0.
         11    1    3    3    0    0  0.69951748317E+02 -0.10474071566E+04 -0.35598679404E+03  0.11084591090E+04  0.00000000000E+00 0.  1.
        -11    1    3    3    0    0  0.20302372493E+03 -0.14876250892E+04 -0.47257681306E+03  0.15740317288E+04  0.00000000000E+00 0. -1.
         22    1    1    2    0    0 -0.27297547325E+03  0.25350322459E+04  0.26978800094E+04  0.37120695901E+04  0.00000000000E+00 0.  1.
<mgrwt>
<rscale>  0 0.61152317E+04</rscale>
<asrwt>0</asrwt>
<pdfrwt beam="1">  1        1 0.34809569E+00 0.61152317E+04</pdfrwt>
<pdfrwt beam="2">  1       -1 0.63568283E+00 0.61152317E+04</pdfrwt>
<totfact> 0.43683862E-04</totfact>
</mgrwt>
</event>
<event>
 6    1  0.9603451E-007  0.3666159E+04  0.7818608E-02  0.8075503E-01
         -1   -1    0    0    0  501 -0.00000000000E+00  0.00000000000E+00  0.10950000027E+04  0.10950000027E+04  0.00000000000E+00 0.  1.
          1   -1    0    0  501    0  0.00000000000E+00 -0.00000000000E+00 -0.30686575589E+04  0.30686575589E+04  0.00000000000E+00 0. -1.
         23    2    1    2    0    0 -0.74578048654E+03 -0.17962326241E+03  0.90183749339E+03  0.11875989550E+04  0.92883598289E+02 0.  0.
         11    1    3    3    0    0 -0.36778855318E+03 -0.60263403869E+02  0.37971499727E+03  0.53205599033E+03  0.00000000000E+00 0. -1.
        -11    1    3    3    0    0 -0.37799193336E+03 -0.11935985854E+03  0.52212249612E+03  0.65554296463E+03  0.00000000000E+00 0.  1.
         22    1    1    2    0    0  0.74578048654E+03  0.17962326241E+03 -0.28754950496E+04  0.29760586067E+04  0.00000000000E+00 0. -1.
<mgrwt>
<rscale>  0 0.36661588E+04</rscale>
<asrwt>0</asrwt>
<pdfrwt beam="1">  1        1 0.47210116E+00 0.36661588E+04</pdfrwt>
<pdfrwt beam="2">  1       -1 0.16846154E+00 0.36661588E+04</pdfrwt>
<totfact> 0.10808698E-01</totfact>
</mgrwt>
</event>
<event>
 6    1  0.8968082E-007  0.1729005E+04  0.7818608E-02  0.8744993E-01
          1   -1    0    0  501    0  0.00000000000E+00  0.00000000000E+00  0.24455768010E+04  0.24455768010E+04  0.00000000000E+00 0. -1.
         -1   -1    0    0    0  501 -0.00000000000E+00 -0.00000000000E+00 -0.30559846901E+03  0.30559846901E+03  0.00000000000E+00 0.  1.
         23    2    1    2    0    0 -0.47612188240E+03 -0.34980013220E+02  0.22152576310E+04  0.22678714101E+04  0.89211617725E+02 0.  0.
         13    1    3    3    0    0 -0.37336289270E+03 -0.18074670485E+02  0.15452594591E+04  0.15898280848E+04  0.00000000000E+00 0. -1.
        -13    1    3    3    0    0 -0.10275898971E+03 -0.16905342735E+02  0.66999817189E+03  0.67804332525E+03  0.00000000000E+00 0.  1.
         22    1    1    2    0    0  0.47612188240E+03  0.34980013220E+02 -0.75279298944E+02  0.48330385998E+03  0.00000000000E+00 0.  1.
<mgrwt>
<rscale>  0 0.17290049E+04</rscale>
<asrwt>0</asrwt>
<pdfrwt beam="1">  1        1 0.37624257E+00 0.17290049E+04</pdfrwt>
<pdfrwt beam="2">  1       -1 0.47015151E-01 0.17290049E+04</pdfrwt>
<totfact> 0.63350071E+00</totfact>
</mgrwt>
</event>
<event>
 6    1  0.8968082E-007  0.2175990E+04  0.7818608E-02  0.8528488E-01
         -2   -1    0    0    0  501 -0.00000000000E+00  0.00000000000E+00  0.10182569769E+04  0.10182569769E+04  0.00000000000E+00 0.  1.
          2   -1    0    0  501    0  0.00000000000E+00 -0.00000000000E+00 -0.11625094470E+04  0.11625094470E+04  0.00000000000E+00 0. -1.
         23    2    1    2    0    0  0.30204011785E+03 -0.10358213698E+04  0.52861215359E+02  0.10839492340E+04  0.89428691899E+02 0.  0.
         11    1    3    3    0    0  0.11417168803E+03 -0.54958230757E+03  0.21128635349E+02  0.56171372280E+03  0.00000000000E+00 0. -1.
        -11    1    3    3    0    0  0.18786842982E+03 -0.48623906223E+03  0.31732580010E+02  0.52223551123E+03  0.00000000000E+00 0.  1.
         22    1    1    2    0    0 -0.30204011785E+03  0.10358213698E+04 -0.19711368546E+03  0.10968171898E+04  0.00000000000E+00 0. -1.
<mgrwt>
<rscale>  0 0.21759902E+04</rscale>
<asrwt>0</asrwt>
<pdfrwt beam="1">  1        2 0.17884761E+00 0.21759902E+04</pdfrwt>
<pdfrwt beam="2">  1       -2 0.15665492E+00 0.21759902E+04</pdfrwt>
<totfact> 0.48744898E+00</totfact>
</mgrwt>
</event>
<event>
 6    1  0.8968082E-007  0.7075489E+03  0.7818608E-02  0.9704409E-01
         -2   -1    0    0    0  501 -0.00000000000E+00  0.00000000000E+00  0.49561632560E+02  0.49561632560E+02  0.00000000000E+00 0.  1.
          2   -1    0    0  501    0  0.00000000000E+00 -0.00000000000E+00 -0.25252674335E+04  0.25252674335E+04  0.00000000000E+00 0. -1.
         23    2    1    2    0    0 -0.31222712830E+03 -0.91951849472E+02 -0.17041020975E+04  0.17373846217E+04  0.92738571614E+02 0.  0.
         11    1    3    3    0    0 -0.54904803560E+02 -0.55850618245E+02 -0.42515903018E+03  0.43231242170E+03  0.00000000000E+00 0. -1.
        -11    1    3    3    0    0 -0.25732232474E+03 -0.36101231227E+02 -0.12789430674E+04  0.13050722000E+04  0.00000000000E+00 0.  1.
         22    1    1    2    0    0  0.31222712830E+03  0.91951849472E+02 -0.77160370342E+03  0.83744444437E+03  0.00000000000E+00 0.  1.
<mgrwt>
<rscale>  0 0.70754894E+03</rscale>
<asrwt>0</asrwt>
<pdfrwt beam="1">  1        2 0.38850265E+00 0.70754894E+03</pdfrwt>
<pdfrwt beam="2">  1       -2 0.76248671E-02 0.70754894E+03</pdfrwt>
<totfact> 0.37283870E+02</totfact>
</mgrwt>
</event>
<event>
 6    1  0.8968082E-007  0.2427569E+04  0.7818608E-02  0.8429254E-01
         -1   -1    0    0    0  501 -0.00000000000E+00  0.00000000000E+00  0.83445857049E+03  0.83445857049E+03  0.00000000000E+00 0.  1.
          1   -1    0    0  501    0  0.00000000000E+00 -0.00000000000E+00 -0.17655434254E+04  0.17655434254E+04  0.00000000000E+00 0. -1.
         23    2    1    2    0    0  0.10603731210E+04  0.58367691701E+03 -0.53454854439E+03  0.13263022884E+04  0.90915975380E+02 0.  0.
         11    1    3    3    0    0  0.76830392597E+03  0.40179818861E+03 -0.42217275432E+03  0.96434565458E+03  0.00000000000E+00 0. -1.
        -11    1    3    3    0    0  0.29206919508E+03  0.18187872840E+03 -0.11237579007E+03  0.36195663380E+03  0.00000000000E+00 0.  1.
         22    1    1    2    0    0 -0.10603731210E+04 -0.58367691701E+03 -0.39653631051E+03  0.12736997075E+04  0.00000000000E+00 0. -1.
<mgrwt>
<rscale>  0 0.24275690E+04</rscale>
<asrwt>0</asrwt>
<pdfrwt beam="1">  1        1 0.27162206E+00 0.24275690E+04</pdfrwt>
<pdfrwt beam="2">  1       -1 0.12837824E+00 0.24275690E+04</pdfrwt>
<totfact> 0.20121390E+00</totfact>
</mgrwt>
</event>
<event>
 6    1  0.8968082E-007  0.2238519E+04  0.7818608E-02  0.8502565E-01
          2   -1    0    0  501    0  0.00000000000E+00  0.00000000000E+00  0.58552446842E+03  0.58552446842E+03  0.00000000000E+00 0. -1.
         -2   -1    0    0    0  501 -0.00000000000E+00 -0.00000000000E+00 -0.21395211117E+04  0.21395211117E+04  0.00000000000E+00 0.  1.
         23    2    1    2    0    0 -0.40530211396E+03 -0.22809856771E+03  0.45850829515E+03  0.65950088504E+03  0.91721319608E+02 0.  0.
         13    1    3    3    0    0 -0.20813875273E+03 -0.12362389176E+03  0.30151398197E+03  0.38667206821E+03  0.00000000000E+00 0. -1.
        -13    1    3    3    0    0 -0.19716336123E+03 -0.10447467594E+03  0.15699431318E+03  0.27282881683E+03  0.00000000000E+00 0.  1.
         22    1    1    2    0    0  0.40530211396E+03  0.22809856771E+03 -0.20125049384E+04  0.20655446951E+04  0.00000000000E+00 0.  1.
<mgrwt>
<rscale>  0 0.22385191E+04</rscale>
<asrwt>0</asrwt>
<pdfrwt beam="1">  1        2 0.90080686E-01 0.22385191E+04</pdfrwt>
<pdfrwt beam="2">  1       -2 0.32915710E+00 0.22385191E+04</pdfrwt>
<totfact> 0.97886725E-01</totfact>
</mgrwt>
</event>
<event>
 6    1  0.8968082E-007  0.3062178E+04  0.7818608E-02  0.8226195E-01
          2   -1    0    0  501    0  0.00000000000E+00  0.00000000000E+00  0.17260718450E+04  0.17260718450E+04  0.00000000000E+00 0. -1.
         -2   -1    0    0    0  501 -0.00000000000E+00 -0.00000000000E+00 -0.13581322118E+04  0.13581322118E+04  0.00000000000E+00 0.  1.
         23    2    1    2    0    0  0.58681945065E+03 -0.85968503166E+03  0.13132083297E+04  0.16781641107E+04  0.91122137805E+02 0.  0.
         11    1    3    3    0    0  0.36640848860E+03 -0.45799530628E+03  0.75079191298E+03  0.95273468378E+03  0.00000000000E+00 0.  1.
        -11    1    3    3    0    0  0.22041096205E+03 -0.40168972538E+03  0.56241641671E+03  0.72542942692E+03  0.00000000000E+00 0. -1.
         22    1    1    2    0    0 -0.58681945065E+03  0.85968503166E+03 -0.94526869655E+03  0.14060399461E+04  0.00000000000E+00 0.  1.
<mgrwt>
<rscale>  0 0.30621782E+04</rscale>
<asrwt>0</asrwt>
<pdfrwt beam="1">  1        2 0.26554952E+00 0.30621782E+04</pdfrwt>
<pdfrwt beam="2">  1       -2 0.20894342E+00 0.30621782E+04</pdfrwt>
<totfact> 0.93968423E-01</totfact>
</mgrwt>
</event>
<event>
 6    1  0.8968082E-007  0.2050814E+04  0.7818608E-02  0.8583225E-01
          2   -1    0    0  501    0  0.00000000000E+00  0.00000000000E+00  0.12554009263E+04  0.12554009263E+04  0.00000000000E+00 0. -1.
         -2   -1    0    0    0  501 -0.00000000000E+00 -0.00000000000E+00 -0.83754847367E+03  0.83754847367E+03  0.00000000000E+00 0.  1.
         23    2    1    2    0    0  0.39985382855E+03  0.35117382241E+03 -0.68248479322E+03  0.87067766571E+03  0.95330828343E+02 0.  0.
         11    1    3    3    0    0  0.33595044680E+03  0.29671952880E+03 -0.51087584592E+03  0.67963174692E+03  0.00000000000E+00 0. -1.
        -11    1    3    3    0    0  0.63903381746E+02  0.54454293609E+02 -0.17160894730E+03  0.19104591879E+03  0.00000000000E+00 0.  1.
         22    1    1    2    0    0 -0.39985382855E+03 -0.35117382241E+03  0.11003372458E+04  0.12222717342E+04  0.00000000000E+00 0. -1.
<mgrwt>
<rscale>  0 0.20508136E+04</rscale>
<asrwt>0</asrwt>
<pdfrwt beam="1">  1        2 0.19313860E+00 0.20508136E+04</pdfrwt>
<pdfrwt beam="2">  1       -2 0.12885361E+00 0.20508136E+04</pdfrwt>
<totfact> 0.72167311E+00</totfact>
</mgrwt>
</event>
<event>
 6    1  0.8968082E-007  0.2386284E+04  0.7818608E-02  0.8444656E-01
          1   -1    0    0  501    0  0.00000000000E+00  0.00000000000E+00  0.16310369303E+04  0.16310369303E+04  0.00000000000E+00 0. -1.
         -1   -1    0    0    0  501 -0.00000000000E+00 -0.00000000000E+00 -0.87281166194E+03  0.87281166194E+03  0.00000000000E+00 0.  1.
         23    2    1    2    0    0 -0.53405515166E+03  0.10627299648E+04  0.45333576941E+03  0.12760181929E+04  0.89995697960E+02 0.  0.
         13    1    3    3    0    0 -0.26732429965E+03  0.43380484873E+03  0.20039278502E+03  0.54754561112E+03  0.00000000000E+00 0. -1.
        -13    1    3    3    0    0 -0.26673085201E+03  0.62892511606E+03  0.25294298439E+03  0.72847258176E+03  0.00000000000E+00 0.  1.
         22    1    1    2    0    0  0.53405515166E+03 -0.10627299648E+04  0.30488949898E+03  0.12278303994E+04  0.00000000000E+00 0. -1.
<mgrwt>
<rscale>  0 0.23862842E+04</rscale>
<asrwt>0</asrwt>
<pdfrwt beam="1">  1        1 0.25092876E+00 0.23862842E+04</pdfrwt>
<pdfrwt beam="2">  1       -1 0.13427872E+00 0.23862842E+04</pdfrwt>
<totfact> 0.22260773E+00</totfact>
</mgrwt>
</event>
<event>
 6    1  0.8968082E-007  0.2052194E+04  0.7818608E-02  0.8582600E-01
          2   -1    0    0  501    0  0.00000000000E+00  0.00000000000E+00  0.19230188049E+04  0.19230188049E+04  0.00000000000E+00 0. -1.
         -2   -1    0    0    0  501 -0.00000000000E+00 -0.00000000000E+00 -0.54751175728E+03  0.54751175728E+03  0.00000000000E+00 0.  1.
         23    2    1    2    0    0 -0.85693127532E+03  0.50754786603E+03  0.97587915251E+03  0.13973863494E+04  0.91719366668E+02 0.  0.
         11    1    3    3    0    0 -0.37929991770E+03  0.17872582340E+03  0.44051120045E+03  0.60816236750E+03  0.00000000000E+00 0. -1.
        -11    1    3    3    0    0 -0.47763135762E+03  0.32882204263E+03  0.53536795206E+03  0.78922398189E+03  0.00000000000E+00 0.  1.
         22    1    1    2    0    0  0.85693127532E+03 -0.50754786603E+03  0.39962789515E+03  0.10731442128E+04  0.00000000000E+00 0.  1.
<mgrwt>
<rscale>  0 0.20521943E+04</rscale>
<asrwt>0</asrwt>
<pdfrwt beam="1">  1        2 0.29584904E+00 0.20521943E+04</pdfrwt>
<pdfrwt beam="2">  1       -2 0.84232579E-01 0.20521943E+04</pdfrwt>
<totfact> 0.83898185E+00</totfact>
</mgrwt>
</event>
<event>
 6    1  0.8968082E-007  0.4161176E+03  0.7818608E-02  0.1038337E+00
          4   -1    0    0  501    0  0.00000000000E+00  0.00000000000E+00  0.37455962542E+02  0.37455962542E+02  0.00000000000E+00 0. -1.
         -4   -1    0    0    0  501 -0.00000000000E+00 -0.00000000000E+00 -0.11557163116E+04  0.11557163116E+04  0.00000000000E+00 0.  1.
         23    2    1    2    0    0  0.13102130772E+03  0.11529284675E+02 -0.10111691047E+04  0.10235608296E+04  0.88962386657E+02 0.  0.
         11    1    3    3    0    0  0.87643620012E+02  0.49352397537E+02 -0.68667067824E+03  0.69399833114E+03  0.00000000000E+00 0.  1.
        -11    1    3    3    0    0  0.43377687705E+02 -0.37823112862E+02 -0.32449842643E+03  0.32956249850E+03  0.00000000000E+00 0. -1.
         22    1    1    2    0    0 -0.13102130772E+03 -0.11529284675E+02 -0.10709124436E+03  0.16961144448E+03  0.00000000000E+00 0. -1.
<mgrwt>
<rscale>  0 0.41611761E+03</rscale>
<asrwt>0</asrwt>
<pdfrwt beam="1">  1        4 0.57624568E-02 0.41611761E+03</pdfrwt>
<pdfrwt beam="2">  1       -4 0.17780248E+00 0.41611761E+03</pdfrwt>
<totfact> 0.73171844E+01</totfact>
</mgrwt>
</event>
<event>
 6    1  0.8968082E-007  0.1042791E+04  0.7818608E-02  0.9262818E-01
         -1   -1    0    0    0  501 -0.00000000000E+00  0.00000000000E+00  0.58258096469E+03  0.58258096469E+03  0.00000000000E+00 0.  1.
          1   -1    0    0  501    0  0.00000000000E+00 -0.00000000000E+00 -0.46663634783E+03  0.46663634783E+03  0.00000000000E+00 0. -1.
         23    2    1    2    0    0 -0.12102571780E+03 -0.42592742597E+03  0.32784604986E+03  0.55833686489E+03  0.90529695288E+02 0.  0.
         13    1    3    3    0    0  0.10142876917E+02 -0.76614442413E+02  0.39594655230E+02  0.86835404423E+02  0.00000000000E+00 0. -1.
        -13    1    3    3    0    0 -0.13116859471E+03 -0.34931298355E+03  0.28825139463E+03  0.47150146047E+03  0.00000000000E+00 0.  1.
         22    1    1    2    0    0  0.12102571780E+03  0.42592742597E+03 -0.21190143300E+03  0.49088044763E+03  0.00000000000E+00 0. -1.
<mgrwt>
<rscale>  0 0.10427914E+04</rscale>
<asrwt>0</asrwt>
<pdfrwt beam="1">  1        1 0.71790208E-01 0.10427914E+04</pdfrwt>
<pdfrwt beam="2">  1       -1 0.89627840E-01 0.10427914E+04</pdfrwt>
<totfact> 0.59452142E+01</totfact>
</mgrwt>
</event>
<event>
 6    1  0.8968082E-007  0.2603871E+04  0.7818608E-02  0.8366888E-01
         -2   -1    0    0    0  501 -0.00000000000E+00  0.00000000000E+00  0.10287081272E+04  0.10287081272E+04  0.00000000000E+00 0.  1.
          2   -1    0    0  501    0  0.00000000000E+00 -0.00000000000E+00 -0.16477321271E+04  0.16477321271E+04  0.00000000000E+00 0. -1.
         23    2    1    2    0    0  0.50544960511E+03  0.11887606744E+04 -0.46386686088E+03  0.13754002925E+04  0.89007054457E+02 0.  0.
         13    1    3    3    0    0  0.43439006845E+03  0.98049547781E+03 -0.35314297139E+03  0.11290598176E+04  0.00000000000E+00 0.  1.
        -13    1    3    3    0    0  0.71059536662E+02  0.20826519662E+03 -0.11072388948E+03  0.24634047490E+03  0.00000000000E+00 0. -1.
         22    1    1    2    0    0 -0.50544960511E+03 -0.11887606744E+04 -0.15515713900E+03  0.13010399618E+04  0.00000000000E+00 0.  1.
<mgrwt>
<rscale>  0 0.26038705E+04</rscale>
<asrwt>0</asrwt>
<pdfrwt beam="1">  1        2 0.25349725E+00 0.26038705E+04</pdfrwt>
<pdfrwt beam="2">  1       -2 0.15826279E+00 0.26038705E+04</pdfrwt>
<totfact> 0.24068012E+00</totfact>
</mgrwt>
</event>
<event>
 6    1  0.8968082E-007  0.4186071E+04  0.7818608E-02  0.7968027E-01
         -2   -1    0    0    0  501 -0.00000000000E+00  0.00000000000E+00  0.26895521473E+04  0.26895521473E+04  0.00000000000E+00 0.  1.
          2   -1    0    0  501    0  0.00000000000E+00 -0.00000000000E+00 -0.16288207413E+04  0.16288207413E+04  0.00000000000E+00 0. -1.
         23    2    1    2    0    0 -0.31266857708E+03  0.71770694706E+03  0.25318578460E+04  0.26519161975E+04  0.97419019161E+02 0.  0.
         13    1    3    3    0    0 -0.17921921525E+03  0.48413551077E+03  0.15399156756E+04  0.16241450082E+04  0.00000000000E+00 0. -1.
        -13    1    3    3    0    0 -0.13344936183E+03  0.23357143629E+03  0.99194217039E+03  0.10277711892E+04  0.00000000000E+00 0.  1.
         22    1    1    2    0    0  0.31266857708E+03 -0.71770694706E+03 -0.14711264400E+04  0.16664566911E+04  0.00000000000E+00 0. -1.
<mgrwt>
<rscale>  0 0.41860713E+04</rscale>
<asrwt>0</asrwt>
<pdfrwt beam="1">  1        2 0.25058781E+00 0.41860713E+04</pdfrwt>
<pdfrwt beam="2">  1       -2 0.41377725E+00 0.41860713E+04</pdfrwt>
<totfact> 0.50318265E-02</totfact>
</mgrwt>
</event>
<event>
 6    1  0.8968082E-007  0.1802224E+04  0.7818608E-02  0.8705118E-01
         -1   -1    0    0    0  501 -0.00000000000E+00  0.00000000000E+00  0.78723413233E+03  0.78723413233E+03  0.00000000000E+00 0.  1.
          1   -1    0    0  501    0  0.00000000000E+00 -0.00000000000E+00 -0.10314630797E+04  0.10314630797E+04  0.00000000000E+00 0. -1.
         23    2    1    2    0    0 -0.14240437298E+03 -0.20405350584E+03 -0.99402864464E+03  0.10286868168E+04  0.90480837350E+02 0.  0.
         11    1    3    3    0    0 -0.15378283383E+03 -0.18721902536E+03 -0.87442167366E+03  0.90736618121E+03  0.00000000000E+00 0. -1.
        -11    1    3    3    0    0  0.11378460843E+02 -0.16834480482E+02 -0.11960697098E+03  0.12132063556E+03  0.00000000000E+00 0.  1.
         22    1    1    2    0    0  0.14240437298E+03  0.20405350584E+03  0.74979969724E+03  0.79001039529E+03  0.00000000000E+00 0.  1.
<mgrwt>
<rscale>  0 0.18022241E+04</rscale>
<asrwt>0</asrwt>
<pdfrwt beam="1">  1        1 0.15868663E+00 0.18022241E+04</pdfrwt>
<pdfrwt beam="2">  1       -1 0.12111294E+00 0.18022241E+04</pdfrwt>
<totfact> 0.81670082E+00</totfact>
</mgrwt>
</event>
<event>
 6    1  0.8968082E-007  0.4239097E+04  0.7818608E-02  0.7957977E-01
          2   -1    0    0  501    0  0.00000000000E+00  0.00000000000E+00  0.21904015607E+04  0.21904015607E+04  0.00000000000E+00 0. -1.
         -2   -1    0    0    0  501 -0.00000000000E+00 -0.00000000000E+00 -0.20509877304E+04  0.20509877304E+04  0.00000000000E+00 0.  1.
         23    2    1    2    0    0 -0.15382114443E+04  0.87189648253E+03  0.12374031215E+04  0.21600727829E+04  0.91923983051E+02 0.  0.
         13    1    3    3    0    0 -0.20835031055E+03  0.96589973568E+02  0.13140398192E+03  0.26458737945E+03  0.00000000000E+00 0.  1.
        -13    1    3    3    0    0 -0.13298611337E+04  0.77530650896E+03  0.11059991396E+04  0.18954854034E+04  0.00000000000E+00 0. -1.
         22    1    1    2    0    0  0.15382114443E+04 -0.87189648253E+03 -0.10979892913E+04  0.20813165082E+04  0.00000000000E+00 0.  1.
<mgrwt>
<rscale>  0 0.42390974E+04</rscale>
<asrwt>0</asrwt>
<pdfrwt beam="1">  1        2 0.33698485E+00 0.42390974E+04</pdfrwt>
<pdfrwt beam="2">  1       -2 0.31553658E+00 0.42390974E+04</pdfrwt>
<totfact> 0.10321912E-01</totfact>
</mgrwt>
</event>
<event>
 6    1  0.8968082E-007  0.1920639E+04  0.7818608E-02  0.8644651E-01
          2   -1    0    0  501    0  0.00000000000E+00  0.00000000000E+00  0.26045895527E+04  0.26045895527E+04  0.00000000000E+00 0. -1.
         -2   -1    0    0    0  501 -0.00000000000E+00 -0.00000000000E+00 -0.35407260016E+03  0.35407260016E+03  0.00000000000E+00 0.  1.
         23    2    1    2    0    0  0.68810577979E+03 -0.49594507107E+03  0.18142784756E+04  0.20048513297E+04  0.91495297354E+02 0.  0.
         13    1    3    3    0    0  0.37557347175E+03 -0.26243308204E+03  0.87308060741E+03  0.98600015328E+03  0.00000000000E+00 0. -1.
        -13    1    3    3    0    0  0.31253230804E+03 -0.23351198902E+03  0.94119786818E+03  0.10188511764E+04  0.00000000000E+00 0.  1.
         22    1    1    2    0    0 -0.68810577979E+03  0.49594507107E+03  0.43623847699E+03  0.95381082322E+03  0.00000000000E+00 0.  1.
<mgrwt>
<rscale>  0 0.19206393E+04</rscale>
<asrwt>0</asrwt>
<pdfrwt beam="1">  1        2 0.40070607E+00 0.19206393E+04</pdfrwt>
<pdfrwt beam="2">  1       -2 0.54472709E-01 0.19206393E+04</pdfrwt>
<totfact> 0.89795792E+00</totfact>
</mgrwt>
</event>
<event>
 6    1  0.8968082E-007  0.1095640E+04  0.7818608E-02  0.9209452E-01
          2   -1    0    0  501    0  0.00000000000E+00  0.00000000000E+00  0.95915728139E+03  0.95915728139E+03  0.00000000000E+00 0. -1.
         -2   -1    0    0    0  501 -0.00000000000E+00 -0.00000000000E+00 -0.31288575495E+03  0.31288575495E+03  0.00000000000E+00 0.  1.
         23    2    1    2    0    0 -0.34683216376E+02 -0.39998439331E+03  0.75167353062E+03  0.85695265718E+03  0.90356624718E+02 0.  0.
         11    1    3    3    0    0 -0.48392971139E+02 -0.34538693387E+03  0.58547946248E+03  0.68148383306E+03  0.00000000000E+00 0.  1.
        -11    1    3    3    0    0  0.13709754763E+02 -0.54597459443E+02  0.16619406814E+03  0.17546882412E+03  0.00000000000E+00 0. -1.
         22    1    1    2    0    0  0.34683216376E+02  0.39998439331E+03 -0.10540200418E+03  0.41509037916E+03  0.00000000000E+00 0.  1.
<mgrwt>
<rscale>  0 0.10956398E+04</rscale>
<asrwt>0</asrwt>
<pdfrwt beam="1">  1        2 0.14756266E+00 0.10956398E+04</pdfrwt>
<pdfrwt beam="2">  1       -2 0.48136270E-01 0.10956398E+04</pdfrwt>
<totfact> 0.10869202E+02</totfact>
</mgrwt>
</event>
<event>
 6    1  0.8968082E-007  0.4823222E+04  0.7818608E-02  0.7856371E-01
         -1   -1    0    0    0  501 -0.00000000000E+00  0.00000000000E+00  0.26917606146E+04  0.26917606146E+04  0.00000000000E+00 0.  1.
          1   -1    0    0  501    0  0.00000000000E+00 -0.00000000000E+00 -0.21606182017E+04  0.21606182017E+04  0.00000000000E+00 0. -1.
         23    2    1    2    0    0 -0.16698244170E+04 -0.12202384043E+04  0.15118273144E+04  0.25634842747E+04  0.92382092355E+02 0.  0.
         11    1    3    3    0    0 -0.92885818454E+03 -0.63493059891E+03  0.85833615063E+03  0.14151520554E+04  0.00000000000E+00 0. -1.
        -11    1    3    3    0    0 -0.74096623246E+03 -0.58530780540E+03  0.65349116376E+03  0.11483322193E+04  0.00000000000E+00 0.  1.
         22    1    1    2    0    0  0.16698244170E+04  0.12202384043E+04 -0.98068490149E+03  0.22888945417E+04  0.00000000000E+00 0.  1.
<mgrwt>
<rscale>  0 0.48232217E+04</rscale>
<asrwt>0</asrwt>
<pdfrwt beam="1">  1        1 0.33240280E+00 0.48232217E+04</pdfrwt>
<pdfrwt beam="2">  1       -1 0.41411702E+00 0.48232217E+04</pdfrwt>
<totfact> 0.97164444E-03</totfact>
</mgrwt>
</event>
<event>
 6    1  0.9569970E-007  0.2326204E+04  0.7818608E-02  0.8467660E-01
         -1   -1    0    0    0  501 -0.00000000000E+00  0.00000000000E+00  0.62164443892E+03  0.62164443892E+03  0.00000000000E+00 0.  1.
          1   -1    0    0  501    0  0.00000000000E+00 -0.00000000000E+00 -0.21761731730E+04  0.21761731730E+04  0.00000000000E+00 0. -1.
         23    2    1    2    0    0 -0.50761671793E+03  0.36431638962E+03 -0.19559127838E+04  0.20551802042E+04  0.88145843013E+02 0.  0.
         13    1    3    3    0    0 -0.13091978195E+03  0.11671270102E+03 -0.66859544823E+03  0.69121756147E+03  0.00000000000E+00 0.  1.
        -13    1    3    3    0    0 -0.37669693598E+03  0.24760368860E+03 -0.12873173356E+04  0.13639626427E+04  0.00000000000E+00 0. -1.
         22    1    1    2    0    0  0.50761671793E+03 -0.36431638962E+03  0.40138404971E+03  0.74263740778E+03  0.00000000000E+00 0.  1.
<mgrwt>
<rscale>  0 0.23262037E+04</rscale>
<asrwt>0</asrwt>
<pdfrwt beam="1">  1        1 0.33479587E+00 0.23262037E+04</pdfrwt>
<pdfrwt beam="2">  1       -1 0.95637606E-01 0.23262037E+04</pdfrwt>
<totfact> 0.21508152E+00</totfact>
</mgrwt>
</event>
<event>
 6    1  0.8968082E-007  0.5230160E+04  0.7818608E-02  0.7793951E-01
         -2   -1    0    0    0  501 -0.00000000000E+00  0.00000000000E+00  0.19197323789E+04  0.19197323789E+04  0.00000000000E+00 0.  1.
          2   -1    0    0  501    0  0.00000000000E+00 -0.00000000000E+00 -0.35622900204E+04  0.35622900204E+04  0.00000000000E+00 0. -1.
         23    2    1    2    0    0  0.18122374736E+04 -0.16138998159E+04  0.19803954558E+03  0.24362589020E+04  0.85208565365E+02 0.  0.
         11    1    3    3    0    0  0.12799204571E+04 -0.11286191557E+04  0.17735580042E+03  0.17156435105E+04  0.00000000000E+00 0.  1.
        -11    1    3    3    0    0  0.53231701650E+03 -0.48528066013E+03  0.20683745162E+02  0.72061539150E+03  0.00000000000E+00 0. -1.
         22    1    1    2    0    0 -0.18122374736E+04  0.16138998159E+04 -0.18405971871E+04  0.30457634973E+04  0.00000000000E+00 0.  1.
<mgrwt>
<rscale>  0 0.52301600E+04</rscale>
<asrwt>0</asrwt>
<pdfrwt beam="1">  1        2 0.54804461E+00 0.52301600E+04</pdfrwt>
<pdfrwt beam="2">  1       -2 0.29534345E+00 0.52301600E+04</pdfrwt>
<totfact> 0.17783339E-02</totfact>
</mgrwt>
</event>
<event>
 6    1  0.8968082E-007  0.4974056E+03  0.7818608E-02  0.1014458E+00
         -1   -1    0    0    0  501 -0.00000000000E+00  0.00000000000E+00  0.14942150652E+03  0.14942150652E+03  0.00000000000E+00 0.  1.
          1   -1    0    0  501    0  0.00000000000E+00 -0.00000000000E+00 -0.41395034686E+03  0.41395034686E+03  0.00000000000E+00 0. -1.
         23    2    1    2    0    0  0.56396510021E+02  0.21502724911E+03 -0.24123988513E+03  0.33985527763E+03  0.88812405383E+02 0.  0.
         11    1    3    3    0    0  0.27361783577E+02  0.80012956690E+02 -0.34713100393E+02  0.91409735683E+02  0.00000000000E+00 0.  1.
        -11    1    3    3    0    0  0.29034726444E+02  0.13501429242E+03 -0.20652678474E+03  0.24844554194E+03  0.00000000000E+00 0. -1.
         22    1    1    2    0    0 -0.56396510021E+02 -0.21502724911E+03 -0.23288955219E+02  0.22351657576E+03  0.00000000000E+00 0.  1.
<mgrwt>
<rscale>  0 0.49740561E+03</rscale>
<asrwt>0</asrwt>
<pdfrwt beam="1">  1        1 0.63684669E-01 0.49740561E+03</pdfrwt>
<pdfrwt beam="2">  1       -1 0.22987924E-01 0.49740561E+03</pdfrwt>
<totfact> 0.93004959E+02</totfact>
</mgrwt>
</event>
<event>
 6    1  0.8968082E-007  0.3747177E+04  0.7818608E-02  0.8057587E-01
          2   -1    0    0  501    0  0.00000000000E+00  0.00000000000E+00  0.34327596380E+04  0.34327596380E+04  0.00000000000E+00 0. -1.
         -2   -1    0    0    0  501 -0.00000000000E+00 -0.00000000000E+00 -0.10225981653E+04  0.10225981653E+04  0.00000000000E+00 0.  1.
         23    2    1    2    0    0 -0.90102057948E+03 -0.91430382577E+03 -0.41500686132E+03  0.13522358775E+04  0.92312528740E+02 0.  0.
         13    1    3    3    0    0 -0.29668984568E+03 -0.24321075409E+03 -0.13586750131E+03  0.40698441413E+03  0.00000000000E+00 0. -1.
        -13    1    3    3    0    0 -0.60433073380E+03 -0.67109307167E+03 -0.27913936001E+03  0.94525146336E+03  0.00000000000E+00 0.  1.
         22    1    1    2    0    0  0.90102057948E+03  0.91430382577E+03  0.28251683340E+04  0.31031219258E+04  0.00000000000E+00 0. -1.
<mgrwt>
<rscale>  0 0.37471769E+04</rscale>
<asrwt>0</asrwt>
<pdfrwt beam="1">  1        2 0.52811686E+00 0.37471769E+04</pdfrwt>
<pdfrwt beam="2">  1       -2 0.15732280E+00 0.37471769E+04</pdfrwt>
<totfact> 0.19195003E-01</totfact>
</mgrwt>
</event>
<event>
 6    1  0.8968082E-007  0.2863071E+04  0.7818608E-02  0.8283951E-01
         -2   -1    0    0    0  501 -0.00000000000E+00  0.00000000000E+00  0.64875479509E+03  0.64875479509E+03  0.00000000000E+00 0.  1.
          2   -1    0    0  501    0  0.00000000000E+00 -0.00000000000E+00 -0.31588109017E+04  0.31588109017E+04  0.00000000000E+00 0. -1.
         23    2    1    2    0    0  0.41524370031E+03  0.31837575972E+02 -0.30757255962E+04  0.31051249994E+04  0.90952497188E+02 0.  0.
         13    1    3    3    0    0  0.17722917001E+03  0.58624262012E+02 -0.13785419602E+04  0.13911236174E+04  0.00000000000E+00 0.  1.
        -13    1    3    3    0    0  0.23801453030E+03 -0.26786686040E+02 -0.16971836360E+04  0.17140013820E+04  0.00000000000E+00 0. -1.
         22    1    1    2    0    0 -0.41524370031E+03 -0.31837575972E+02  0.56566948960E+03  0.70244069740E+03  0.00000000000E+00 0.  1.
<mgrwt>
<rscale>  0 0.28630709E+04</rscale>
<asrwt>0</asrwt>
<pdfrwt beam="1">  1        2 0.48597090E+00 0.28630709E+04</pdfrwt>
<pdfrwt beam="2">  1       -2 0.99808431E-01 0.28630709E+04</pdfrwt>
<totfact> 0.99025581E-01</totfact>
</mgrwt>
</event>
<event>
 6    1  0.8968082E-007  0.2006626E+04  0.7818608E-02  0.8603529E-01
         -2   -1    0    0    0  501 -0.00000000000E+00  0.00000000000E+00  0.40466306816E+03  0.40466306816E+03  0.00000000000E+00 0.  1.
          2   -1    0    0  501    0  0.00000000000E+00 -0.00000000000E+00 -0.24875923110E+04  0.24875923110E+04  0.00000000000E+00 0. -1.
         23    2    1    2    0    0 -0.94262669635E+02 -0.12968840459E+03 -0.24682320156E+04  0.24749272590E+04  0.85971631374E+02 0.  0.
         11    1    3    3    0    0 -0.48976707666E+02 -0.12740289643E+03 -0.18850751984E+04  0.18900102432E+04  0.00000000000E+00 0. -1.
        -11    1    3    3    0    0 -0.45285961969E+02 -0.22855081568E+01 -0.58315681718E+03  0.58491701576E+03  0.00000000000E+00 0.  1.
         22    1    1    2    0    0  0.94262669635E+02  0.12968840459E+03  0.38530277276E+03  0.41732812015E+03  0.00000000000E+00 0.  1.
<mgrwt>
<rscale>  0 0.20066258E+04</rscale>
<asrwt>0</asrwt>
<pdfrwt beam="1">  1        2 0.38270650E+00 0.20066258E+04</pdfrwt>
<pdfrwt beam="2">  1       -2 0.62255857E-01 0.20066258E+04</pdfrwt>
<totfact> 0.78734933E+00</totfact>
</mgrwt>
</event>
<event>
 6    1  0.8968082E-007  0.2815000E+04  0.7818608E-02  0.8298627E-01
          2   -1    0    0  501    0  0.00000000000E+00  0.00000000000E+00  0.26711119885E+04  0.26711119885E+04  0.00000000000E+00 0. -1.
         -2   -1    0    0    0  501 -0.00000000000E+00 -0.00000000000E+00 -0.74165970163E+03  0.74165970163E+03  0.00000000000E+00 0.  1.
         23    2    1    2    0    0  0.94884839999E+03  0.28789608077E+03 -0.24245616529E+03  0.10252240437E+04  0.95403921327E+02 0.  0.
         11    1    3    3    0    0  0.73001640525E+03  0.18987090659E+03 -0.21188763370E+03  0.78349938253E+03  0.00000000000E+00 0. -1.
        -11    1    3    3    0    0  0.21883199473E+03  0.98025174182E+02 -0.30568531582E+02  0.24172466116E+03  0.00000000000E+00 0.  1.
         22    1    1    2    0    0 -0.94884839999E+03 -0.28789608077E+03  0.21719084522E+04  0.23875476465E+04  0.00000000000E+00 0. -1.
<mgrwt>
<rscale>  0 0.28149999E+04</rscale>
<asrwt>0</asrwt>
<pdfrwt beam="1">  1        2 0.41094030E+00 0.28149999E+04</pdfrwt>
<pdfrwt beam="2">  1       -2 0.11410149E+00 0.28149999E+04</pdfrwt>
<totfact> 0.14426753E+00</totfact>
</mgrwt>
</event>
<event>
 6    1  0.8968082E-007  0.2440508E+04  0.7818608E-02  0.8424492E-01
         -1   -1    0    0    0  501 -0.00000000000E+00  0.00000000000E+00  0.22901438219E+04  0.22901438219E+04  0.00000000000E+00 0.  1.
          1   -1    0    0  501    0  0.00000000000E+00 -0.00000000000E+00 -0.65018624405E+03  0.65018624405E+03  0.00000000000E+00 0. -1.
         23    2    1    2    0    0 -0.63557642050E+03 -0.91348837641E+03  0.22313914739E+03  0.11387216554E+04  0.92073498998E+02 0.  0.
         11    1    3    3    0    0 -0.17825993876E+03 -0.18837554037E+03  0.49172957861E+02  0.26396956219E+03  0.00000000000E+00 0.  1.
        -11    1    3    3    0    0 -0.45731648175E+03 -0.72511283603E+03  0.17396618952E+03  0.87475209320E+03  0.00000000000E+00 0. -1.
         22    1    1    2    0    0  0.63557642050E+03  0.91348837641E+03  0.14168184305E+04  0.18016084106E+04  0.00000000000E+00 0.  1.
<mgrwt>
<rscale>  0 0.24405082E+04</rscale>
<asrwt>0</asrwt>
<pdfrwt beam="1">  1        1 0.10002865E+00 0.24405082E+04</pdfrwt>
<pdfrwt beam="2">  1       -1 0.35232982E+00 0.24405082E+04</pdfrwt>
<totfact> 0.40779102E-01</totfact>
</mgrwt>
</event>
<event>
 6    1  0.8968082E-007  0.3824434E+04  0.7818608E-02  0.8040932E-01
         -2   -1    0    0    0  501 -0.00000000000E+00  0.00000000000E+00  0.79984119361E+03  0.79984119361E+03  0.00000000000E+00 0.  1.
          2   -1    0    0  501    0  0.00000000000E+00 -0.00000000000E+00 -0.45716245523E+04  0.45716245523E+04  0.00000000000E+00 0. -1.
         23    2    1    2    0    0  0.12649659966E+04 -0.14322679106E+04 -0.19297868146E+04  0.27173215130E+04  0.90712264263E+02 0.  0.
         11    1    3    3    0    0  0.10027185795E+04 -0.11180566115E+04 -0.15657153041E+04  0.21695528456E+04  0.00000000000E+00 0. -1.
        -11    1    3    3    0    0  0.26224741715E+03 -0.31421129909E+03 -0.36407151041E+03  0.54776866739E+03  0.00000000000E+00 0.  1.
         22    1    1    2    0    0 -0.12649659966E+04  0.14322679106E+04 -0.18419965441E+04  0.26541442329E+04  0.00000000000E+00 0.  1.
<mgrwt>
<rscale>  0 0.38244339E+04</rscale>
<asrwt>0</asrwt>
<pdfrwt beam="1">  1        2 0.70332685E+00 0.38244339E+04</pdfrwt>
<pdfrwt beam="2">  1       -2 0.12305249E+00 0.38244339E+04</pdfrwt>
<totfact> 0.41393164E-02</totfact>
</mgrwt>
</event>
<event>
 6    1  0.8968082E-007  0.6028948E+04  0.7818608E-02  0.7686823E-01
         -1   -1    0    0    0  501 -0.00000000000E+00  0.00000000000E+00  0.29918948623E+04  0.29918948623E+04  0.00000000000E+00 0.  1.
          1   -1    0    0  501    0  0.00000000000E+00 -0.00000000000E+00 -0.30372234740E+04  0.30372234740E+04  0.00000000000E+00 0. -1.
         23    2    1    2    0    0 -0.31210459787E+03 -0.17628651598E+04  0.24018319364E+04  0.29970072565E+04  0.90293926439E+02 0.  0.
         13    1    3    3    0    0 -0.18911712592E+03 -0.96928441268E+03  0.12550663583E+04  0.15970188239E+04  0.00000000000E+00 0. -1.
        -13    1    3    3    0    0 -0.12298747195E+03 -0.79358074716E+03  0.11467655780E+04  0.13999884326E+04  0.00000000000E+00 0.  1.
         22    1    1    2    0    0  0.31210459787E+03  0.17628651598E+04 -0.24471605481E+04  0.30321110798E+04  0.00000000000E+00 0. -1.
<mgrwt>
<rscale>  0 0.60289479E+04</rscale>
<asrwt>0</asrwt>
<pdfrwt beam="1">  1        1 0.46726515E+00 0.60289479E+04</pdfrwt>
<pdfrwt beam="2">  1       -1 0.46029152E+00 0.60289479E+04</pdfrwt>
<totfact> 0.10338732E-03</totfact>
</mgrwt>
</event>
<event>
 6    1  0.8968082E-007  0.4310620E+04  0.7818608E-02  0.7944657E-01
          2   -1    0    0  501    0  0.00000000000E+00  0.00000000000E+00  0.27709424622E+04  0.27709424622E+04  0.00000000000E+00 0. -1.
         -2   -1    0    0    0  501 -0.00000000000E+00 -0.00000000000E+00 -0.16764550563E+04  0.16764550563E+04  0.00000000000E+00 0.  1.
         23    2    1    2    0    0  0.21434153621E+03  0.85245241473E+03  0.25767839741E+04  0.27240807950E+04  0.90460572411E+02 0.  0.
         13    1    3    3    0    0  0.18580736514E+03  0.57321884827E+03  0.17213301827E+04  0.18237548691E+04  0.00000000000E+00 0.  1.
        -13    1    3    3    0    0  0.28534171069E+02  0.27923356645E+03  0.85545379139E+03  0.90032592585E+03  0.00000000000E+00 0. -1.
         22    1    1    2    0    0 -0.21434153621E+03 -0.85245241473E+03 -0.14822965681E+04  0.17233167235E+04  0.00000000000E+00 0.  1.
<mgrwt>
<rscale>  0 0.43106197E+04</rscale>
<asrwt>0</asrwt>
<pdfrwt beam="1">  1        2 0.42629884E+00 0.43106197E+04</pdfrwt>
<pdfrwt beam="2">  1       -2 0.25791616E+00 0.43106197E+04</pdfrwt>
<totfact> 0.10641695E-01</totfact>
</mgrwt>
</event>
<event>
 6    1  0.8968082E-007  0.1574992E+04  0.7818608E-02  0.8836060E-01
          1   -1    0    0  501    0  0.00000000000E+00  0.00000000000E+00  0.10812290668E+04  0.10812290668E+04  0.00000000000E+00 0. -1.
         -1   -1    0    0    0  501 -0.00000000000E+00 -0.00000000000E+00 -0.57356052748E+03  0.57356052748E+03  0.00000000000E+00 0.  1.
         23    2    1    2    0    0  0.36885891489E+03 -0.53289698270E+03 -0.21012507963E+03  0.68769923002E+03  0.93496463158E+02 0.  0.
         13    1    3    3    0    0  0.23055138134E+03 -0.31946627781E+03 -0.79974538407E+02  0.40200568266E+03  0.00000000000E+00 0. -1.
        -13    1    3    3    0    0  0.13830753355E+03 -0.21343070488E+03 -0.13015054122E+03  0.28569354736E+03  0.00000000000E+00 0.  1.
         22    1    1    2    0    0 -0.36885891489E+03  0.53289698270E+03  0.71779361899E+03  0.96709036430E+03  0.00000000000E+00 0. -1.
<mgrwt>
<rscale>  0 0.15749925E+04</rscale>
<asrwt>0</asrwt>
<pdfrwt beam="1">  1        1 0.16634293E+00 0.15749925E+04</pdfrwt>
<pdfrwt beam="2">  1       -1 0.88240081E-01 0.15749925E+04</pdfrwt>
<totfact> 0.15894552E+01</totfact>
</mgrwt>
</event>
<event>
 6    1  0.8968082E-007  0.3555048E+04  0.7818608E-02  0.8100867E-01
         -2   -1    0    0    0  501 -0.00000000000E+00  0.00000000000E+00  0.96731281805E+03  0.96731281805E+03  0.00000000000E+00 0.  1.
          2   -1    0    0  501    0  0.00000000000E+00 -0.00000000000E+00 -0.32663596190E+04  0.32663596190E+04  0.00000000000E+00 0. -1.
         23    2    1    2    0    0  0.10248653252E+04 -0.11455460368E+04 -0.89698897869E+02  0.15422336371E+04  0.88397069157E+02 0.  0.
         11    1    3    3    0    0  0.35094301032E+03 -0.45484225185E+03 -0.24148398974E+02  0.57500053542E+03  0.00000000000E+00 0.  1.
        -11    1    3    3    0    0  0.67392231490E+03 -0.69070378492E+03 -0.65550498895E+02  0.96723310165E+03  0.00000000000E+00 0. -1.
         22    1    1    2    0    0 -0.10248653252E+04  0.11455460368E+04 -0.22093479031E+04  0.26914388000E+04  0.00000000000E+00 0. -1.
<mgrwt>
<rscale>  0 0.35550480E+04</rscale>
<asrwt>0</asrwt>
<pdfrwt beam="1">  1        2 0.50251686E+00 0.35550480E+04</pdfrwt>
<pdfrwt beam="2">  1       -2 0.14881736E+00 0.35550480E+04</pdfrwt>
<totfact> 0.29318693E-01</totfact>
</mgrwt>
</event>
<event>
 6    1  0.8968082E-007  0.2852600E+04  0.7818608E-02  0.8287122E-01
          1   -1    0    0  501    0  0.00000000000E+00  0.00000000000E+00  0.16643405004E+04  0.16643405004E+04  0.00000000000E+00 0. -1.
         -1   -1    0    0    0  501 -0.00000000000E+00 -0.00000000000E+00 -0.12223051539E+04  0.12223051539E+04  0.00000000000E+00 0.  1.
         23    2    1    2    0    0  0.50662696883E+03 -0.10952662962E+04 -0.54430246484E+03  0.13280753405E+04  0.10601788389E+03 0.  0.
         13    1    3    3    0    0  0.20522311874E+03 -0.52750215876E+03 -0.29823569740E+03  0.63978088997E+03  0.00000000000E+00 0.  1.
        -13    1    3    3    0    0  0.30140385010E+03 -0.56776413746E+03 -0.24606676744E+03  0.68829445056E+03  0.00000000000E+00 0. -1.
         22    1    1    2    0    0 -0.50662696883E+03  0.10952662962E+04  0.98633781134E+03  0.15585703139E+04  0.00000000000E+00 0. -1.
<mgrwt>
<rscale>  0 0.28526002E+04</rscale>
<asrwt>0</asrwt>
<pdfrwt beam="1">  1        1 0.25605238E+00 0.28526002E+04</pdfrwt>
<pdfrwt beam="2">  1       -1 0.18804695E+00 0.28526002E+04</pdfrwt>
<totfact> 0.79243136E-01</totfact>
</mgrwt>
</event>
<event>
 6    1  0.8968082E-007  0.3521790E+03  0.7818608E-02  0.1061724E+00
         -1   -1    0    0    0  501 -0.00000000000E+00  0.00000000000E+00  0.54493260626E+03  0.54493260626E+03  0.00000000000E+00 0.  1.
          1   -1    0    0  501    0  0.00000000000E+00 -0.00000000000E+00 -0.56901548596E+02  0.56901548596E+02  0.00000000000E+00 0. -1.
         23    2    1    2    0    0 -0.92172134188E+02  0.93053523907E+02  0.90193118450E+02  0.18299088284E+03  0.90532888809E+02 0.  0.
         13    1    3    3    0    0 -0.65937487951E+02  0.29858211059E+02  0.88785629299E+02  0.11455196661E+03  0.00000000000E+00 0. -1.
        -13    1    3    3    0    0 -0.26234646237E+02  0.63195312848E+02  0.14074891506E+01  0.68438916231E+02  0.00000000000E+00 0.  1.
         22    1    1    2    0    0  0.92172134188E+02 -0.93053523907E+02  0.39783793922E+03  0.41884327202E+03  0.00000000000E+00 0.  1.
<mgrwt>
<rscale>  0 0.35217898E+03</rscale>
<asrwt>0</asrwt>
<pdfrwt beam="1">  1        1 0.87540848E-02 0.35217898E+03</pdfrwt>
<pdfrwt beam="2">  1       -1 0.83835782E-01 0.35217898E+03</pdfrwt>
<totfact> 0.11402684E+03</totfact>
</mgrwt>
</event>
<event>
 6    1  0.8968082E-007  0.1795898E+04  0.7818608E-02  0.8708484E-01
         -2   -1    0    0    0  501 -0.00000000000E+00  0.00000000000E+00  0.63842578984E+03  0.63842578984E+03  0.00000000000E+00 0.  1.
          2   -1    0    0  501    0  0.00000000000E+00 -0.00000000000E+00 -0.12629691060E+04  0.12629691060E+04  0.00000000000E+00 0. -1.
         23    2    1    2    0    0 -0.16965185897E+03 -0.77624523824E+03  0.12460059444E+03  0.80935321991E+03  0.90492559409E+02 0.  0.
         11    1    3    3    0    0 -0.10709873433E+03 -0.58390034175E+03  0.12701905057E+03  0.60707790867E+03  0.00000000000E+00 0.  1.
        -11    1    3    3    0    0 -0.62553124637E+02 -0.19234489649E+03 -0.24184561278E+01  0.20227531124E+03  0.00000000000E+00 0. -1.
         22    1    1    2    0    0  0.16965185897E+03  0.77624523824E+03 -0.74914391058E+03  0.10920416759E+04  0.00000000000E+00 0. -1.
<mgrwt>
<rscale>  0 0.17958976E+04</rscale>
<asrwt>0</asrwt>
<pdfrwt beam="1">  1        2 0.19430294E+00 0.17958976E+04</pdfrwt>
<pdfrwt beam="2">  1       -2 0.98219353E-01 0.17958976E+04</pdfrwt>
<totfact> 0.14147068E+01</totfact>
</mgrwt>
</event>
<event>
 6    1  0.8968082E-007  0.2668307E+04  0.7818608E-02  0.8345362E-01
          2   -1    0    0  501    0  0.00000000000E+00  0.00000000000E+00  0.20801898491E+04  0.20801898491E+04  0.00000000000E+00 0. -1.
         -2   -1    0    0    0  501 -0.00000000000E+00 -0.00000000000E+00 -0.85567450181E+03  0.85567450181E+03  0.00000000000E+00 0.  1.
         23    2    1    2    0    0 -0.68374885240E+03 -0.11432581454E+04  0.57518517457E+03  0.14539124780E+04  0.92042536340E+02 0.  0.
         11    1    3    3    0    0 -0.12915608149E+03 -0.17166506528E+03  0.12046305168E+03  0.24629562490E+03  0.00000000000E+00 0. -1.
        -11    1    3    3    0    0 -0.55459277091E+03 -0.97159308017E+03  0.45472212289E+03  0.12076168532E+04  0.00000000000E+00 0.  1.
         22    1    1    2    0    0  0.68374885240E+03  0.11432581454E+04  0.64933017273E+03  0.14819518729E+04  0.00000000000E+00 0. -1.
<mgrwt>
<rscale>  0 0.26683069E+04</rscale>
<asrwt>0</asrwt>
<pdfrwt beam="1">  1        2 0.32002921E+00 0.26683069E+04</pdfrwt>
<pdfrwt beam="2">  1       -2 0.13164223E+00 0.26683069E+04</pdfrwt>
<totfact> 0.22303478E+00</totfact>
</mgrwt>
</event>
<event>
 6    1  0.8968082E-007  0.4333433E+04  0.7818608E-02  0.7940465E-01
         -2   -1    0    0    0  501 -0.00000000000E+00  0.00000000000E+00  0.23312945260E+04  0.23312945260E+04  0.00000000000E+00 0.  1.
          2   -1    0    0  501    0  0.00000000000E+00 -0.00000000000E+00 -0.20137564358E+04  0.20137564358E+04  0.00000000000E+00 0. -1.
         23    2    1    2    0    0 -0.18444428769E+04 -0.44209164179E+03  0.12070522479E+04  0.22501404666E+04  0.93501041160E+02 0.  0.
         13    1    3    3    0    0 -0.64320762596E+03 -0.12674969726E+03  0.45947852364E+03  0.80056358244E+03  0.00000000000E+00 0. -1.
        -13    1    3    3    0    0 -0.12012352509E+04 -0.31534194453E+03  0.74757372426E+03  0.14495768842E+04  0.00000000000E+00 0.  1.
         22    1    1    2    0    0  0.18444428769E+04  0.44209164179E+03 -0.88951415768E+03  0.20949104951E+04  0.00000000000E+00 0. -1.
<mgrwt>
<rscale>  0 0.43334325E+04</rscale>
<asrwt>0</asrwt>
<pdfrwt beam="1">  1        2 0.30980869E+00 0.43334325E+04</pdfrwt>
<pdfrwt beam="2">  1       -2 0.35866069E+00 0.43334325E+04</pdfrwt>
<totfact> 0.69125458E-02</totfact>
</mgrwt>
</event>
<event>
 6    1  0.8968082E-007  0.2407621E+04  0.7818608E-02  0.8436656E-01
          2   -1    0    0  501    0  0.00000000000E+00  0.00000000000E+00  0.22897998389E+04  0.22897998389E+04  0.00000000000E+00 0. -1.
         -2   -1    0    0    0  501 -0.00000000000E+00 -0.00000000000E+00 -0.63287595243E+03  0.63287595243E+03  0.00000000000E+00 0.  1.
         23    2    1    2    0    0  0.56490441108E+02 -0.11809236931E+04  0.10937281423E+04  0.16131104493E+04  0.90067381883E+02 0.  0.
         13    1    3    3    0    0  0.21610773898E+02 -0.83975436167E+03  0.72603321765E+03  0.11103056546E+04  0.00000000000E+00 0.  1.
        -13    1    3    3    0    0  0.34879667210E+02 -0.34116933147E+03  0.36769492465E+03  0.50280479466E+03  0.00000000000E+00 0. -1.
         22    1    1    2    0    0 -0.56490441108E+02  0.11809236931E+04  0.56319574422E+03  0.13095653421E+04  0.00000000000E+00 0. -1.
<mgrwt>
<rscale>  0 0.24076206E+04</rscale>
<asrwt>0</asrwt>
<pdfrwt beam="1">  1        2 0.35227690E+00 0.24076206E+04</pdfrwt>
<pdfrwt beam="2">  1       -2 0.97365532E-01 0.24076206E+04</pdfrwt>
<totfact> 0.36318613E+00</totfact>
</mgrwt>
</event>
<event>
 6    1  0.8968082E-007  0.2241503E+04  0.7818608E-02  0.8501350E-01
          2   -1    0    0  501    0  0.00000000000E+00  0.00000000000E+00  0.25611459277E+04  0.25611459277E+04  0.00000000000E+00 0. -1.
         -2   -1    0    0    0  501 -0.00000000000E+00 -0.00000000000E+00 -0.49043803322E+03  0.49043803322E+03  0.00000000000E+00 0.  1.
         23    2    1    2    0    0  0.62025813665E+03 -0.42418405794E+03  0.21656891043E+04  0.22941714569E+04  0.91439083140E+02 0.  0.
         13    1    3    3    0    0  0.22596464875E+03 -0.20639503430E+03  0.83567650140E+03  0.88995176704E+03  0.00000000000E+00 0.  1.
        -13    1    3    3    0    0  0.39429348791E+03 -0.21778902364E+03  0.13300126029E+04  0.14042196899E+04  0.00000000000E+00 0. -1.
         22    1    1    2    0    0 -0.62025813665E+03  0.42418405794E+03 -0.94981209819E+02  0.75741250406E+03  0.00000000000E+00 0.  1.
<mgrwt>
<rscale>  0 0.22415025E+04</rscale>
<asrwt>0</asrwt>
<pdfrwt beam="1">  1        2 0.39402244E+00 0.22415025E+04</pdfrwt>
<pdfrwt beam="2">  1       -2 0.75452006E-01 0.22415025E+04</pdfrwt>
<totfact> 0.46036798E+00</totfact>
</mgrwt>
</event>
<event>
 6    1  0.8968082E-007  0.3319716E+04  0.7818608E-02  0.8157897E-01
          2   -1    0    0  501    0  0.00000000000E+00  0.00000000000E+00  0.20584846735E+04  0.20584846735E+04  0.00000000000E+00 0. -1.
         -2   -1    0    0    0  501 -0.00000000000E+00 -0.00000000000E+00 -0.13384252821E+04  0.13384252821E+04  0.00000000000E+00 0.  1.
         23    2    1    2    0    0  0.51433331695E+03 -0.14684261447E+04  0.94826147909E+03  0.18243673341E+04  0.91116593729E+02 0.  0.
         13    1    3    3    0    0  0.35708334959E+03 -0.11357113327E+04  0.72946477202E+03  0.13962333628E+04  0.00000000000E+00 0. -1.
        -13    1    3    3    0    0  0.15724996736E+03 -0.33271481200E+03  0.21879670707E+03  0.42813397130E+03  0.00000000000E+00 0.  1.
         22    1    1    2    0    0 -0.51433331695E+03  0.14684261447E+04 -0.22820208766E+03  0.15725426214E+04  0.00000000000E+00 0.  1.
<mgrwt>
<rscale>  0 0.33197156E+04</rscale>
<asrwt>0</asrwt>
<pdfrwt beam="1">  1        2 0.31668995E+00 0.33197156E+04</pdfrwt>
<pdfrwt beam="2">  1       -2 0.20591158E+00 0.33197156E+04</pdfrwt>
<totfact> 0.62898759E-01</totfact>
</mgrwt>
</event>
<event>
 6    1  0.8968082E-007  0.3065690E+04  0.7818608E-02  0.8225218E-01
         -1   -1    0    0    0  501 -0.00000000000E+00  0.00000000000E+00  0.15727407311E+04  0.15727407311E+04  0.00000000000E+00 0.  1.
          1   -1    0    0  501    0  0.00000000000E+00 -0.00000000000E+00 -0.14939613506E+04  0.14939613506E+04  0.00000000000E+00 0. -1.
         23    2    1    2    0    0  0.11334094955E+04  0.90155655921E+03 -0.45837322614E+03  0.15220486460E+04  0.95418825982E+02 0.  0.
         13    1    3    3    0    0  0.11133169494E+03  0.11410412939E+03 -0.74093672940E+02  0.17579639078E+03  0.00000000000E+00 0. -1.
        -13    1    3    3    0    0  0.10220778005E+04  0.78745242982E+03 -0.38427955320E+03  0.13462522552E+04  0.00000000000E+00 0.  1.
         22    1    1    2    0    0 -0.11334094955E+04 -0.90155655921E+03  0.53715260660E+03  0.15446534358E+04  0.00000000000E+00 0. -1.
<mgrwt>
<rscale>  0 0.30656900E+04</rscale>
<asrwt>0</asrwt>
<pdfrwt beam="1">  1        1 0.22984021E+00 0.30656900E+04</pdfrwt>
<pdfrwt beam="2">  1       -1 0.24196011E+00 0.30656900E+04</pdfrwt>
<totfact> 0.43995861E-01</totfact>
</mgrwt>
</event>
<event>
 6    1  0.8968082E-007  0.4359108E+03  0.7818608E-02  0.1032009E+00
         -2   -1    0    0    0  501 -0.00000000000E+00  0.00000000000E+00  0.10245588841E+04  0.10245588841E+04  0.00000000000E+00 0.  1.
          2   -1    0    0  501    0  0.00000000000E+00 -0.00000000000E+00 -0.46365866703E+02  0.46365866703E+02  0.00000000000E+00 0. -1.
         23    2    1    2    0    0  0.19726550273E+03  0.61274990871E+02  0.57845672696E+03  0.62097208111E+03  0.91246027158E+02 0.  0.
         13    1    3    3    0    0  0.12108182247E+03  0.82059852243E+02  0.35394627811E+03  0.38297858278E+03  0.00000000000E+00 0. -1.
        -13    1    3    3    0    0  0.76183680263E+02 -0.20784861372E+02  0.22451044885E+03  0.23799349833E+03  0.00000000000E+00 0.  1.
         22    1    1    2    0    0 -0.19726550273E+03 -0.61274990871E+02  0.39973629042E+03  0.44995266969E+03  0.00000000000E+00 0.  1.
<mgrwt>
<rscale>  0 0.43591082E+03</rscale>
<asrwt>0</asrwt>
<pdfrwt beam="1">  1        2 0.71332110E-02 0.43591082E+03</pdfrwt>
<pdfrwt beam="2">  1       -2 0.15762443E+00 0.43591082E+03</pdfrwt>
<totfact> 0.27489704E+02</totfact>
</mgrwt>
</event>
<event>
 6    1  0.8968082E-007  0.8624927E+03  0.7818608E-02  0.9473721E-01
         -1   -1    0    0    0  501 -0.00000000000E+00  0.00000000000E+00  0.63755028489E+03  0.63755028489E+03  0.00000000000E+00 0.  1.
          1   -1    0    0  501    0  0.00000000000E+00 -0.00000000000E+00 -0.29169997148E+03  0.29169997148E+03  0.00000000000E+00 0. -1.
         23    2    1    2    0    0  0.26099272453E+02 -0.35395817820E+03 -0.80054264993E+02  0.37484762846E+03  0.90191436829E+02 0.  0.
         11    1    3    3    0    0  0.17676356952E+02 -0.25833351027E+03 -0.15974258821E+02  0.25942982301E+03  0.00000000000E+00 0. -1.
        -11    1    3    3    0    0  0.84229155011E+01 -0.95624667937E+02 -0.64080006172E+02  0.11541780545E+03  0.00000000000E+00 0.  1.
         22    1    1    2    0    0 -0.26099272453E+02  0.35395817820E+03  0.42590457840E+03  0.55440262792E+03  0.00000000000E+00 0.  1.
<mgrwt>
<rscale>  0 0.86249267E+03</rscale>
<asrwt>0</asrwt>
<pdfrwt beam="1">  1        1 0.44876919E-01 0.86249267E+03</pdfrwt>
<pdfrwt beam="2">  1       -1 0.98084659E-01 0.86249267E+03</pdfrwt>
<totfact> 0.91519486E+01</totfact>
</mgrwt>
</event>
<event>
 6    1  0.8968082E-007  0.2765064E+04  0.7818608E-02  0.8314197E-01
         -1   -1    0    0    0  501 -0.00000000000E+00  0.00000000000E+00  0.18478187353E+04  0.18478187353E+04  0.00000000000E+00 0.  1.
          1   -1    0    0  501    0  0.00000000000E+00 -0.00000000000E+00 -0.10344057006E+04  0.10344057006E+04  0.00000000000E+00 0. -1.
         23    2    1    2    0    0  0.48374678454E+03  0.90579251835E+03 -0.55530968495E+03  0.11711215982E+04  0.93198250063E+02 0.  0.
         11    1    3    3    0    0  0.14692945709E+03  0.22222269990E+03 -0.10777406870E+03  0.28737857192E+03  0.00000000000E+00 0. -1.
        -11    1    3    3    0    0  0.33681732744E+03  0.68356981845E+03 -0.44753561625E+03  0.88374302632E+03  0.00000000000E+00 0.  1.
         22    1    1    2    0    0 -0.48374678454E+03 -0.90579251835E+03  0.13687227197E+04  0.17111028377E+04  0.00000000000E+00 0.  1.
<mgrwt>
<rscale>  0 0.27650636E+04</rscale>
<asrwt>0</asrwt>
<pdfrwt beam="1">  1        1 0.15913934E+00 0.27650636E+04</pdfrwt>
<pdfrwt beam="2">  1       -1 0.28427981E+00 0.27650636E+04</pdfrwt>
<totfact> 0.51580726E-01</totfact>
</mgrwt>
</event>
<event>
 6    1  0.8968082E-007  0.2333492E+04  0.7818608E-02  0.8464831E-01
          2   -1    0    0  501    0  0.00000000000E+00  0.00000000000E+00  0.18223816987E+04  0.18223816987E+04  0.00000000000E+00 0. -1.
         -2   -1    0    0    0  501 -0.00000000000E+00 -0.00000000000E+00 -0.74698771123E+03  0.74698771123E+03  0.00000000000E+00 0.  1.
         23    2    1    2    0    0  0.87813484141E+03 -0.27912480392E+03 -0.24632460801E+03  0.95816752888E+03  0.91530022579E+02 0.  0.
         13    1    3    3    0    0  0.82088891126E+03 -0.25440977041E+03 -0.25190152787E+03  0.89556536091E+03  0.00000000000E+00 0. -1.
        -13    1    3    3    0    0  0.57245930148E+02 -0.24715033518E+02  0.55769198645E+01  0.62602167977E+02  0.00000000000E+00 0.  1.
         22    1    1    2    0    0 -0.87813484141E+03  0.27912480392E+03  0.13217185955E+04  0.16112018810E+04  0.00000000000E+00 0. -1.
<mgrwt>
<rscale>  0 0.23334924E+04</rscale>
<asrwt>0</asrwt>
<pdfrwt beam="1">  1        2 0.28036641E+00 0.23334924E+04</pdfrwt>
<pdfrwt beam="2">  1       -2 0.11492119E+00 0.23334924E+04</pdfrwt>
<totfact> 0.44782047E+00</totfact>
</mgrwt>
</event>
<event>
 6    1  0.8968082E-007  0.3143174E+04  0.7818608E-02  0.8203988E-01
          1   -1    0    0  501    0  0.00000000000E+00  0.00000000000E+00  0.26008894232E+04  0.26008894232E+04  0.00000000000E+00 0. -1.
         -1   -1    0    0    0  501 -0.00000000000E+00 -0.00000000000E+00 -0.94963102537E+03  0.94963102537E+03  0.00000000000E+00 0.  1.
         23    2    1    2    0    0  0.26826037841E+03  0.12722922411E+04 -0.16817692759E+03  0.13142208084E+04  0.90563110212E+02 0.  0.
         13    1    3    3    0    0  0.17068658602E+03  0.94321299567E+03 -0.94655184514E+02  0.96319482443E+03  0.00000000000E+00 0.  1.
        -13    1    3    3    0    0  0.97573792395E+02  0.32907924539E+03 -0.73521743079E+02  0.35102598396E+03  0.00000000000E+00 0. -1.
         22    1    1    2    0    0 -0.26826037841E+03 -0.12722922411E+04  0.18194353255E+04  0.22362996402E+04  0.00000000000E+00 0. -1.
<mgrwt>
<rscale>  0 0.31431737E+04</rscale>
<asrwt>0</asrwt>
<pdfrwt beam="1">  1        1 0.40013683E+00 0.31431737E+04</pdfrwt>
<pdfrwt beam="2">  1       -1 0.14609708E+00 0.31431737E+04</pdfrwt>
<totfact> 0.36259081E-01</totfact>
</mgrwt>
</event>
<event>
 6    1  0.8968082E-007  0.4823093E+04  0.7818608E-02  0.7856392E-01
         -3   -1    0    0    0  501 -0.00000000000E+00  0.00000000000E+00  0.21875620598E+04  0.21875620598E+04  0.00000000000E+00 0.  1.
          3   -1    0    0  501    0  0.00000000000E+00 -0.00000000000E+00 -0.26584647095E+04  0.26584647095E+04  0.00000000000E+00 0. -1.
         23    2    1    2    0    0  0.11135046624E+04 -0.11460884259E+04 -0.20491371967E+04  0.26000891925E+04  0.89940231334E+02 0.  0.
         11    1    3    3    0    0  0.62152063395E+03 -0.60210627462E+03 -0.10498391239E+04  0.13605080119E+04  0.00000000000E+00 0. -1.
        -11    1    3    3    0    0  0.49198402843E+03 -0.54398215125E+03 -0.99929807277E+03  0.12395811806E+04  0.00000000000E+00 0.  1.
         22    1    1    2    0    0 -0.11135046624E+04  0.11460884259E+04  0.15782345470E+04  0.22459375767E+04  0.00000000000E+00 0.  1.
<mgrwt>
<rscale>  0 0.48230930E+04</rscale>
<asrwt>0</asrwt>
<pdfrwt beam="1">  1        3 0.40899457E+00 0.48230930E+04</pdfrwt>
<pdfrwt beam="2">  1       -3 0.33654801E+00 0.48230930E+04</pdfrwt>
<totfact> 0.44860241E-04</totfact>
</mgrwt>
</event>
<event>
 6    1  0.8968082E-007  0.2521070E+04  0.7818608E-02  0.8395518E-01
         -1   -1    0    0    0  501 -0.00000000000E+00  0.00000000000E+00  0.77180954131E+03  0.77180954131E+03  0.00000000000E+00 0.  1.
          1   -1    0    0  501    0  0.00000000000E+00 -0.00000000000E+00 -0.20587312181E+04  0.20587312181E+04  0.00000000000E+00 0. -1.
         23    2    1    2    0    0 -0.39396226009E+03  0.10073346073E+04 -0.13672534482E+04  0.17459290930E+04  0.94642128128E+02 0.  0.
         13    1    3    3    0    0 -0.38640186775E+03  0.94971122822E+03 -0.13173105769E+04  0.16693007447E+04  0.00000000000E+00 0. -1.
        -13    1    3    3    0    0 -0.75603923397E+01  0.57623379111E+02 -0.49942871376E+02  0.76628348239E+02  0.00000000000E+00 0.  1.
         22    1    1    2    0    0  0.39396226009E+03 -0.10073346073E+04  0.80331771440E+02  0.10846116665E+04  0.00000000000E+00 0.  1.
<mgrwt>
<rscale>  0 0.25210699E+04</rscale>
<asrwt>0</asrwt>
<pdfrwt beam="1">  1        1 0.31672788E+00 0.25210699E+04</pdfrwt>
<pdfrwt beam="2">  1       -1 0.11873993E+00 0.25210699E+04</pdfrwt>
<totfact> 0.15312245E+00</totfact>
</mgrwt>
</event>
<event>
 6    1  0.8968082E-007  0.1079742E+04  0.7818608E-02  0.9225165E-01
          1   -1    0    0  501    0  0.00000000000E+00  0.00000000000E+00  0.65403153611E+03  0.65403153611E+03  0.00000000000E+00 0. -1.
         -1   -1    0    0    0  501 -0.00000000000E+00 -0.00000000000E+00 -0.44563720841E+03  0.44563720841E+03  0.00000000000E+00 0.  1.
         23    2    1    2    0    0 -0.27616895755E+03 -0.50502450910E+02 -0.36019427447E+03  0.46554510580E+03  0.90402099027E+02 0.  0.
         13    1    3    3    0    0 -0.18672872159E+03 -0.34391643698E+02 -0.17042580451E+03  0.25513791460E+03  0.00000000000E+00 0. -1.
        -13    1    3    3    0    0 -0.89440235964E+02 -0.16110807213E+02 -0.18976846996E+03  0.21040719120E+03  0.00000000000E+00 0.  1.
         22    1    1    2    0    0  0.27616895755E+03  0.50502450910E+02  0.56858860217E+03  0.63412363872E+03  0.00000000000E+00 0. -1.
<mgrwt>
<rscale>  0 0.10797422E+04</rscale>
<asrwt>0</asrwt>
<pdfrwt beam="1">  1        1 0.10062024E+00 0.10797422E+04</pdfrwt>
<pdfrwt beam="2">  1       -1 0.68559571E-01 0.10797422E+04</pdfrwt>
<totfact> 0.64857758E+01</totfact>
</mgrwt>
</event>
<event>
 6    1  0.8968082E-007  0.3186577E+04  0.7818608E-02  0.8192371E-01
          2   -1    0    0  501    0  0.00000000000E+00  0.00000000000E+00  0.27111281733E+04  0.27111281733E+04  0.00000000000E+00 0. -1.
         -2   -1    0    0    0  501 -0.00000000000E+00 -0.00000000000E+00 -0.93635134510E+03  0.93635134510E+03  0.00000000000E+00 0.  1.
         23    2    1    2    0    0 -0.14625121188E+04 -0.44088912286E+03  0.14014431562E+04  0.20749964671E+04  0.90788227064E+02 0.  0.
         11    1    3    3    0    0 -0.12104867787E+04 -0.33615499994E+03  0.11219842515E+04  0.16843773585E+04  0.00000000000E+00 0. -1.
        -11    1    3    3    0    0 -0.25202534010E+03 -0.10473412292E+03  0.27945890467E+03  0.39061910853E+03  0.00000000000E+00 0.  1.
         22    1    1    2    0    0  0.14625121188E+04  0.44088912286E+03  0.37333367210E+03  0.15724830514E+04  0.00000000000E+00 0.  1.
<mgrwt>
<rscale>  0 0.31865772E+04</rscale>
<asrwt>0</asrwt>
<pdfrwt beam="1">  1        2 0.41709664E+00 0.31865772E+04</pdfrwt>
<pdfrwt beam="2">  1       -2 0.14405405E+00 0.31865772E+04</pdfrwt>
<totfact> 0.73463230E-01</totfact>
</mgrwt>
</event>
<event>
 6    1  0.8968082E-007  0.1227771E+04  0.7818608E-02  0.9088890E-01
          2   -1    0    0  501    0  0.00000000000E+00  0.00000000000E+00  0.69021759823E+03  0.69021759823E+03  0.00000000000E+00 0. -1.
         -2   -1    0    0    0  501 -0.00000000000E+00 -0.00000000000E+00 -0.54599484367E+03  0.54599484367E+03  0.00000000000E+00 0.  1.
         23    2    1    2    0    0 -0.57666702845E+03  0.19844386160E+03  0.10055475138E+03  0.62479464497E+03  0.91281227279E+02 0.  0.
         11    1    3    3    0    0 -0.11948355380E+03  0.26417435201E+02 -0.13699430187E+02  0.12313356528E+03  0.00000000000E+00 0.  1.
        -11    1    3    3    0    0 -0.45718347465E+03  0.17202642639E+03  0.11425418157E+03  0.50166107969E+03  0.00000000000E+00 0. -1.
         22    1    1    2    0    0  0.57666702845E+03 -0.19844386160E+03  0.43668003179E+02  0.61141779693E+03  0.00000000000E+00 0. -1.
<mgrwt>
<rscale>  0 0.12277707E+04</rscale>
<asrwt>0</asrwt>
<pdfrwt beam="1">  1        2 0.10618732E+00 0.12277707E+04</pdfrwt>
<pdfrwt beam="2">  1       -2 0.83999207E-01 0.12277707E+04</pdfrwt>
<totfact> 0.50876919E+01</totfact>
</mgrwt>
</event>
<event>
 6    1  0.8968082E-007  0.2150972E+04  0.7818608E-02  0.8539116E-01
         -1   -1    0    0    0  501 -0.00000000000E+00  0.00000000000E+00  0.14164002349E+04  0.14164002349E+04  0.00000000000E+00 0.  1.
          1   -1    0    0  501    0  0.00000000000E+00 -0.00000000000E+00 -0.81662695578E+03  0.81662695578E+03  0.00000000000E+00 0. -1.
         23    2    1    2    0    0 -0.94290105500E+03  0.21451668656E+03 -0.18366738449E+03  0.98849551902E+03  0.91158513918E+02 0.  0.
         11    1    3    3    0    0 -0.79328375769E+03  0.19989044974E+03 -0.18236162699E+03  0.83815933754E+03  0.00000000000E+00 0.  1.
        -11    1    3    3    0    0 -0.14961729731E+03  0.14626236817E+02 -0.13057575040E+01  0.15033618148E+03  0.00000000000E+00 0. -1.
         22    1    1    2    0    0  0.94290105500E+03 -0.21451668656E+03  0.78344066360E+03  0.12445316716E+04  0.00000000000E+00 0.  1.
<mgrwt>
<rscale>  0 0.21509724E+04</rscale>
<asrwt>0</asrwt>
<pdfrwt beam="1">  1        1 0.12563492E+00 0.21509724E+04</pdfrwt>
<pdfrwt beam="2">  1       -1 0.21790773E+00 0.21509724E+04</pdfrwt>
<totfact> 0.22256200E+00</totfact>
</mgrwt>
</event>
<event>
 6    1  0.8968082E-007  0.1136208E+04  0.7818608E-02  0.9170602E-01
          2   -1    0    0  501    0  0.00000000000E+00  0.00000000000E+00  0.26116103601E+03  0.26116103601E+03  0.00000000000E+00 0. -1.
         -2   -1    0    0    0  501 -0.00000000000E+00 -0.00000000000E+00 -0.12357980573E+04  0.12357980573E+04  0.00000000000E+00 0.  1.
         23    2    1    2    0    0  0.20679469196E+03 -0.49605611121E+03 -0.71784577233E+03  0.90132711326E+03  0.90842182604E+02 0.  0.
         11    1    3    3    0    0 -0.88994028184E+01 -0.13995384747E+02 -0.16669920060E+02  0.23515024974E+02  0.00000000000E+00 0.  1.
        -11    1    3    3    0    0  0.21569409478E+03 -0.48206072647E+03 -0.70117585227E+03  0.87781208828E+03  0.00000000000E+00 0. -1.
         22    1    1    2    0    0 -0.20679469196E+03  0.49605611121E+03 -0.25679124892E+03  0.59563198002E+03  0.00000000000E+00 0. -1.
<mgrwt>
<rscale>  0 0.11362083E+04</rscale>
<asrwt>0</asrwt>
<pdfrwt beam="1">  1        2 0.40178621E-01 0.11362083E+04</pdfrwt>
<pdfrwt beam="2">  1       -2 0.19012278E+00 0.11362083E+04</pdfrwt>
<totfact> 0.19631502E+01</totfact>
</mgrwt>
</event>
<event>
 6    1  0.8968082E-007  0.2418793E+04  0.7818608E-02  0.8432501E-01
          2   -1    0    0  501    0  0.00000000000E+00  0.00000000000E+00  0.27125257058E+04  0.27125257058E+04  0.00000000000E+00 0. -1.
         -2   -1    0    0    0  501 -0.00000000000E+00 -0.00000000000E+00 -0.53921710417E+03  0.53921710417E+03  0.00000000000E+00 0.  1.
         23    2    1    2    0    0  0.29097459318E+03  0.58081391308E+03 -0.28062069447E+03  0.71328264567E+03  0.89516160214E+02 0.  0.
         11    1    3    3    0    0  0.11300948175E+03  0.17487355213E+03 -0.12848150947E+03  0.24466180837E+03  0.00000000000E+00 0.  1.
        -11    1    3    3    0    0  0.17796511143E+03  0.40594036095E+03 -0.15213918500E+03  0.46862083729E+03  0.00000000000E+00 0. -1.
         22    1    1    2    0    0 -0.29097459318E+03 -0.58081391308E+03  0.24539292961E+04  0.25384601644E+04  0.00000000000E+00 0. -1.
<mgrwt>
<rscale>  0 0.24187933E+04</rscale>
<asrwt>0</asrwt>
<pdfrwt beam="1">  1        2 0.41731164E+00 0.24187933E+04</pdfrwt>
<pdfrwt beam="2">  1       -2 0.82956479E-01 0.24187933E+04</pdfrwt>
<totfact> 0.29844233E+00</totfact>
</mgrwt>
</event>
<event>
 6    1  0.8968082E-007  0.1020012E+04  0.7818608E-02  0.9286864E-01
         -1   -1    0    0    0  501 -0.00000000000E+00  0.00000000000E+00  0.71678463702E+02  0.71678463702E+02  0.00000000000E+00 0.  1.
          1   -1    0    0  501    0  0.00000000000E+00 -0.00000000000E+00 -0.36287912302E+04  0.36287912302E+04  0.00000000000E+00 0. -1.
         23    2    1    2    0    0 -0.49559321082E+03 -0.38706670932E+01 -0.21614090093E+04  0.22193834065E+04  0.91357469236E+02 0.  0.
         13    1    3    3    0    0 -0.24492327072E+03  0.43631849012E+02 -0.10823448303E+04  0.11105680882E+04  0.00000000000E+00 0. -1.
        -13    1    3    3    0    0 -0.25066994009E+03 -0.47502516105E+02 -0.10790641790E+04  0.11088153184E+04  0.00000000000E+00 0.  1.
         22    1    1    2    0    0  0.49559321082E+03  0.38706670932E+01 -0.13957037572E+04  0.14810862873E+04  0.00000000000E+00 0.  1.
<mgrwt>
<rscale>  0 0.10200121E+04</rscale>
<asrwt>0</asrwt>
<pdfrwt beam="1">  1        1 0.55827564E+00 0.10200121E+04</pdfrwt>
<pdfrwt beam="2">  1       -1 0.11027455E-01 0.10200121E+04</pdfrwt>
<totfact> 0.11072658E+01</totfact>
</mgrwt>
</event>
<event>
 6    1  0.8968082E-007  0.1004934E+04  0.7818608E-02  0.9303150E-01
          1   -1    0    0  501    0  0.00000000000E+00  0.00000000000E+00  0.12429012162E+04  0.12429012162E+04  0.00000000000E+00 0. -1.
         -1   -1    0    0    0  501 -0.00000000000E+00 -0.00000000000E+00 -0.20313208147E+03  0.20313208147E+03  0.00000000000E+00 0.  1.
         23    2    1    2    0    0  0.30654426073E+03 -0.95336501426E+02 -0.31534427734E+02  0.32766405845E+03  0.57540270900E+02 0.  0.
         11    1    3    3    0    0  0.18831898238E+03 -0.86666358443E+02 -0.13339852719E+02  0.20773311840E+03  0.00000000000E+00 0. -1.
        -11    1    3    3    0    0  0.11822527835E+03 -0.86701429832E+01 -0.18194575015E+02  0.11993094005E+03  0.00000000000E+00 0.  1.
         22    1    1    2    0    0 -0.30654426073E+03  0.95336501426E+02  0.10713035625E+04  0.11183692393E+04  0.00000000000E+00 0. -1.
<mgrwt>
<rscale>  0 0.10049340E+04</rscale>
<asrwt>0</asrwt>
<pdfrwt beam="1">  1        1 0.19121557E+00 0.10049340E+04</pdfrwt>
<pdfrwt beam="2">  1       -1 0.31251090E-01 0.10049340E+04</pdfrwt>
<totfact> 0.94540784E+01</totfact>
</mgrwt>
</event>
<event>
 6    1  0.8968082E-007  0.4852569E+04  0.7818608E-02  0.7851661E-01
         -2   -1    0    0    0  501 -0.00000000000E+00  0.00000000000E+00  0.20863321557E+04  0.20863321557E+04  0.00000000000E+00 0.  1.
          2   -1    0    0  501    0  0.00000000000E+00 -0.00000000000E+00 -0.28216299851E+04  0.28216299851E+04  0.00000000000E+00 0. -1.
         23    2    1    2    0    0 -0.70689351369E+02 -0.13988136406E+04  0.16350149000E+04  0.21547714425E+04  0.89942542705E+02 0.  0.
         11    1    3    3    0    0 -0.17016074232E+02 -0.10519533395E+04  0.12481696239E+04  0.16324284931E+04  0.00000000000E+00 0. -1.
        -11    1    3    3    0    0 -0.53673277137E+02 -0.34686030112E+03  0.38684527610E+03  0.52234294942E+03  0.00000000000E+00 0.  1.
         22    1    1    2    0    0  0.70689351369E+02  0.13988136406E+04 -0.23703127294E+04  0.27531906982E+04  0.00000000000E+00 0. -1.
<mgrwt>
<rscale>  0 0.48525694E+04</rscale>
<asrwt>0</asrwt>
<pdfrwt beam="1">  1        2 0.43409692E+00 0.48525694E+04</pdfrwt>
<pdfrwt beam="2">  1       -2 0.32097418E+00 0.48525694E+04</pdfrwt>
<totfact> 0.39016774E-02</totfact>
</mgrwt>
</event>
<event>
 6    1  0.8968082E-007  0.1338962E+04  0.7818608E-02  0.8999226E-01
         -2   -1    0    0    0  501 -0.00000000000E+00  0.00000000000E+00  0.35655932759E+03  0.35655932759E+03  0.00000000000E+00 0.  1.
          2   -1    0    0  501    0  0.00000000000E+00 -0.00000000000E+00 -0.12570271719E+04  0.12570271719E+04  0.00000000000E+00 0. -1.
         23    2    1    2    0    0  0.54721637386E+03 -0.30418164508E+03 -0.72806049483E+03  0.96420484965E+03  0.87445268163E+02 0.  0.
         13    1    3    3    0    0  0.28669865689E+03 -0.19109679434E+03 -0.44985404208E+03  0.56664165382E+03  0.00000000000E+00 0. -1.
        -13    1    3    3    0    0  0.26051771697E+03 -0.11308485074E+03 -0.27820645275E+03  0.39756319583E+03  0.00000000000E+00 0.  1.
         22    1    1    2    0    0 -0.54721637386E+03  0.30418164508E+03 -0.17240734952E+03  0.64938164987E+03  0.00000000000E+00 0.  1.
<mgrwt>
<rscale>  0 0.13389619E+04</rscale>
<asrwt>0</asrwt>
<pdfrwt beam="1">  1        2 0.19338879E+00 0.13389619E+04</pdfrwt>
<pdfrwt beam="2">  1       -2 0.54855282E-01 0.13389619E+04</pdfrwt>
<totfact> 0.53529732E+01</totfact>
</mgrwt>
</event>
<event>
 6    1  0.8968082E-007  0.1733532E+04  0.7818608E-02  0.8742467E-01
          2   -1    0    0  501    0  0.00000000000E+00  0.00000000000E+00  0.25800180872E+04  0.25800180872E+04  0.00000000000E+00 0. -1.
         -2   -1    0    0    0  501 -0.00000000000E+00 -0.00000000000E+00 -0.29119309145E+03  0.29119309145E+03  0.00000000000E+00 0.  1.
         23    2    1    2    0    0  0.52355884141E+03  0.65103883963E+03  0.15149266002E+04  0.17324029605E+04  0.90840422460E+02 0.  0.
         13    1    3    3    0    0  0.10809121118E+03  0.81465430813E+02  0.24044305071E+03  0.27592242930E+03  0.00000000000E+00 0. -1.
        -13    1    3    3    0    0  0.41546763023E+03  0.56957340881E+03  0.12744835495E+04  0.14564805312E+04  0.00000000000E+00 0.  1.
         22    1    1    2    0    0 -0.52355884141E+03 -0.65103883963E+03  0.77389839550E+03  0.11388082181E+04  0.00000000000E+00 0.  1.
<mgrwt>
<rscale>  0 0.17335322E+04</rscale>
<asrwt>0</asrwt>
<pdfrwt beam="1">  1        2 0.39692584E+00 0.17335322E+04</pdfrwt>
<pdfrwt beam="2">  1       -2 0.44798939E-01 0.17335322E+04</pdfrwt>
<totfact> 0.14047184E+01</totfact>
</mgrwt>
</event>
<event>
 6    1  0.8968082E-007  0.2300129E+04  0.7818608E-02  0.8477870E-01
         -1   -1    0    0    0  501 -0.00000000000E+00  0.00000000000E+00  0.96678917437E+03  0.96678917437E+03  0.00000000000E+00 0.  1.
          1   -1    0    0  501    0  0.00000000000E+00 -0.00000000000E+00 -0.13680837989E+04  0.13680837989E+04  0.00000000000E+00 0. -1.
         23    2    1    2    0    0  0.76784053309E+03  0.73832940757E+03  0.23412433917E+03  0.10945235637E+04  0.91968620123E+02 0.  0.
         11    1    3    3    0    0  0.60927451977E+03  0.55332223700E+03  0.21176554248E+03  0.84983856313E+03  0.00000000000E+00 0. -1.
        -11    1    3    3    0    0  0.15856601332E+03  0.18500717056E+03  0.22358796689E+02  0.24468500062E+03  0.00000000000E+00 0.  1.
         22    1    1    2    0    0 -0.76784053309E+03 -0.73832940757E+03 -0.63541896373E+03  0.12403494096E+04  0.00000000000E+00 0. -1.
<mgrwt>
<rscale>  0 0.23001292E+04</rscale>
<asrwt>0</asrwt>
<pdfrwt beam="1">  1        1 0.21047443E+00 0.23001292E+04</pdfrwt>
<pdfrwt beam="2">  1       -1 0.14873680E+00 0.23001292E+04</pdfrwt>
<totfact> 0.26107116E+00</totfact>
</mgrwt>
</event>
<event>
 6    1  0.8968082E-007  0.3001057E+04  0.7818608E-02  0.8243429E-01
         -2   -1    0    0    0  501 -0.00000000000E+00  0.00000000000E+00  0.68832372998E+03  0.68832372998E+03  0.00000000000E+00 0.  1.
          2   -1    0    0  501    0  0.00000000000E+00 -0.00000000000E+00 -0.32711144388E+04  0.32711144388E+04  0.00000000000E+00 0. -1.
         23    2    1    2    0    0  0.11255702801E+04 -0.23252197210E+03 -0.22632434004E+02  0.11531264763E+04  0.90628474517E+02 0.  0.
         11    1    3    3    0    0  0.19948731665E+03 -0.65916275505E+01 -0.85214192276E+01  0.19977801091E+03  0.00000000000E+00 0. -1.
        -11    1    3    3    0    0  0.92608296347E+03 -0.22593034455E+03 -0.14111014776E+02  0.95334846544E+03  0.00000000000E+00 0.  1.
         22    1    1    2    0    0 -0.11255702801E+04  0.23252197210E+03 -0.25601582748E+04  0.28063116925E+04  0.00000000000E+00 0. -1.
<mgrwt>
<rscale>  0 0.30010569E+04</rscale>
<asrwt>0</asrwt>
<pdfrwt beam="1">  1        2 0.50324837E+00 0.30010569E+04</pdfrwt>
<pdfrwt beam="2">  1       -2 0.10589596E+00 0.30010569E+04</pdfrwt>
<totfact> 0.71718782E-01</totfact>
</mgrwt>
</event>
<event>
 6    1  0.8968082E-007  0.2684289E+04  0.7818608E-02  0.8340121E-01
          2   -1    0    0  501    0  0.00000000000E+00  0.00000000000E+00  0.31193388728E+04  0.31193388728E+04  0.00000000000E+00 0. -1.
         -2   -1    0    0    0  501 -0.00000000000E+00 -0.00000000000E+00 -0.57747889557E+03  0.57747889557E+03  0.00000000000E+00 0.  1.
         23    2    1    2    0    0  0.87311963836E+03 -0.11716448149E+03 -0.11920500985E+03  0.89372442635E+03  0.92022265110E+02 0.  0.
         11    1    3    3    0    0  0.35508109832E+03 -0.71444468789E+02 -0.10029742276E+02  0.36233616192E+03  0.00000000000E+00 0.  1.
        -11    1    3    3    0    0  0.51803854004E+03 -0.45720012697E+02 -0.10917526758E+03  0.53138826443E+03  0.00000000000E+00 0. -1.
         22    1    1    2    0    0 -0.87311963836E+03  0.11716448149E+03  0.26610649871E+04  0.28030933420E+04  0.00000000000E+00 0. -1.
<mgrwt>
<rscale>  0 0.26842894E+04</rscale>
<asrwt>0</asrwt>
<pdfrwt beam="1">  1        2 0.47989828E+00 0.26842894E+04</pdfrwt>
<pdfrwt beam="2">  1       -2 0.88842909E-01 0.26842894E+04</pdfrwt>
<totfact> 0.13985378E+00</totfact>
</mgrwt>
</event>
<event>
 6    1  0.8968082E-007  0.3397430E+04  0.7818608E-02  0.8138537E-01
          1   -1    0    0  501    0  0.00000000000E+00  0.00000000000E+00  0.20658413728E+04  0.20658413728E+04  0.00000000000E+00 0. -1.
         -1   -1    0    0    0  501 -0.00000000000E+00 -0.00000000000E+00 -0.13968317616E+04  0.13968317616E+04  0.00000000000E+00 0.  1.
         23    2    1    2    0    0 -0.97209196894E+03 -0.13793970679E+04  0.14717958031E+03  0.16963193624E+04  0.90213543279E+02 0.  0.
         11    1    3    3    0    0 -0.13059421624E+03 -0.21038798450E+03  0.50308744065E+02  0.25268344439E+03  0.00000000000E+00 0.  1.
        -11    1    3    3    0    0 -0.84149775270E+03 -0.11690090834E+04  0.96870836246E+02  0.14436359180E+04  0.00000000000E+00 0. -1.
         22    1    1    2    0    0  0.97209196894E+03  0.13793970679E+04  0.52183003083E+03  0.17663537720E+04  0.00000000000E+00 0. -1.
<mgrwt>
<rscale>  0 0.33974301E+04</rscale>
<asrwt>0</asrwt>
<pdfrwt beam="1">  1        1 0.31782175E+00 0.33974301E+04</pdfrwt>
<pdfrwt beam="2">  1       -1 0.21489719E+00 0.33974301E+04</pdfrwt>
<totfact> 0.26350131E-01</totfact>
</mgrwt>
</event>
<event>
 6    1  0.8968082E-007  0.1692965E+04  0.7818608E-02  0.8765387E-01
          2   -1    0    0  501    0  0.00000000000E+00  0.00000000000E+00  0.10874602342E+04  0.10874602342E+04  0.00000000000E+00 0. -1.
         -2   -1    0    0    0  501 -0.00000000000E+00 -0.00000000000E+00 -0.65890480600E+03  0.65890480600E+03  0.00000000000E+00 0.  1.
         23    2    1    2    0    0  0.49441821613E+03  0.50610578354E+03  0.68960868357E+03  0.99221569243E+03  0.91320355149E+02 0.  0.
         13    1    3    3    0    0  0.25506955458E+03  0.23796893745E+03  0.39911238652E+03  0.53007583414E+03  0.00000000000E+00 0.  1.
        -13    1    3    3    0    0  0.23934866156E+03  0.26813684608E+03  0.29049629705E+03  0.46213985829E+03  0.00000000000E+00 0. -1.
         22    1    1    2    0    0 -0.49441821613E+03 -0.50610578354E+03 -0.26105325539E+03  0.75414934776E+03  0.00000000000E+00 0.  1.
<mgrwt>
<rscale>  0 0.16929652E+04</rscale>
<asrwt>0</asrwt>
<pdfrwt beam="1">  1        2 0.16730157E+00 0.16929652E+04</pdfrwt>
<pdfrwt beam="2">  1       -2 0.10136997E+00 0.16929652E+04</pdfrwt>
<totfact> 0.16889377E+01</totfact>
</mgrwt>
</event>
<event>
 6    1  0.8968082E-007  0.3544225E+04  0.7818608E-02  0.8103388E-01
          1   -1    0    0  501    0  0.00000000000E+00  0.00000000000E+00  0.32860625937E+04  0.32860625937E+04  0.00000000000E+00 0. -1.
         -1   -1    0    0    0  501 -0.00000000000E+00 -0.00000000000E+00 -0.95566740374E+03  0.95566740374E+03  0.00000000000E+00 0.  1.
         23    2    1    2    0    0 -0.11372125062E+04  0.10277226096E+04  0.10447795539E+03  0.15391065346E+04  0.92017581693E+02 0.  0.
         13    1    3    3    0    0 -0.97722218363E+03  0.83774399065E+03  0.90819400892E+02  0.12903590018E+04  0.00000000000E+00 0.  1.
        -13    1    3    3    0    0 -0.15999032255E+03  0.18997861895E+03  0.13658554499E+02  0.24874753281E+03  0.00000000000E+00 0. -1.
         22    1    1    2    0    0  0.11372125062E+04 -0.10277226096E+04  0.22259172345E+04  0.27026234628E+04  0.00000000000E+00 0. -1.
<mgrwt>
<rscale>  0 0.35442251E+04</rscale>
<asrwt>0</asrwt>
<pdfrwt beam="1">  1        1 0.50554809E+00 0.35442251E+04</pdfrwt>
<pdfrwt beam="2">  1       -1 0.14702576E+00 0.35442251E+04</pdfrwt>
<totfact> 0.10939642E-01</totfact>
</mgrwt>
</event>
<event>
 6    1  0.8968082E-007  0.2736203E+04  0.7818608E-02  0.8323353E-01
         -2   -1    0    0    0  501 -0.00000000000E+00  0.00000000000E+00  0.16088772052E+04  0.16088772052E+04  0.00000000000E+00 0.  1.
          2   -1    0    0  501    0  0.00000000000E+00 -0.00000000000E+00 -0.11633586725E+04  0.11633586725E+04  0.00000000000E+00 0. -1.
         23    2    1    2    0    0  0.62515895118E+03 -0.85062441181E+03  0.11023021037E+04  0.15289538246E+04  0.90797939667E+02 0.  0.
         13    1    3    3    0    0  0.30368976479E+03 -0.40790290375E+03  0.46584250054E+03  0.68965316460E+03  0.00000000000E+00 0. -1.
        -13    1    3    3    0    0  0.32146918638E+03 -0.44272150806E+03  0.63645960314E+03  0.83930066003E+03  0.00000000000E+00 0.  1.
         22    1    1    2    0    0 -0.62515895118E+03  0.85062441181E+03 -0.65678357099E+03  0.12432820530E+04  0.00000000000E+00 0. -1.
<mgrwt>
<rscale>  0 0.27362027E+04</rscale>
<asrwt>0</asrwt>
<pdfrwt beam="1">  1        2 0.17897826E+00 0.27362027E+04</pdfrwt>
<pdfrwt beam="2">  1       -2 0.24751957E+00 0.27362027E+04</pdfrwt>
<totfact> 0.11601917E+00</totfact>
</mgrwt>
</event>
<event>
 6    1  0.8968082E-007  0.3701802E+04  0.7818608E-02  0.8067563E-01
          2   -1    0    0  501    0  0.00000000000E+00  0.00000000000E+00  0.16319989366E+04  0.16319989366E+04  0.00000000000E+00 0. -1.
         -2   -1    0    0    0  501 -0.00000000000E+00 -0.00000000000E+00 -0.20991649862E+04  0.20991649862E+04  0.00000000000E+00 0.  1.
         23    2    1    2    0    0  0.76474794190E+03 -0.36784321056E+03  0.14229515696E+04  0.16592824937E+04  0.90990011029E+02 0.  0.
         11    1    3    3    0    0  0.25296708132E+03 -0.15382448853E+03  0.43384861980E+03  0.52524179423E+03  0.00000000000E+00 0.  1.
        -11    1    3    3    0    0  0.51178086058E+03 -0.21401872202E+03  0.98910294981E+03  0.11340406994E+04  0.00000000000E+00 0. -1.
         22    1    1    2    0    0 -0.76474794190E+03  0.36784321056E+03 -0.18901176192E+04  0.20718814292E+04  0.00000000000E+00 0.  1.
<mgrwt>
<rscale>  0 0.37018023E+04</rscale>
<asrwt>0</asrwt>
<pdfrwt beam="1">  1        2 0.25107676E+00 0.37018023E+04</pdfrwt>
<pdfrwt beam="2">  1       -2 0.32294846E+00 0.37018023E+04</pdfrwt>
<totfact> 0.19856028E-01</totfact>
</mgrwt>
</event>
<event>
 6    1  0.8968082E-007  0.3030118E+04  0.7818608E-02  0.8235183E-01
         -1   -1    0    0    0  501 -0.00000000000E+00  0.00000000000E+00  0.54847071403E+03  0.54847071403E+03  0.00000000000E+00 0.  1.
          1   -1    0    0  501    0  0.00000000000E+00 -0.00000000000E+00 -0.41850970227E+04  0.41850970227E+04  0.00000000000E+00 0. -1.
         23    2    1    2    0    0  0.40240064562E+02  0.87334938869E+03  0.11036074734E+03  0.88593594361E+03  0.91348695093E+02 0.  0.
         11    1    3    3    0    0 -0.10350960603E+01  0.51742490938E+03  0.10284248906E+03  0.52754733042E+03  0.00000000000E+00 0. -1.
        -11    1    3    3    0    0  0.41275160622E+02  0.35592447931E+03  0.75182582746E+01  0.35838861319E+03  0.00000000000E+00 0.  1.
         22    1    1    2    0    0 -0.40240064562E+02 -0.87334938869E+03 -0.37469870560E+04  0.38476317931E+04  0.00000000000E+00 0. -1.
<mgrwt>
<rscale>  0 0.30301176E+04</rscale>
<asrwt>0</asrwt>
<pdfrwt beam="1">  1        1 0.64386110E+00 0.30301176E+04</pdfrwt>
<pdfrwt beam="2">  1       -1 0.84380107E-01 0.30301176E+04</pdfrwt>
<totfact> 0.77037361E-02</totfact>
</mgrwt>
</event>
<event>
 6    1  0.8968082E-007  0.1356124E+04  0.7818608E-02  0.8986205E-01
          2   -1    0    0  501    0  0.00000000000E+00  0.00000000000E+00  0.10410534301E+04  0.10410534301E+04  0.00000000000E+00 0. -1.
         -2   -1    0    0    0  501 -0.00000000000E+00 -0.00000000000E+00 -0.44163749219E+03  0.44163749219E+03  0.00000000000E+00 0.  1.
         23    2    1    2    0    0 -0.12611021728E+03 -0.64181892457E+03  0.48300971315E+03  0.81832225352E+03  0.92290892180E+02 0.  0.
         13    1    3    3    0    0 -0.99504187136E+02 -0.46679269333E+03  0.40026268157E+03  0.62290185107E+03  0.00000000000E+00 0. -1.
        -13    1    3    3    0    0 -0.26606030144E+02 -0.17502623124E+03  0.82747031577E+02  0.19542040246E+03  0.00000000000E+00 0.  1.
         22    1    1    2    0    0  0.12611021728E+03  0.64181892457E+03  0.11640622472E+03  0.66436866873E+03  0.00000000000E+00 0.  1.
<mgrwt>
<rscale>  0 0.13561242E+04</rscale>
<asrwt>0</asrwt>
<pdfrwt beam="1">  1        2 0.16016206E+00 0.13561242E+04</pdfrwt>
<pdfrwt beam="2">  1       -2 0.67944230E-01 0.13561242E+04</pdfrwt>
<totfact> 0.45939280E+01</totfact>
</mgrwt>
</event>
<event>
 6    1  0.8968082E-007  0.3111340E+04  0.7818608E-02  0.8212633E-01
          2   -1    0    0  501    0  0.00000000000E+00  0.00000000000E+00  0.29110447917E+04  0.29110447917E+04  0.00000000000E+00 0. -1.
         -2   -1    0    0    0  501 -0.00000000000E+00 -0.00000000000E+00 -0.83135429334E+03  0.83135429334E+03  0.00000000000E+00 0.  1.
         23    2    1    2    0    0 -0.44774885873E+03  0.11116106677E+04  0.22313378282E+04  0.25344445206E+04  0.91559858158E+02 0.  0.
         13    1    3    3    0    0 -0.11293105166E+03  0.34556038654E+03  0.60555558582E+03  0.70630232244E+03  0.00000000000E+00 0. -1.
        -13    1    3    3    0    0 -0.33481780706E+03  0.76605028120E+03  0.16257822424E+04  0.18281421982E+04  0.00000000000E+00 0.  1.
         22    1    1    2    0    0  0.44774885873E+03 -0.11116106677E+04 -0.15164732977E+03  0.12079545644E+04  0.00000000000E+00 0.  1.
<mgrwt>
<rscale>  0 0.31113403E+04</rscale>
<asrwt>0</asrwt>
<pdfrwt beam="1">  1        2 0.44785304E+00 0.31113403E+04</pdfrwt>
<pdfrwt beam="2">  1       -2 0.12790066E+00 0.31113403E+04</pdfrwt>
<totfact> 0.75878729E-01</totfact>
</mgrwt>
</event>
<event>
 6    1  0.8968082E-007  0.3312545E+04  0.7818608E-02  0.8159711E-01
         -2   -1    0    0    0  501 -0.00000000000E+00  0.00000000000E+00  0.94251743528E+03  0.94251743528E+03  0.00000000000E+00 0.  1.
          2   -1    0    0  501    0  0.00000000000E+00 -0.00000000000E+00 -0.29105448914E+04  0.29105448914E+04  0.00000000000E+00 0. -1.
         23    2    1    2    0    0  0.15758417981E+04  0.83051514935E+02 -0.15650991597E+04  0.22244045545E+04  0.90913781252E+02 0.  0.
         13    1    3    3    0    0  0.74590774884E+03  0.49919677223E+01 -0.78104955541E+03  0.10800193042E+04  0.00000000000E+00 0.  1.
        -13    1    3    3    0    0  0.82993404926E+03  0.78059547213E+02 -0.78404960427E+03  0.11443852502E+04  0.00000000000E+00 0. -1.
         22    1    1    2    0    0 -0.15758417981E+04 -0.83051514935E+02 -0.40292829641E+03  0.16286577722E+04  0.00000000000E+00 0.  1.
<mgrwt>
<rscale>  0 0.33125454E+04</rscale>
<asrwt>0</asrwt>
<pdfrwt beam="1">  1        2 0.44777613E+00 0.33125454E+04</pdfrwt>
<pdfrwt beam="2">  1       -2 0.14500269E+00 0.33125454E+04</pdfrwt>
<totfact> 0.54075810E-01</totfact>
</mgrwt>
</event>
<event>
 6    1  0.8968082E-007  0.3091649E+04  0.7818608E-02  0.8218033E-01
         -2   -1    0    0    0  501 -0.00000000000E+00  0.00000000000E+00  0.72751009016E+03  0.72751009016E+03  0.00000000000E+00 0.  1.
          2   -1    0    0  501    0  0.00000000000E+00 -0.00000000000E+00 -0.32845918485E+04  0.32845918485E+04  0.00000000000E+00 0. -1.
         23    2    1    2    0    0  0.10404500047E+04  0.15026656770E+03  0.18891083903E+03  0.10717632510E+04  0.88729405897E+02 0.  0.
         11    1    3    3    0    0  0.10059693770E+04  0.13115721415E+03  0.17242014291E+03  0.10290312474E+04  0.00000000000E+00 0. -1.
        -11    1    3    3    0    0  0.34480627608E+02  0.19109353545E+02  0.16490696120E+02  0.42732003600E+02  0.00000000000E+00 0.  1.
         22    1    1    2    0    0 -0.10404500047E+04 -0.15026656770E+03 -0.27459925973E+04  0.29403386877E+04  0.00000000000E+00 0. -1.
<mgrwt>
<rscale>  0 0.30916492E+04</rscale>
<asrwt>0</asrwt>
<pdfrwt beam="1">  1        2 0.50532180E+00 0.30916492E+04</pdfrwt>
<pdfrwt beam="2">  1       -2 0.11192463E+00 0.30916492E+04</pdfrwt>
<totfact> 0.60983130E-01</totfact>
</mgrwt>
</event>
<event>
 6    1  0.8968082E-007  0.2136984E+04  0.7818608E-02  0.8545124E-01
          2   -1    0    0  501    0  0.00000000000E+00  0.00000000000E+00  0.24816836113E+04  0.24816836113E+04  0.00000000000E+00 0. -1.
         -2   -1    0    0    0  501 -0.00000000000E+00 -0.00000000000E+00 -0.46004058982E+03  0.46004058982E+03  0.00000000000E+00 0.  1.
         23    2    1    2    0    0  0.74905384102E+03 -0.39893586552E+03  0.12845291495E+03  0.86701933994E+03  0.12243734287E+03 0.  0.
         11    1    3    3    0    0  0.34595634475E+03 -0.25351174243E+03  0.60939104150E+02  0.43320615236E+03  0.00000000000E+00 0. -1.
        -11    1    3    3    0    0  0.40309749627E+03 -0.14542412309E+03  0.67513810799E+02  0.43381318758E+03  0.00000000000E+00 0.  1.
         22    1    1    2    0    0 -0.74905384102E+03  0.39893586552E+03  0.18931901066E+04  0.20747048612E+04  0.00000000000E+00 0. -1.
<mgrwt>
<rscale>  0 0.21369840E+04</rscale>
<asrwt>0</asrwt>
<pdfrwt beam="1">  1        2 0.38179747E+00 0.21369840E+04</pdfrwt>
<pdfrwt beam="2">  1       -2 0.70775477E-01 0.21369840E+04</pdfrwt>
<totfact> 0.59485528E+00</totfact>
</mgrwt>
</event>
<event>
 6    1  0.8968082E-007  0.2110896E+04  0.7818608E-02  0.8556459E-01
         -1   -1    0    0    0  501 -0.00000000000E+00  0.00000000000E+00  0.73043723775E+03  0.73043723775E+03  0.00000000000E+00 0.  1.
          1   -1    0    0  501    0  0.00000000000E+00 -0.00000000000E+00 -0.15250740543E+04  0.15250740543E+04  0.00000000000E+00 0. -1.
         23    2    1    2    0    0 -0.81921666547E+03 -0.36042678424E+03 -0.99179817389E+03  0.13390528846E+04  0.91518295176E+02 0.  0.
         11    1    3    3    0    0 -0.40927464739E+02 -0.55965594685E+00 -0.61419159002E+02  0.73808425517E+02  0.00000000000E+00 0. -1.
        -11    1    3    3    0    0 -0.77828920073E+03 -0.35986712829E+03 -0.93037901489E+03  0.12652444591E+04  0.00000000000E+00 0.  1.
         22    1    1    2    0    0  0.81921666547E+03  0.36042678424E+03  0.19716135729E+03  0.91645840745E+03  0.00000000000E+00 0.  1.
<mgrwt>
<rscale>  0 0.21108964E+04</rscale>
<asrwt>0</asrwt>
<pdfrwt beam="1">  1        1 0.23462678E+00 0.21108964E+04</pdfrwt>
<pdfrwt beam="2">  1       -1 0.11237496E+00 0.21108964E+04</pdfrwt>
<totfact> 0.41889837E+00</totfact>
</mgrwt>
</event>
<event>
 6    1  0.8968082E-007  0.2621889E+04  0.7818608E-02  0.8360804E-01
         -2   -1    0    0    0  501 -0.00000000000E+00  0.00000000000E+00  0.64765778990E+03  0.64765778990E+03  0.00000000000E+00 0.  1.
          2   -1    0    0  501    0  0.00000000000E+00 -0.00000000000E+00 -0.26535244864E+04  0.26535244864E+04  0.00000000000E+00 0. -1.
         23    2    1    2    0    0  0.11797269855E+04  0.48987157565E+03 -0.13662963678E+04  0.18726235178E+04  0.90681607930E+02 0.  0.
         13    1    3    3    0    0  0.46363427423E+03  0.17841222393E+03 -0.47015426881E+03  0.68398296643E+03  0.00000000000E+00 0.  1.
        -13    1    3    3    0    0  0.71609271127E+03  0.31145935172E+03 -0.89614209897E+03  0.11886405514E+04  0.00000000000E+00 0. -1.
         22    1    1    2    0    0 -0.11797269855E+04 -0.48987157565E+03 -0.63957032870E+03  0.14285587584E+04  0.00000000000E+00 0. -1.
<mgrwt>
<rscale>  0 0.26218892E+04</rscale>
<asrwt>0</asrwt>
<pdfrwt beam="1">  1        2 0.40823454E+00 0.26218892E+04</pdfrwt>
<pdfrwt beam="2">  1       -2 0.99639658E-01 0.26218892E+04</pdfrwt>
<totfact> 0.20811333E+00</totfact>
</mgrwt>
</event>
<event>
 6    1  0.8968082E-007  0.2302004E+04  0.7818608E-02  0.8477131E-01
         -2   -1    0    0    0  501 -0.00000000000E+00  0.00000000000E+00  0.25390182726E+04  0.25390182726E+04  0.00000000000E+00 0.  1.
          2   -1    0    0  501    0  0.00000000000E+00 -0.00000000000E+00 -0.52177871547E+03  0.52177871547E+03  0.00000000000E+00 0. -1.
         23    2    1    2    0    0  0.10448308482E+04 -0.17533274916E+03  0.41829222775E+03  0.11427131431E+04  0.91716220964E+02 0.  0.
         11    1    3    3    0    0  0.40796375951E+03 -0.26042152679E+02  0.17757280471E+03  0.44569577490E+03  0.00000000000E+00 0. -1.
        -11    1    3    3    0    0  0.63686708872E+03 -0.14929059648E+03  0.24071942304E+03  0.69701736817E+03  0.00000000000E+00 0.  1.
         22    1    1    2    0    0 -0.10448308482E+04  0.17533274916E+03  0.15989473294E+04  0.19180838450E+04  0.00000000000E+00 0.  1.
<mgrwt>
<rscale>  0 0.23020041E+04</rscale>
<asrwt>0</asrwt>
<pdfrwt beam="1">  1        2 0.80273650E-01 0.23020041E+04</pdfrwt>
<pdfrwt beam="2">  1       -2 0.39061819E+00 0.23020041E+04</pdfrwt>
<totfact> 0.45433653E-01</totfact>
</mgrwt>
</event>
<event>
 6    1  0.8968082E-007  0.1469419E+04  0.7818608E-02  0.8905048E-01
          1   -1    0    0  501    0  0.00000000000E+00  0.00000000000E+00  0.10142808835E+04  0.10142808835E+04  0.00000000000E+00 0. -1.
         -1   -1    0    0    0  501 -0.00000000000E+00 -0.00000000000E+00 -0.53219771320E+03  0.53219771320E+03  0.00000000000E+00 0.  1.
         23    2    1    2    0    0 -0.16193742296E+03 -0.56377848310E+03  0.70248553710E+03  0.91986299661E+03  0.92693558283E+02 0.  0.
         13    1    3    3    0    0 -0.11550980103E+03 -0.23563786932E+03  0.30687395223E+03  0.40378130485E+03  0.00000000000E+00 0. -1.
        -13    1    3    3    0    0 -0.46427621931E+02 -0.32814061378E+03  0.39561158487E+03  0.51608169176E+03  0.00000000000E+00 0.  1.
         22    1    1    2    0    0  0.16193742296E+03  0.56377848310E+03 -0.22040236682E+03  0.62661560007E+03  0.00000000000E+00 0.  1.
<mgrwt>
<rscale>  0 0.14694189E+04</rscale>
<asrwt>0</asrwt>
<pdfrwt beam="1">  1        1 0.15604321E+00 0.14694189E+04</pdfrwt>
<pdfrwt beam="2">  1       -1 0.81876571E-01 0.14694189E+04</pdfrwt>
<totfact> 0.21233182E+01</totfact>
</mgrwt>
</event>
<event>
 6    1  0.8968082E-007  0.9389483E+03  0.7818608E-02  0.9378162E-01
          2   -1    0    0  501    0  0.00000000000E+00  0.00000000000E+00  0.50681818725E+03  0.50681818725E+03  0.00000000000E+00 0. -1.
         -2   -1    0    0    0  501 -0.00000000000E+00 -0.00000000000E+00 -0.43488170180E+03  0.43488170180E+03  0.00000000000E+00 0.  1.
         23    2    1    2    0    0  0.41448670990E+03  0.82259063269E+02 -0.15973550169E+03  0.45978942455E+03  0.85586787819E+02 0.  0.
         13    1    3    3    0    0  0.29718031223E+03  0.58140366741E+02 -0.71793637944E+02  0.31120855816E+03  0.00000000000E+00 0. -1.
        -13    1    3    3    0    0  0.11730639767E+03  0.24118696528E+02 -0.87941863749E+02  0.14858086638E+03  0.00000000000E+00 0.  1.
         22    1    1    2    0    0 -0.41448670990E+03 -0.82259063269E+02  0.23167198714E+03  0.48191046451E+03  0.00000000000E+00 0. -1.
<mgrwt>
<rscale>  0 0.93894825E+03</rscale>
<asrwt>0</asrwt>
<pdfrwt beam="1">  1        2 0.77972029E-01 0.93894825E+03</pdfrwt>
<pdfrwt beam="2">  1       -2 0.66904877E-01 0.93894825E+03</pdfrwt>
<totfact> 0.12460795E+02</totfact>
</mgrwt>
</event>
<event>
 6    1  0.8968082E-007  0.2308063E+04  0.7818608E-02  0.8474749E-01
         -2   -1    0    0    0  501 -0.00000000000E+00  0.00000000000E+00  0.89579220488E+03  0.89579220488E+03  0.00000000000E+00 0.  1.
          2   -1    0    0  501    0  0.00000000000E+00 -0.00000000000E+00 -0.14867158126E+04  0.14867158126E+04  0.00000000000E+00 0. -1.
         23    2    1    2    0    0 -0.35206159915E+03  0.55028345055E+03 -0.12756519328E+04  0.14361401584E+04  0.91931797385E+02 0.  0.
         13    1    3    3    0    0 -0.12529767311E+03  0.20358848458E+03 -0.56610335535E+03  0.61450857348E+03  0.00000000000E+00 0.  1.
        -13    1    3    3    0    0 -0.22676392604E+03  0.34669496596E+03 -0.70954857747E+03  0.82163158494E+03  0.00000000000E+00 0. -1.
         22    1    1    2    0    0  0.35206159915E+03 -0.55028345055E+03  0.68472832508E+03  0.94636785908E+03  0.00000000000E+00 0.  1.
<mgrwt>
<rscale>  0 0.23080628E+04</rscale>
<asrwt>0</asrwt>
<pdfrwt beam="1">  1        2 0.22872551E+00 0.23080628E+04</pdfrwt>
<pdfrwt beam="2">  1       -2 0.13781419E+00 0.23080628E+04</pdfrwt>
<totfact> 0.43786945E+00</totfact>
</mgrwt>
</event>
<event>
 6    1  0.8968082E-007  0.2460174E+04  0.7818608E-02  0.8417313E-01
          2   -1    0    0  501    0  0.00000000000E+00  0.00000000000E+00  0.10842726176E+04  0.10842726176E+04  0.00000000000E+00 0. -1.
         -2   -1    0    0    0  501 -0.00000000000E+00 -0.00000000000E+00 -0.13955105305E+04  0.13955105305E+04  0.00000000000E+00 0.  1.
         23    2    1    2    0    0 -0.11796477464E+04 -0.26970333332E+03  0.57470925094E+02  0.12147713296E+04  0.89765151273E+02 0.  0.
         13    1    3    3    0    0 -0.37711606104E+03 -0.90999916000E+02  0.60176309033E+02  0.39257954146E+03  0.00000000000E+00 0. -1.
        -13    1    3    3    0    0 -0.80253168538E+03 -0.17870341732E+03 -0.27053839390E+01  0.82219178815E+03  0.00000000000E+00 0.  1.
         22    1    1    2    0    0  0.11796477464E+04  0.26970333332E+03 -0.36870883805E+03  0.12650118185E+04  0.00000000000E+00 0.  1.
<mgrwt>
<rscale>  0 0.24601739E+04</rscale>
<asrwt>0</asrwt>
<pdfrwt beam="1">  1        2 0.16681117E+00 0.24601739E+04</pdfrwt>
<pdfrwt beam="2">  1       -2 0.21469393E+00 0.24601739E+04</pdfrwt>
<totfact> 0.21295962E+00</totfact>
</mgrwt>
</event>
<event>
 6    1  0.8968082E-007  0.2087576E+04  0.7818608E-02  0.8566736E-01
         -2   -1    0    0    0  501 -0.00000000000E+00  0.00000000000E+00  0.30386557806E+03  0.30386557806E+03  0.00000000000E+00 0.  1.
          2   -1    0    0  501    0  0.00000000000E+00 -0.00000000000E+00 -0.35854460382E+04  0.35854460382E+04  0.00000000000E+00 0. -1.
         23    2    1    2    0    0 -0.90345587701E+03  0.20349341945E+03 -0.75487361090E+03  0.11982356984E+04  0.91063313844E+02 0.  0.
         13    1    3    3    0    0 -0.60904111236E+03  0.14096688388E+03 -0.45354113554E+03  0.77233561392E+03  0.00000000000E+00 0. -1.
        -13    1    3    3    0    0 -0.29441476465E+03  0.62526535566E+02 -0.30133247536E+03  0.42590008452E+03  0.00000000000E+00 0.  1.
         22    1    1    2    0    0  0.90345587701E+03 -0.20349341945E+03 -0.25267068492E+04  0.26910759178E+04  0.00000000000E+00 0.  1.
<mgrwt>
<rscale>  0 0.20875762E+04</rscale>
<asrwt>0</asrwt>
<pdfrwt beam="1">  1        2 0.55160712E+00 0.20875762E+04</pdfrwt>
<pdfrwt beam="2">  1       -2 0.46748547E-01 0.20875762E+04</pdfrwt>
<totfact> 0.28449052E+00</totfact>
</mgrwt>
</event>
<event>
 6    1  0.8968082E-007  0.1222859E+04  0.7818608E-02  0.9093080E-01
          2   -1    0    0  501    0  0.00000000000E+00  0.00000000000E+00  0.28604375931E+04  0.28604375931E+04  0.00000000000E+00 0. -1.
         -2   -1    0    0    0  501 -0.00000000000E+00 -0.00000000000E+00 -0.13069541715E+03  0.13069541715E+03  0.00000000000E+00 0.  1.
         23    2    1    2    0    0  0.32935337517E+03 -0.51091506090E+03  0.13327302477E+04  0.14676008732E+04  0.90413298081E+02 0.  0.
         11    1    3    3    0    0  0.56364205333E+02 -0.15170690154E+03  0.39939358274E+03  0.43093751467E+03  0.00000000000E+00 0.  1.
        -11    1    3    3    0    0  0.27298916984E+03 -0.35920815937E+03  0.93333666499E+03  0.10366633585E+04  0.00000000000E+00 0. -1.
         22    1    1    2    0    0 -0.32935337517E+03  0.51091506090E+03  0.13970119282E+04  0.15235321371E+04  0.00000000000E+00 0.  1.
<mgrwt>
<rscale>  0 0.12228591E+04</rscale>
<asrwt>0</asrwt>
<pdfrwt beam="1">  1        2 0.44006727E+00 0.12228591E+04</pdfrwt>
<pdfrwt beam="2">  1       -2 0.20106989E-01 0.12228591E+04</pdfrwt>
<totfact> 0.44829114E+01</totfact>
</mgrwt>
</event>
<event>
 6    1  0.8968082E-007  0.3288036E+04  0.7818608E-02  0.8165946E-01
          2   -1    0    0  501    0  0.00000000000E+00  0.00000000000E+00  0.33801974915E+04  0.33801974915E+04  0.00000000000E+00 0. -1.
         -2   -1    0    0    0  501 -0.00000000000E+00 -0.00000000000E+00 -0.79959658309E+03  0.79959658309E+03  0.00000000000E+00 0.  1.
         23    2    1    2    0    0  0.12243750832E+04  0.80709185790E+02  0.26797586997E+04  0.29487617498E+04  0.92091540447E+02 0.  0.
         13    1    3    3    0    0  0.58915186141E+03  0.46798951328E+02  0.13994962514E+04  0.15191707657E+04  0.00000000000E+00 0.  1.
        -13    1    3    3    0    0  0.63522322179E+03  0.33910234461E+02  0.12802624482E+04  0.14295909841E+04  0.00000000000E+00 0. -1.
         22    1    1    2    0    0 -0.12243750832E+04 -0.80709185790E+02 -0.99157791254E+02  0.12310323248E+04  0.00000000000E+00 0.  1.
<mgrwt>
<rscale>  0 0.32880355E+04</rscale>
<asrwt>0</asrwt>
<pdfrwt beam="1">  1        2 0.52003038E+00 0.32880355E+04</pdfrwt>
<pdfrwt beam="2">  1       -2 0.12301486E+00 0.32880355E+04</pdfrwt>
<totfact> 0.40988429E-01</totfact>
</mgrwt>
</event>
<event>
 6    1  0.8968082E-007  0.1003453E+04  0.7818608E-02  0.9304765E-01
         -2   -1    0    0    0  501 -0.00000000000E+00  0.00000000000E+00  0.16260548472E+03  0.16260548472E+03  0.00000000000E+00 0.  1.
          2   -1    0    0  501    0  0.00000000000E+00 -0.00000000000E+00 -0.15481009303E+04  0.15481009303E+04  0.00000000000E+00 0. -1.
         23    2    1    2    0    0  0.16351341301E+03  0.37274112441E+03 -0.11862173640E+04  0.12575129289E+04  0.92490808088E+02 0.  0.
         13    1    3    3    0    0  0.59117397859E+01 -0.24201082476E+01 -0.48285710899E+01  0.80075395720E+01  0.00000000000E+00 0.  1.
        -13    1    3    3    0    0  0.15760167323E+03  0.37516123266E+03 -0.11813887929E+04  0.12495053893E+04  0.00000000000E+00 0. -1.
         22    1    1    2    0    0 -0.16351341301E+03 -0.37274112441E+03 -0.19927808154E+03  0.45319348610E+03  0.00000000000E+00 0. -1.
<mgrwt>
<rscale>  0 0.10034534E+04</rscale>
<asrwt>0</asrwt>
<pdfrwt beam="1">  1        2 0.23816937E+00 0.10034534E+04</pdfrwt>
<pdfrwt beam="2">  1       -2 0.25016229E-01 0.10034534E+04</pdfrwt>
<totfact> 0.17047179E+02</totfact>
</mgrwt>
</event>
<event>
 6    1  0.8968082E-007  0.2128721E+04  0.7818608E-02  0.8548696E-01
          3   -1    0    0  501    0  0.00000000000E+00  0.00000000000E+00  0.21051422313E+04  0.21051422313E+04  0.00000000000E+00 0. -1.
         -3   -1    0    0    0  501 -0.00000000000E+00 -0.00000000000E+00 -0.53814086195E+03  0.53814086195E+03  0.00000000000E+00 0.  1.
         23    2    1    2    0    0  0.79164017695E+03  0.49383715470E+03  0.15385986422E+03  0.94990238631E+03  0.89846427766E+02 0.  0.
         13    1    3    3    0    0  0.46416768971E+03  0.28723143152E+03  0.13471378405E+03  0.56222890626E+03  0.00000000000E+00 0.  1.
        -13    1    3    3    0    0  0.32747248724E+03  0.20660572318E+03  0.19146080177E+02  0.38767348005E+03  0.00000000000E+00 0. -1.
         22    1    1    2    0    0 -0.79164017695E+03 -0.49383715470E+03  0.14131415051E+04  0.16933807069E+04  0.00000000000E+00 0. -1.
<mgrwt>
<rscale>  0 0.21287208E+04</rscale>
<asrwt>0</asrwt>
<pdfrwt beam="1">  1        3 0.32386803E+00 0.21287208E+04</pdfrwt>
<pdfrwt beam="2">  1       -3 0.82790903E-01 0.21287208E+04</pdfrwt>
<totfact> 0.92606646E-02</totfact>
</mgrwt>
</event>
<event>
 6    1  0.8968082E-007  0.1169686E+04  0.7818608E-02  0.9139812E-01
         -1   -1    0    0    0  501 -0.00000000000E+00  0.00000000000E+00  0.12329928643E+04  0.12329928643E+04  0.00000000000E+00 0.  1.
          1   -1    0    0  501    0  0.00000000000E+00 -0.00000000000E+00 -0.27740749597E+03  0.27740749597E+03  0.00000000000E+00 0. -1.
         23    2    1    2    0    0  0.54971557688E+03 -0.21939526149E+02  0.23807282993E+03  0.60624727531E+03  0.90490486784E+02 0.  0.
         11    1    3    3    0    0  0.10047031193E+03 -0.13266762746E+02  0.85815408966E+01  0.10170512975E+03  0.00000000000E+00 0.  1.
        -11    1    3    3    0    0  0.44924526494E+03 -0.86727634026E+01  0.22949128904E+03  0.50454214555E+03  0.00000000000E+00 0. -1.
         22    1    1    2    0    0 -0.54971557688E+03  0.21939526149E+02  0.71751253836E+03  0.90415308492E+03  0.00000000000E+00 0. -1.
<mgrwt>
<rscale>  0 0.11696862E+04</rscale>
<asrwt>0</asrwt>
<pdfrwt beam="1">  1        1 0.42678077E-01 0.11696862E+04</pdfrwt>
<pdfrwt beam="2">  1       -1 0.18969121E+00 0.11696862E+04</pdfrwt>
<totfact> 0.17108061E+01</totfact>
</mgrwt>
</event>
<event>
 6    1  0.8968082E-007  0.2295548E+04  0.7818608E-02  0.8479678E-01
         -1   -1    0    0    0  501 -0.00000000000E+00  0.00000000000E+00  0.56553568622E+03  0.56553568622E+03  0.00000000000E+00 0.  1.
          1   -1    0    0  501    0  0.00000000000E+00 -0.00000000000E+00 -0.23294474227E+04  0.23294474227E+04  0.00000000000E+00 0. -1.
         23    2    1    2    0    0  0.72986696933E+03 -0.71526459481E+03 -0.15369762838E+04  0.18481741802E+04  0.95616264729E+02 0.  0.
         13    1    3    3    0    0  0.36086193671E+03 -0.31393531830E+03 -0.64947453797E+03  0.80659400997E+03  0.00000000000E+00 0.  1.
        -13    1    3    3    0    0  0.36900503262E+03 -0.40132927651E+03 -0.88750174581E+03  0.10415801703E+04  0.00000000000E+00 0. -1.
         22    1    1    2    0    0 -0.72986696933E+03  0.71526459481E+03 -0.22693545273E+03  0.10468089287E+04  0.00000000000E+00 0.  1.
<mgrwt>
<rscale>  0 0.22955484E+04</rscale>
<asrwt>0</asrwt>
<pdfrwt beam="1">  1        1 0.35837652E+00 0.22955484E+04</pdfrwt>
<pdfrwt beam="2">  1       -1 0.87005491E-01 0.22955484E+04</pdfrwt>
<totfact> 0.20899660E+00</totfact>
</mgrwt>
</event>
<event>
 6    1  0.8968082E-007  0.4308872E+04  0.7818608E-02  0.7944980E-01
          2   -1    0    0  501    0  0.00000000000E+00  0.00000000000E+00  0.35584598839E+04  0.35584598839E+04  0.00000000000E+00 0. -1.
         -2   -1    0    0    0  501 -0.00000000000E+00 -0.00000000000E+00 -0.13043828137E+04  0.13043828137E+04  0.00000000000E+00 0.  1.
         23    2    1    2    0    0  0.16026050022E+03 -0.16035277541E+04  0.27396548691E+04  0.31797590737E+04  0.90411717973E+02 0.  0.
         13    1    3    3    0    0  0.15212701209E+03 -0.12551621651E+04  0.21978883147E+04  0.25356040173E+04  0.00000000000E+00 0. -1.
        -13    1    3    3    0    0  0.81334881246E+01 -0.34836558895E+03  0.54176655439E+03  0.64415505637E+03  0.00000000000E+00 0.  1.
         22    1    1    2    0    0 -0.16026050022E+03  0.16035277541E+04 -0.48557779890E+03  0.16830836238E+04  0.00000000000E+00 0.  1.
<mgrwt>
<rscale>  0 0.43088717E+04</rscale>
<asrwt>0</asrwt>
<pdfrwt beam="1">  1        2 0.54745536E+00 0.43088717E+04</pdfrwt>
<pdfrwt beam="2">  1       -2 0.20067428E+00 0.43088717E+04</pdfrwt>
<totfact> 0.74735673E-02</totfact>
</mgrwt>
</event>
<event>
 6    1  0.8968082E-007  0.5490666E+04  0.7818608E-02  0.7756975E-01
          2   -1    0    0  501    0  0.00000000000E+00  0.00000000000E+00  0.23416894225E+04  0.23416894225E+04  0.00000000000E+00 0. -1.
         -2   -1    0    0    0  501 -0.00000000000E+00 -0.00000000000E+00 -0.32185537115E+04  0.32185537115E+04  0.00000000000E+00 0.  1.
         23    2    1    2    0    0  0.21935341458E+04 -0.16487647723E+04 -0.49174700627E+03  0.27892626857E+04  0.90298881733E+02 0.  0.
         13    1    3    3    0    0  0.44923394630E+03 -0.37315585630E+03 -0.80627284355E+02  0.58953981255E+03  0.00000000000E+00 0. -1.
        -13    1    3    3    0    0  0.17443001995E+04 -0.12756089160E+04 -0.41111972191E+03  0.21997228731E+04  0.00000000000E+00 0.  1.
         22    1    1    2    0    0 -0.21935341458E+04  0.16487647723E+04 -0.38511728274E+03  0.27709804483E+04  0.00000000000E+00 0.  1.
<mgrwt>
<rscale>  0 0.54906660E+04</rscale>
<asrwt>0</asrwt>
<pdfrwt beam="1">  1        2 0.36025991E+00 0.54906660E+04</pdfrwt>
<pdfrwt beam="2">  1       -2 0.49516211E+00 0.54906660E+04</pdfrwt>
<totfact> 0.53623255E-03</totfact>
</mgrwt>
</event>
<event>
 6    1  0.8968082E-007  0.2012221E+04  0.7818608E-02  0.8600928E-01
         -1   -1    0    0    0  501 -0.00000000000E+00  0.00000000000E+00  0.21043541112E+04  0.21043541112E+04  0.00000000000E+00 0.  1.
          1   -1    0    0  501    0  0.00000000000E+00 -0.00000000000E+00 -0.48103042650E+03  0.48103042650E+03  0.00000000000E+00 0. -1.
         23    2    1    2    0    0  0.23550596753E+03  0.83033739114E+03  0.15679737434E+03  0.88373161691E+03  0.10711167193E+03 0.  0.
         13    1    3    3    0    0  0.92949679012E+02  0.48131316877E+03  0.12169733473E+03  0.50508637929E+03  0.00000000000E+00 0.  1.
        -13    1    3    3    0    0  0.14255628851E+03  0.34902422237E+03  0.35100039606E+02  0.37864523762E+03  0.00000000000E+00 0. -1.
         22    1    1    2    0    0 -0.23550596753E+03 -0.83033739114E+03  0.14665263104E+04  0.17016529208E+04  0.00000000000E+00 0.  1.
<mgrwt>
<rscale>  0 0.20122210E+04</rscale>
<asrwt>0</asrwt>
<pdfrwt beam="1">  1        1 0.74004682E-01 0.20122210E+04</pdfrwt>
<pdfrwt beam="2">  1       -1 0.32374678E+00 0.20122210E+04</pdfrwt>
<totfact> 0.10032648E+00</totfact>
</mgrwt>
</event>
<event>
 6    1  0.8968082E-007  0.9970151E+03  0.7818608E-02  0.9311825E-01
          1   -1    0    0  501    0  0.00000000000E+00  0.00000000000E+00  0.10226748991E+04  0.10226748991E+04  0.00000000000E+00 0. -1.
         -1   -1    0    0    0  501 -0.00000000000E+00 -0.00000000000E+00 -0.24299978465E+03  0.24299978465E+03  0.00000000000E+00 0.  1.
         23    2    1    2    0    0 -0.32100790021E+03  0.34887823640E+03  0.21514273903E+03  0.52847803513E+03  0.90777418059E+02 0.  0.
         11    1    3    3    0    0 -0.47300439951E+02  0.13751367139E+02  0.13317728700E+02  0.51027381036E+02  0.00000000000E+00 0.  1.
        -11    1    3    3    0    0 -0.27370746026E+03  0.33512686926E+03  0.20182501033E+03  0.47745065409E+03  0.00000000000E+00 0. -1.
         22    1    1    2    0    0  0.32100790021E+03 -0.34887823640E+03  0.56453237538E+03  0.73719664858E+03  0.00000000000E+00 0. -1.
<mgrwt>
<rscale>  0 0.99701511E+03</rscale>
<asrwt>0</asrwt>
<pdfrwt beam="1">  1        1 0.15733460E+00 0.99701511E+03</pdfrwt>
<pdfrwt beam="2">  1       -1 0.37384583E-01 0.99701511E+03</pdfrwt>
<totfact> 0.10026527E+02</totfact>
</mgrwt>
</event>
<event>
 6    1  0.8968082E-007  0.2070159E+04  0.7818608E-02  0.8574504E-01
         -2   -1    0    0    0  501 -0.00000000000E+00  0.00000000000E+00  0.55225978275E+03  0.55225978275E+03  0.00000000000E+00 0.  1.
          2   -1    0    0  501    0  0.00000000000E+00 -0.00000000000E+00 -0.19400104909E+04  0.19400104909E+04  0.00000000000E+00 0. -1.
         23    2    1    2    0    0  0.42320203290E+03 -0.47995238781E+02  0.43605883274E+03  0.61938887190E+03  0.10996256375E+03 0.  0.
         13    1    3    3    0    0  0.38309427932E+03 -0.89282258886E+01  0.36834440813E+03  0.53152473420E+03  0.00000000000E+00 0.  1.
        -13    1    3    3    0    0  0.40107753583E+02 -0.39067012892E+02  0.67714424616E+02  0.87864137706E+02  0.00000000000E+00 0. -1.
         22    1    1    2    0    0 -0.42320203290E+03  0.47995238781E+02 -0.18238095409E+04  0.18728814018E+04  0.00000000000E+00 0. -1.
<mgrwt>
<rscale>  0 0.20701592E+04</rscale>
<asrwt>0</asrwt>
<pdfrwt beam="1">  1        2 0.29846315E+00 0.20701592E+04</pdfrwt>
<pdfrwt beam="2">  1       -2 0.84963044E-01 0.20701592E+04</pdfrwt>
<totfact> 0.80378322E+00</totfact>
</mgrwt>
</event>
<event>
 6    1  0.8968082E-007  0.2072825E+04  0.7818608E-02  0.8573309E-01
         -2   -1    0    0    0  501 -0.00000000000E+00  0.00000000000E+00  0.91389497962E+03  0.91389497962E+03  0.00000000000E+00 0.  1.
          2   -1    0    0  501    0  0.00000000000E+00 -0.00000000000E+00 -0.11753551162E+04  0.11753551162E+04  0.00000000000E+00 0. -1.
         23    2    1    2    0    0 -0.87293499663E+03  0.18366714191E+02 -0.69010328274E+03  0.11165796525E+04  0.90303571277E+02 0.  0.
         11    1    3    3    0    0 -0.55608271386E+03  0.55100440652E+02 -0.43747924648E+03  0.70968453155E+03  0.00000000000E+00 0. -1.
        -11    1    3    3    0    0 -0.31685228276E+03 -0.36733726461E+02 -0.25262403626E+03  0.40689512094E+03  0.00000000000E+00 0.  1.
         22    1    1    2    0    0  0.87293499663E+03 -0.18366714191E+02  0.42864314618E+03  0.97267044331E+03  0.00000000000E+00 0.  1.
<mgrwt>
<rscale>  0 0.20728253E+04</rscale>
<asrwt>0</asrwt>
<pdfrwt beam="1">  1        2 0.18082386E+00 0.20728253E+04</pdfrwt>
<pdfrwt beam="2">  1       -2 0.14059923E+00 0.20728253E+04</pdfrwt>
<totfact> 0.64295999E+00</totfact>
</mgrwt>
</event>
<event>
 6    1  0.8968082E-007  0.2919365E+04  0.7818608E-02  0.8267139E-01
          2   -1    0    0  501    0  0.00000000000E+00  0.00000000000E+00  0.11719773232E+04  0.11719773232E+04  0.00000000000E+00 0. -1.
         -2   -1    0    0    0  501 -0.00000000000E+00 -0.00000000000E+00 -0.18180161159E+04  0.18180161159E+04  0.00000000000E+00 0.  1.
         23    2    1    2    0    0  0.26790028576E+03 -0.10509737992E+04  0.67507132930E+03  0.12807104186E+04  0.90451018831E+02 0.  0.
         11    1    3    3    0    0  0.12247006618E+03 -0.65850084362E+03  0.41682872527E+03  0.78890333018E+03  0.00000000000E+00 0. -1.
        -11    1    3    3    0    0  0.14543021958E+03 -0.39247295559E+03  0.25824260404E+03  0.49180708837E+03  0.00000000000E+00 0.  1.
         22    1    1    2    0    0 -0.26790028576E+03  0.10509737992E+04 -0.13211101220E+04  0.17092830205E+04  0.00000000000E+00 0.  1.
<mgrwt>
<rscale>  0 0.29193655E+04</rscale>
<asrwt>0</asrwt>
<pdfrwt beam="1">  1        2 0.18030420E+00 0.29193655E+04</pdfrwt>
<pdfrwt beam="2">  1       -2 0.27969479E+00 0.29193655E+04</pdfrwt>
<totfact> 0.71755058E-01</totfact>
</mgrwt>
</event>
<event>
 6    1  0.8968082E-007  0.1806130E+04  0.7818608E-02  0.8703046E-01
          1   -1    0    0  501    0  0.00000000000E+00  0.00000000000E+00  0.35934461600E+04  0.35934461600E+04  0.00000000000E+00 0. -1.
         -1   -1    0    0    0  501 -0.00000000000E+00 -0.00000000000E+00 -0.22694838676E+03  0.22694838676E+03  0.00000000000E+00 0.  1.
         23    2    1    2    0    0  0.26709957951E+03 -0.85729067164E+03  0.18389318380E+04  0.20484613743E+04  0.90742582415E+02 0.  0.
         11    1    3    3    0    0  0.27053044382E+03 -0.80587489961E+03  0.17107839871E+04  0.19103410495E+04  0.00000000000E+00 0.  1.
        -11    1    3    3    0    0 -0.34308643159E+01 -0.51415772030E+02  0.12814785090E+03  0.13812032484E+03  0.00000000000E+00 0. -1.
         22    1    1    2    0    0 -0.26709957951E+03  0.85729067164E+03  0.15275659352E+04  0.17719331724E+04  0.00000000000E+00 0.  1.
<mgrwt>
<rscale>  0 0.18061305E+04</rscale>
<asrwt>0</asrwt>
<pdfrwt beam="1">  1        1 0.55283783E+00 0.18061305E+04</pdfrwt>
<pdfrwt beam="2">  1       -1 0.34915139E-01 0.18061305E+04</pdfrwt>
<totfact> 0.15590061E+00</totfact>
</mgrwt>
</event>
<event>
 6    1  0.8968082E-007  0.1558850E+04  0.7818608E-02  0.8846235E-01
         -2   -1    0    0    0  501 -0.00000000000E+00  0.00000000000E+00  0.18430215472E+03  0.18430215472E+03  0.00000000000E+00 0.  1.
          2   -1    0    0  501    0  0.00000000000E+00 -0.00000000000E+00 -0.32962360337E+04  0.32962360337E+04  0.00000000000E+00 0. -1.
         23    2    1    2    0    0 -0.23635128702E+03 -0.73508878626E+03 -0.17519135114E+04  0.19166095281E+04  0.89295447465E+02 0.  0.
         13    1    3    3    0    0 -0.12186761818E+03 -0.51027121788E+03 -0.11543947515E+04  0.12680124899E+04  0.00000000000E+00 0.  1.
        -13    1    3    3    0    0 -0.11448366884E+03 -0.22481756838E+03 -0.59751875991E+03  0.64859703817E+03  0.00000000000E+00 0. -1.
         22    1    1    2    0    0  0.23635128702E+03  0.73508878626E+03 -0.13600203675E+04  0.15639286603E+04  0.00000000000E+00 0.  1.
<mgrwt>
<rscale>  0 0.15588501E+04</rscale>
<asrwt>0</asrwt>
<pdfrwt beam="1">  1        2 0.50711321E+00 0.15588501E+04</pdfrwt>
<pdfrwt beam="2">  1       -2 0.28354179E-01 0.15588501E+04</pdfrwt>
<totfact> 0.12396127E+01</totfact>
</mgrwt>
</event>
<event>
 6    1  0.8968082E-007  0.9476170E+03  0.7818608E-02  0.9367940E-01
          2   -1    0    0  501    0  0.00000000000E+00  0.00000000000E+00  0.20179490071E+04  0.20179490071E+04  0.00000000000E+00 0. -1.
         -2   -1    0    0    0  501 -0.00000000000E+00 -0.00000000000E+00 -0.11124884679E+03  0.11124884679E+03  0.00000000000E+00 0.  1.
         23    2    1    2    0    0  0.19881510120E+03 -0.33071114501E+03  0.15631455342E+04  0.16125479850E+04  0.89385328606E+02 0.  0.
         11    1    3    3    0    0  0.11064728486E+03 -0.10097256396E+03  0.61773218083E+03  0.63563458650E+03  0.00000000000E+00 0. -1.
        -11    1    3    3    0    0  0.88167816344E+02 -0.22973858105E+03  0.94541335338E+03  0.97691339852E+03  0.00000000000E+00 0.  1.
         22    1    1    2    0    0 -0.19881510120E+03  0.33071114501E+03  0.34355462614E+03  0.51664986891E+03  0.00000000000E+00 0.  1.
<mgrwt>
<rscale>  0 0.94761701E+03</rscale>
<asrwt>0</asrwt>
<pdfrwt beam="1">  1        2 0.31045366E+00 0.94761701E+03</pdfrwt>
<pdfrwt beam="2">  1       -2 0.17115209E-01 0.94761701E+03</pdfrwt>
<totfact> 0.18415360E+02</totfact>
</mgrwt>
</event>
<event>
 6    1  0.8968082E-007  0.2656940E+04  0.7818608E-02  0.8349113E-01
          2   -1    0    0  501    0  0.00000000000E+00  0.00000000000E+00  0.10277934221E+04  0.10277934221E+04  0.00000000000E+00 0. -1.
         -2   -1    0    0    0  501 -0.00000000000E+00 -0.00000000000E+00 -0.17171079943E+04  0.17171079943E+04  0.00000000000E+00 0.  1.
         23    2    1    2    0    0  0.89278053534E+03 -0.10212419539E+03 -0.13536910278E+04  0.16273672959E+04  0.91424731536E+02 0.  0.
         13    1    3    3    0    0  0.22862098598E+03 -0.51459312134E+02 -0.41066641417E+03  0.47282398392E+03  0.00000000000E+00 0.  1.
        -13    1    3    3    0    0  0.66415954936E+03 -0.50664883256E+02 -0.94302461363E+03  0.11545433120E+04  0.00000000000E+00 0. -1.
         22    1    1    2    0    0 -0.89278053534E+03  0.10212419539E+03  0.66437645567E+03  0.11175341205E+04  0.00000000000E+00 0. -1.
<mgrwt>
<rscale>  0 0.26569398E+04</rscale>
<asrwt>0</asrwt>
<pdfrwt beam="1">  1        2 0.15812207E+00 0.26569398E+04</pdfrwt>
<pdfrwt beam="2">  1       -2 0.26417046E+00 0.26569398E+04</pdfrwt>
<totfact> 0.11198483E+00</totfact>
</mgrwt>
</event>
<event>
 6    1  0.8968082E-007  0.3837288E+04  0.7818608E-02  0.8038200E-01
         -1   -1    0    0    0  501 -0.00000000000E+00  0.00000000000E+00  0.18268906273E+04  0.18268906273E+04  0.00000000000E+00 0.  1.
          1   -1    0    0  501    0  0.00000000000E+00 -0.00000000000E+00 -0.20150051111E+04  0.20150051111E+04  0.00000000000E+00 0. -1.
         23    2    1    2    0    0 -0.37353595178E+03  0.16182671281E+04  0.86554952635E+03  0.18750389944E+04  0.90981552351E+02 0.  0.
         11    1    3    3    0    0 -0.25749380211E+03  0.12446845842E+04  0.69019860937E+03  0.14463460487E+04  0.00000000000E+00 0.  1.
        -11    1    3    3    0    0 -0.11604214967E+03  0.37358254393E+03  0.17535091697E+03  0.42869294572E+03  0.00000000000E+00 0. -1.
         22    1    1    2    0    0  0.37353595178E+03 -0.16182671281E+04 -0.10536640101E+04  0.19668567440E+04  0.00000000000E+00 0. -1.
<mgrwt>
<rscale>  0 0.38372876E+04</rscale>
<asrwt>0</asrwt>
<pdfrwt beam="1">  1        1 0.31000079E+00 0.38372876E+04</pdfrwt>
<pdfrwt beam="2">  1       -1 0.28106009E+00 0.38372876E+04</pdfrwt>
<totfact> 0.10115592E-01</totfact>
</mgrwt>
</event>
<event>
 6    1  0.8968082E-007  0.1764111E+04  0.7818608E-02  0.8725621E-01
         -2   -1    0    0    0  501 -0.00000000000E+00  0.00000000000E+00  0.67906099705E+03  0.67906099705E+03  0.00000000000E+00 0.  1.
          2   -1    0    0  501    0  0.00000000000E+00 -0.00000000000E+00 -0.11457314238E+04  0.11457314238E+04  0.00000000000E+00 0. -1.
         23    2    1    2    0    0 -0.69808433798E+03 -0.15610784116E+03  0.29586395855E+03  0.77925423899E+03  0.89500201167E+02 0.  0.
         13    1    3    3    0    0 -0.58318923395E+03 -0.12515432433E+03  0.28098017588E+03  0.65933538259E+03  0.00000000000E+00 0. -1.
        -13    1    3    3    0    0 -0.11489510403E+03 -0.30953516823E+02  0.14883782668E+02  0.11991885640E+03  0.00000000000E+00 0.  1.
         22    1    1    2    0    0  0.69808433798E+03  0.15610784116E+03 -0.76253438534E+03  0.10455381819E+04  0.00000000000E+00 0. -1.
<mgrwt>
<rscale>  0 0.17641106E+04</rscale>
<asrwt>0</asrwt>
<pdfrwt beam="1">  1        2 0.17626637E+00 0.17641106E+04</pdfrwt>
<pdfrwt beam="2">  1       -2 0.10447092E+00 0.17641106E+04</pdfrwt>
<totfact> 0.14390165E+01</totfact>
</mgrwt>
</event>
<event>
 6    1  0.8968082E-007  0.2042220E+04  0.7818608E-02  0.8587132E-01
         -1   -1    0    0    0  501 -0.00000000000E+00  0.00000000000E+00  0.10310442006E+04  0.10310442006E+04  0.00000000000E+00 0.  1.
          1   -1    0    0  501    0  0.00000000000E+00 -0.00000000000E+00 -0.10112719892E+04  0.10112719892E+04  0.00000000000E+00 0. -1.
         23    2    1    2    0    0 -0.87586990935E+03  0.30029143414E+02  0.52990776358E+03  0.10282707623E+04  0.92134006155E+02 0.  0.
         13    1    3    3    0    0 -0.17088443139E+03 -0.23664277892E+02  0.12971426373E+03  0.21584086072E+03  0.00000000000E+00 0.  1.
        -13    1    3    3    0    0 -0.70498547796E+03  0.53693421305E+02  0.40019349984E+03  0.81242990156E+03  0.00000000000E+00 0. -1.
         22    1    1    2    0    0  0.87586990935E+03 -0.30029143414E+02 -0.51013555221E+03  0.10140454276E+04  0.00000000000E+00 0. -1.
<mgrwt>
<rscale>  0 0.20422205E+04</rscale>
<asrwt>0</asrwt>
<pdfrwt beam="1">  1        1 0.15558031E+00 0.20422205E+04</pdfrwt>
<pdfrwt beam="2">  1       -1 0.15862218E+00 0.20422205E+04</pdfrwt>
<totfact> 0.41030510E+00</totfact>
</mgrwt>
</event>
<event>
 6    1  0.8968082E-007  0.2607671E+04  0.7818608E-02  0.8365600E-01
          1   -1    0    0  501    0  0.00000000000E+00  0.00000000000E+00  0.64667678278E+03  0.64667678278E+03  0.00000000000E+00 0. -1.
         -1   -1    0    0    0  501 -0.00000000000E+00 -0.00000000000E+00 -0.26288038041E+04  0.26288038041E+04  0.00000000000E+00 0.  1.
         23    2    1    2    0    0  0.12762130605E+04 -0.92084009345E+02 -0.12955155015E+04  0.18233667416E+04  0.95428605960E+02 0.  0.
         13    1    3    3    0    0  0.24675691136E+03 -0.55228830764E+02 -0.26475912611E+03  0.36611008168E+03  0.00000000000E+00 0. -1.
        -13    1    3    3    0    0  0.10294561492E+04 -0.36855178581E+02 -0.10307563754E+04  0.14572566599E+04  0.00000000000E+00 0.  1.
         22    1    1    2    0    0 -0.12762130605E+04  0.92084009345E+02 -0.68661151979E+03  0.14521138453E+04  0.00000000000E+00 0. -1.
<mgrwt>
<rscale>  0 0.26076705E+04</rscale>
<asrwt>0</asrwt>
<pdfrwt beam="1">  1        1 0.99488737E-01 0.26076705E+04</pdfrwt>
<pdfrwt beam="2">  1       -1 0.40443135E+00 0.26076705E+04</pdfrwt>
<totfact> 0.18015095E-01</totfact>
</mgrwt>
</event>
<event>
 6    1  0.9481180E-007  0.3072515E+04  0.7818608E-02  0.8223322E-01
         -2   -1    0    0    0  501 -0.00000000000E+00  0.00000000000E+00  0.13303916945E+04  0.13303916945E+04  0.00000000000E+00 0.  1.
          2   -1    0    0  501    0  0.00000000000E+00 -0.00000000000E+00 -0.17739794700E+04  0.17739794700E+04  0.00000000000E+00 0. -1.
         23    2    1    2    0    0 -0.62926647807E+03 -0.24264285843E+03  0.11711509787E+04  0.13544474228E+04  0.89896323270E+02 0.  0.
         11    1    3    3    0    0 -0.41442739481E+03 -0.16077573737E+03  0.85355234664E+03  0.96236713979E+03  0.00000000000E+00 0.  1.
        -11    1    3    3    0    0 -0.21483908325E+03 -0.81867121059E+02  0.31759863209E+03  0.39208028299E+03  0.00000000000E+00 0. -1.
         22    1    1    2    0    0  0.62926647807E+03  0.24264285843E+03 -0.16147387542E+04  0.17499237416E+04  0.00000000000E+00 0. -1.
<mgrwt>
<rscale>  0 0.30725153E+04</rscale>
<asrwt>0</asrwt>
<pdfrwt beam="1">  1        2 0.27291992E+00 0.30725153E+04</pdfrwt>
<pdfrwt beam="2">  1       -2 0.20467565E+00 0.30725153E+04</pdfrwt>
<totfact> 0.94107795E-01</totfact>
</mgrwt>
</event>
<event>
 6    1  0.8968082E-007  0.1487935E+04  0.7818608E-02  0.8892516E-01
          2   -1    0    0  501    0  0.00000000000E+00  0.00000000000E+00  0.31566218855E+04  0.31566218855E+04  0.00000000000E+00 0. -1.
         -2   -1    0    0    0  501 -0.00000000000E+00 -0.00000000000E+00 -0.17534175629E+03  0.17534175629E+03  0.00000000000E+00 0.  1.
         23    2    1    2    0    0  0.34637296184E+03 -0.13220739978E+03  0.29334772500E+04  0.29581479914E+04  0.88869214422E+02 0.  0.
         13    1    3    3    0    0  0.23863208086E+03 -0.55781673889E+02  0.21030446873E+04  0.21172750935E+04  0.00000000000E+00 0.  1.
        -13    1    3    3    0    0  0.10774088099E+03 -0.76425725888E+02  0.83043256274E+03  0.84087289781E+03  0.00000000000E+00 0. -1.
         22    1    1    2    0    0 -0.34637296184E+03  0.13220739978E+03  0.47802879209E+02  0.37381565044E+03  0.00000000000E+00 0.  1.
<mgrwt>
<rscale>  0 0.14879350E+04</rscale>
<asrwt>0</asrwt>
<pdfrwt beam="1">  1        2 0.48563409E+00 0.14879350E+04</pdfrwt>
<pdfrwt beam="2">  1       -2 0.26975657E-01 0.14879350E+04</pdfrwt>
<totfact> 0.16867244E+01</totfact>
</mgrwt>
</event>
<event>
 6    1  0.8968082E-007  0.5374703E+04  0.7818608E-02  0.7773169E-01
          2   -1    0    0  501    0  0.00000000000E+00  0.00000000000E+00  0.31477906252E+04  0.31477906252E+04  0.00000000000E+00 0. -1.
         -2   -1    0    0    0  501 -0.00000000000E+00 -0.00000000000E+00 -0.22942628054E+04  0.22942628054E+04  0.00000000000E+00 0.  1.
         23    2    1    2    0    0  0.10075180604E+04  0.90874848710E+03  0.27747298527E+04  0.30900471155E+04  0.91372676615E+02 0.  0.
         11    1    3    3    0    0  0.89653115048E+03  0.83729690181E+03  0.25411466910E+04  0.28217478113E+04  0.00000000000E+00 0.  1.
        -11    1    3    3    0    0  0.11098690997E+03  0.71451585290E+02  0.23358316165E+03  0.26829930419E+03  0.00000000000E+00 0. -1.
         22    1    1    2    0    0 -0.10075180604E+04 -0.90874848710E+03 -0.19212020329E+04  0.23520063151E+04  0.00000000000E+00 0.  1.
<mgrwt>
<rscale>  0 0.53747033E+04</rscale>
<asrwt>0</asrwt>
<pdfrwt beam="1">  1        2 0.48427548E+00 0.53747033E+04</pdfrwt>
<pdfrwt beam="2">  1       -2 0.35296351E+00 0.53747033E+04</pdfrwt>
<totfact> 0.14757112E-02</totfact>
</mgrwt>
</event>
<event>
 6    1  0.8968082E-007  0.4040669E+04  0.7818608E-02  0.7996392E-01
          2   -1    0    0  501    0  0.00000000000E+00  0.00000000000E+00  0.14835152901E+04  0.14835152901E+04  0.00000000000E+00 0. -1.
         -2   -1    0    0    0  501 -0.00000000000E+00 -0.00000000000E+00 -0.27514047471E+04  0.27514047471E+04  0.00000000000E+00 0.  1.
         23    2    1    2    0    0  0.10464961283E+04  0.94130276094E+03 -0.21518959965E+04  0.25727911022E+04  0.85980470638E+02 0.  0.
         13    1    3    3    0    0  0.34528209188E+03  0.32877862757E+03 -0.79992595398E+03  0.93123393450E+03  0.00000000000E+00 0.  1.
        -13    1    3    3    0    0  0.70121403644E+03  0.61252413338E+03 -0.13519700426E+04  0.16415571677E+04  0.00000000000E+00 0. -1.
         22    1    1    2    0    0 -0.10464961283E+04 -0.94130276094E+03  0.88400653952E+03  0.16621289349E+04  0.00000000000E+00 0. -1.
<mgrwt>
<rscale>  0 0.40406688E+04</rscale>
<asrwt>0</asrwt>
<pdfrwt beam="1">  1        2 0.22823312E+00 0.40406688E+04</pdfrwt>
<pdfrwt beam="2">  1       -2 0.42329303E+00 0.40406688E+04</pdfrwt>
<totfact> 0.53164729E-02</totfact>
</mgrwt>
</event>
<event>
 6    1  0.8968082E-007  0.5037227E+04  0.7818608E-02  0.7822790E-01
         -2   -1    0    0    0  501 -0.00000000000E+00  0.00000000000E+00  0.32537831046E+04  0.32537831046E+04  0.00000000000E+00 0.  1.
          2   -1    0    0  501    0  0.00000000000E+00 -0.00000000000E+00 -0.19495503896E+04  0.19495503896E+04  0.00000000000E+00 0. -1.
         23    2    1    2    0    0 -0.14730045523E+04 -0.19693768122E+04  0.95068267157E+02  0.24628470226E+04  0.91597170570E+02 0.  0.
         11    1    3    3    0    0 -0.12205259795E+04 -0.16729181702E+04  0.10263733665E+03  0.20733724445E+04  0.00000000000E+00 0.  1.
        -11    1    3    3    0    0 -0.25247857278E+03 -0.29645864204E+03 -0.75690694967E+01  0.38947457808E+03  0.00000000000E+00 0. -1.
         22    1    1    2    0    0  0.14730045523E+04  0.19693768122E+04  0.12091644478E+04  0.27404864716E+04  0.00000000000E+00 0. -1.
<mgrwt>
<rscale>  0 0.50372271E+04</rscale>
<asrwt>0</asrwt>
<pdfrwt beam="1">  1        2 0.29993083E+00 0.50372271E+04</pdfrwt>
<pdfrwt beam="2">  1       -2 0.50058202E+00 0.50372271E+04</pdfrwt>
<totfact> 0.85228847E-03</totfact>
</mgrwt>
</event>
<event>
 6    1  0.8968082E-007  0.1656645E+04  0.7818608E-02  0.8786485E-01
          2   -1    0    0  501    0  0.00000000000E+00  0.00000000000E+00  0.15754057626E+04  0.15754057626E+04  0.00000000000E+00 0. -1.
         -2   -1    0    0    0  501 -0.00000000000E+00 -0.00000000000E+00 -0.43551822271E+03  0.43551822271E+03  0.00000000000E+00 0.  1.
         23    2    1    2    0    0  0.46236105747E+02  0.59674369427E+03 -0.11887960636E+03  0.61710350095E+03  0.91888823869E+02 0.  0.
         13    1    3    3    0    0  0.57954910659E+02  0.26159335138E+03 -0.26418835488E+02  0.26923559947E+03  0.00000000000E+00 0. -1.
        -13    1    3    3    0    0 -0.11718804912E+02  0.33515034289E+03 -0.92460770868E+02  0.34786790148E+03  0.00000000000E+00 0.  1.
         22    1    1    2    0    0 -0.46236105747E+02 -0.59674369427E+03  0.12587671462E+04  0.13938204843E+04  0.00000000000E+00 0. -1.
<mgrwt>
<rscale>  0 0.16566447E+04</rscale>
<asrwt>0</asrwt>
<pdfrwt beam="1">  1        2 0.24237011E+00 0.16566447E+04</pdfrwt>
<pdfrwt beam="2">  1       -2 0.67002804E-01 0.16566447E+04</pdfrwt>
<totfact> 0.22470435E+01</totfact>
</mgrwt>
</event>
<event>
 6    1  0.8968082E-007  0.2707106E+04  0.7818608E-02  0.8332703E-01
         -2   -1    0    0    0  501 -0.00000000000E+00  0.00000000000E+00  0.10956768741E+04  0.10956768741E+04  0.00000000000E+00 0.  1.
          2   -1    0    0  501    0  0.00000000000E+00 -0.00000000000E+00 -0.16721224123E+04  0.16721224123E+04  0.00000000000E+00 0. -1.
         23    2    1    2    0    0  0.68254065367E+03 -0.69697476825E+03 -0.12457022373E+04  0.15847776886E+04  0.90059351571E+02 0.  0.
         11    1    3    3    0    0  0.61518650099E+03 -0.59795662175E+03 -0.11244956392E+04  0.14143892658E+04  0.00000000000E+00 0. -1.
        -11    1    3    3    0    0  0.67354152682E+02 -0.99018146503E+02 -0.12120659808E+03  0.17038842284E+03  0.00000000000E+00 0.  1.
         22    1    1    2    0    0 -0.68254065367E+03  0.69697476825E+03  0.66925669913E+03  0.11830215978E+04  0.00000000000E+00 0.  1.
<mgrwt>
<rscale>  0 0.27071061E+04</rscale>
<asrwt>0</asrwt>
<pdfrwt beam="1">  1        2 0.25724960E+00 0.27071061E+04</pdfrwt>
<pdfrwt beam="2">  1       -2 0.16856567E+00 0.27071061E+04</pdfrwt>
<totfact> 0.19449964E+00</totfact>
</mgrwt>
</event>
<event>
 6    1  0.8968082E-007  0.4594848E+04  0.7818608E-02  0.7894239E-01
          2   -1    0    0  501    0  0.00000000000E+00  0.00000000000E+00  0.26754148024E+04  0.26754148024E+04  0.00000000000E+00 0. -1.
         -2   -1    0    0    0  501 -0.00000000000E+00 -0.00000000000E+00 -0.19728365535E+04  0.19728365535E+04  0.00000000000E+00 0.  1.
         23    2    1    2    0    0 -0.64774876986E+03 -0.71159064116E+03  0.24608157026E+04  0.26439213799E+04  0.93630291380E+02 0.  0.
         11    1    3    3    0    0 -0.10999652691E+03 -0.16853765161E+03  0.57039782428E+03  0.60486184694E+03  0.00000000000E+00 0. -1.
        -11    1    3    3    0    0 -0.53775224295E+03 -0.54305298955E+03  0.18904178783E+04  0.20390595330E+04  0.00000000000E+00 0.  1.
         22    1    1    2    0    0  0.64774876986E+03  0.71159064116E+03 -0.17582374537E+04  0.20043299761E+04  0.00000000000E+00 0.  1.
<mgrwt>
<rscale>  0 0.45948476E+04</rscale>
<asrwt>0</asrwt>
<pdfrwt beam="1">  1        2 0.41160228E+00 0.45948476E+04</pdfrwt>
<pdfrwt beam="2">  1       -2 0.30351332E+00 0.45948476E+04</pdfrwt>
<totfact> 0.62458728E-02</totfact>
</mgrwt>
</event>
<event>
 6    1  0.8968082E-007  0.7404242E+03  0.7818608E-02  0.9650494E-01
         -2   -1    0    0    0  501 -0.00000000000E+00  0.00000000000E+00  0.56134236812E+02  0.56134236812E+02  0.00000000000E+00 0.  1.
          2   -1    0    0  501    0  0.00000000000E+00 -0.00000000000E+00 -0.24415934686E+04  0.24415934686E+04  0.00000000000E+00 0. -1.
         23    2    1    2    0    0  0.14455939491E+03  0.30217098965E+03 -0.16951452229E+04  0.17304349604E+04  0.93183152324E+02 0.  0.
         11    1    3    3    0    0  0.62941294475E+02  0.22427390649E+03 -0.10534177843E+04  0.10788648756E+04  0.00000000000E+00 0.  1.
        -11    1    3    3    0    0  0.81618100435E+02  0.77897083165E+02 -0.64172743861E+03  0.65157008476E+03  0.00000000000E+00 0. -1.
         22    1    1    2    0    0 -0.14455939491E+03 -0.30217098965E+03 -0.69031400887E+03  0.76729274497E+03  0.00000000000E+00 0. -1.
<mgrwt>
<rscale>  0 0.74042416E+03</rscale>
<asrwt>0</asrwt>
<pdfrwt beam="1">  1        2 0.37562973E+00 0.74042416E+03</pdfrwt>
<pdfrwt beam="2">  1       -2 0.86360372E-02 0.74042416E+03</pdfrwt>
<totfact> 0.33955433E+02</totfact>
</mgrwt>
</event>
<event>
 6    1  0.8968082E-007  0.3117822E+04  0.7818608E-02  0.8210864E-01
         -2   -1    0    0    0  501 -0.00000000000E+00  0.00000000000E+00  0.23642027543E+04  0.23642027543E+04  0.00000000000E+00 0.  1.
          2   -1    0    0  501    0  0.00000000000E+00 -0.00000000000E+00 -0.10279165816E+04  0.10279165816E+04  0.00000000000E+00 0. -1.
         23    2    1    2    0    0  0.67824081491E+03  0.13964124171E+04  0.80670509043E+03  0.17518649762E+04  0.90992033603E+02 0.  0.
         13    1    3    3    0    0  0.24577484424E+03  0.60864043171E+03  0.34395117806E+03  0.74104713889E+03  0.00000000000E+00 0.  1.
        -13    1    3    3    0    0  0.43246597066E+03  0.78777198541E+03  0.46275391237E+03  0.10108178373E+04  0.00000000000E+00 0. -1.
         22    1    1    2    0    0 -0.67824081491E+03 -0.13964124171E+04  0.52958108226E+03  0.16402543597E+04  0.00000000000E+00 0. -1.
<mgrwt>
<rscale>  0 0.31178218E+04</rscale>
<asrwt>0</asrwt>
<pdfrwt beam="1">  1        2 0.15814101E+00 0.31178218E+04</pdfrwt>
<pdfrwt beam="2">  1       -2 0.36372350E+00 0.31178218E+04</pdfrwt>
<totfact> 0.26083328E-01</totfact>
</mgrwt>
</event>
<event>
 6    1  0.8968082E-007  0.8127282E+03  0.7818608E-02  0.9541774E-01
         -2   -1    0    0    0  501 -0.00000000000E+00  0.00000000000E+00  0.58480783419E+02  0.58480783419E+02  0.00000000000E+00 0.  1.
          2   -1    0    0  501    0  0.00000000000E+00 -0.00000000000E+00 -0.28236933397E+04  0.28236933397E+04  0.00000000000E+00 0. -1.
         23    2    1    2    0    0 -0.25371038790E+03 -0.30943871020E+03 -0.13248273580E+04  0.13872390758E+04  0.95621381541E+02 0.  0.
         11    1    3    3    0    0 -0.33645778002E+02 -0.77415659918E+02 -0.39621023787E+03  0.40510217893E+03  0.00000000000E+00 0.  1.
        -11    1    3    3    0    0 -0.22006460989E+03 -0.23202305028E+03 -0.92861712012E+03  0.98213689686E+03  0.00000000000E+00 0. -1.
         22    1    1    2    0    0  0.25371038790E+03  0.30943871020E+03 -0.14403851983E+04  0.14949350473E+04  0.00000000000E+00 0. -1.
<mgrwt>
<rscale>  0 0.81272824E+03</rscale>
<asrwt>0</asrwt>
<pdfrwt beam="1">  1        2 0.43441437E+00 0.81272824E+03</pdfrwt>
<pdfrwt beam="2">  1       -2 0.89970434E-02 0.81272824E+03</pdfrwt>
<totfact> 0.18988334E+02</totfact>
</mgrwt>
</event>
<event>
 6    1  0.8968082E-007  0.1957807E+04  0.7818608E-02  0.8626605E-01
          1   -1    0    0  501    0  0.00000000000E+00  0.00000000000E+00  0.78162621426E+03  0.78162621426E+03  0.00000000000E+00 0. -1.
         -1   -1    0    0    0  501 -0.00000000000E+00 -0.00000000000E+00 -0.12259721669E+04  0.12259721669E+04  0.00000000000E+00 0.  1.
         23    2    1    2    0    0  0.34415720861E+03  0.82935234447E+03 -0.61720154236E+03  0.10931867942E+04  0.88600945902E+02 0.  0.
         11    1    3    3    0    0  0.24341582945E+03  0.67691115287E+03 -0.50173877433E+03  0.87704148852E+03  0.00000000000E+00 0.  1.
        -11    1    3    3    0    0  0.10074137916E+03  0.15244119160E+03 -0.11546276803E+03  0.21614530569E+03  0.00000000000E+00 0. -1.
         22    1    1    2    0    0 -0.34415720861E+03 -0.82935234447E+03  0.17285558970E+03  0.91441158698E+03  0.00000000000E+00 0. -1.
<mgrwt>
<rscale>  0 0.19578069E+04</rscale>
<asrwt>0</asrwt>
<pdfrwt beam="1">  1        1 0.12025019E+00 0.19578069E+04</pdfrwt>
<pdfrwt beam="2">  1       -1 0.18861110E+00 0.19578069E+04</pdfrwt>
<totfact> 0.38605927E+00</totfact>
</mgrwt>
</event>
<event>
 6    1  0.8968082E-007  0.9838244E+03  0.7818608E-02  0.9326466E-01
          2   -1    0    0  501    0  0.00000000000E+00  0.00000000000E+00  0.22697782134E+03  0.22697782134E+03  0.00000000000E+00 0. -1.
         -2   -1    0    0    0  501 -0.00000000000E+00 -0.00000000000E+00 -0.10660849014E+04  0.10660849014E+04  0.00000000000E+00 0.  1.
         23    2    1    2    0    0 -0.10052422208E+03  0.45692761410E+03 -0.24203595504E+03  0.53452340794E+03  0.90806973031E+02 0.  0.
         13    1    3    3    0    0 -0.48966901832E+02  0.17688181246E+03 -0.47238121362E+02  0.18951615542E+03  0.00000000000E+00 0.  1.
        -13    1    3    3    0    0 -0.51557320252E+02  0.28004580164E+03 -0.19479783368E+03  0.34500725252E+03  0.00000000000E+00 0. -1.
         22    1    1    2    0    0  0.10052422208E+03 -0.45692761410E+03 -0.59707112499E+03  0.75853931477E+03  0.00000000000E+00 0.  1.
<mgrwt>
<rscale>  0 0.98382443E+03</rscale>
<asrwt>0</asrwt>
<pdfrwt beam="1">  1        2 0.34919664E-01 0.98382443E+03</pdfrwt>
<pdfrwt beam="2">  1       -2 0.16401307E+00 0.98382443E+03</pdfrwt>
<totfact> 0.35255708E+01</totfact>
</mgrwt>
</event>
<event>
 6    1  0.8968082E-007  0.1479812E+04  0.7818608E-02  0.8897990E-01
         -1   -1    0    0    0  501 -0.00000000000E+00  0.00000000000E+00  0.78192076221E+03  0.78192076221E+03  0.00000000000E+00 0.  1.
          1   -1    0    0  501    0  0.00000000000E+00 -0.00000000000E+00 -0.70014917475E+03  0.70014917475E+03  0.00000000000E+00 0. -1.
         23    2    1    2    0    0  0.63712993799E+03  0.36397818372E+03 -0.29730927528E+02  0.73987893260E+03  0.90123419525E+02 0.  0.
         13    1    3    3    0    0  0.23000180246E+03  0.15653413652E+03  0.26619656511E+02  0.27948590509E+03  0.00000000000E+00 0.  1.
        -13    1    3    3    0    0  0.40712813553E+03  0.20744404720E+03 -0.56350584040E+02  0.46039302751E+03  0.00000000000E+00 0. -1.
         22    1    1    2    0    0 -0.63712993799E+03 -0.36397818372E+03  0.11150251498E+03  0.74219100436E+03  0.00000000000E+00 0. -1.
<mgrwt>
<rscale>  0 0.14798124E+04</rscale>
<asrwt>0</asrwt>
<pdfrwt beam="1">  1        1 0.10771526E+00 0.14798124E+04</pdfrwt>
<pdfrwt beam="2">  1       -1 0.12029550E+00 0.14798124E+04</pdfrwt>
<totfact> 0.16243751E+01</totfact>
</mgrwt>
</event>
<event>
 6    1  0.8968082E-007  0.5254833E+04  0.7818608E-02  0.7790356E-01
          2   -1    0    0  501    0  0.00000000000E+00  0.00000000000E+00  0.32093401478E+04  0.32093401478E+04  0.00000000000E+00 0. -1.
         -2   -1    0    0    0  501 -0.00000000000E+00 -0.00000000000E+00 -0.21510085608E+04  0.21510085608E+04  0.00000000000E+00 0.  1.
         23    2    1    2    0    0  0.20087834648E+04 -0.54508519632E+03 -0.11046777322E+04  0.23585262297E+04  0.10002101852E+03 0.  0.
         11    1    3    3    0    0  0.49030721989E+03 -0.11731241080E+03 -0.31346813034E+03  0.59365447892E+03  0.00000000000E+00 0.  1.
        -11    1    3    3    0    0  0.15184762450E+04 -0.42777278552E+03 -0.79120960189E+03  0.17648717508E+04  0.00000000000E+00 0. -1.
         22    1    1    2    0    0 -0.20087834648E+04  0.54508519632E+03  0.21630093192E+04  0.30018224789E+04  0.00000000000E+00 0. -1.
<mgrwt>
<rscale>  0 0.52548333E+04</rscale>
<asrwt>0</asrwt>
<pdfrwt beam="1">  1        2 0.49374463E+00 0.52548333E+04</pdfrwt>
<pdfrwt beam="2">  1       -2 0.33092440E+00 0.52548333E+04</pdfrwt>
<totfact> 0.18671296E-02</totfact>
</mgrwt>
</event>
<event>
 6    1  0.8968082E-007  0.3246229E+04  0.7818608E-02  0.8176714E-01
         -2   -1    0    0    0  501 -0.00000000000E+00  0.00000000000E+00  0.94564439431E+03  0.94564439431E+03  0.00000000000E+00 0.  1.
          2   -1    0    0  501    0  0.00000000000E+00 -0.00000000000E+00 -0.27859319075E+04  0.27859319075E+04  0.00000000000E+00 0. -1.
         23    2    1    2    0    0 -0.34174349579E+03 -0.47946158827E+03 -0.26579089756E+04  0.27240164340E+04  0.95464016999E+02 0.  0.
         11    1    3    3    0    0 -0.10013318024E+03 -0.21658823840E+03 -0.11355209827E+04  0.11603210852E+04  0.00000000000E+00 0.  1.
        -11    1    3    3    0    0 -0.24161031554E+03 -0.26287334987E+03 -0.15223879929E+04  0.15636953487E+04  0.00000000000E+00 0. -1.
         22    1    1    2    0    0  0.34174349579E+03  0.47946158827E+03  0.81762146238E+03  0.10075598678E+04  0.00000000000E+00 0.  1.
<mgrwt>
<rscale>  0 0.32462291E+04</rscale>
<asrwt>0</asrwt>
<pdfrwt beam="1">  1        2 0.42860490E+00 0.32462291E+04</pdfrwt>
<pdfrwt beam="2">  1       -2 0.14548375E+00 0.32462291E+04</pdfrwt>
<totfact> 0.64225626E-01</totfact>
</mgrwt>
</event>
<event>
 6    1  0.8968082E-007  0.2142863E+04  0.7818608E-02  0.8542593E-01
         -1   -1    0    0    0  501 -0.00000000000E+00  0.00000000000E+00  0.95472685473E+03  0.95472685473E+03  0.00000000000E+00 0.  1.
          1   -1    0    0  501    0  0.00000000000E+00 -0.00000000000E+00 -0.12024020374E+04  0.12024020374E+04  0.00000000000E+00 0. -1.
         23    2    1    2    0    0  0.82003723733E+03 -0.21689705549E+03  0.53173755343E+03  0.10051785388E+04  0.90186838895E+02 0.  0.
         13    1    3    3    0    0  0.37160507313E+03 -0.11149847358E+03  0.19257263797E+03  0.43313561489E+03  0.00000000000E+00 0.  1.
        -13    1    3    3    0    0  0.44843216420E+03 -0.10539858191E+03  0.33916491546E+03  0.57204292395E+03  0.00000000000E+00 0. -1.
         22    1    1    2    0    0 -0.82003723733E+03  0.21689705549E+03 -0.77941273614E+03  0.11519503533E+04  0.00000000000E+00 0. -1.
<mgrwt>
<rscale>  0 0.21428631E+04</rscale>
<asrwt>0</asrwt>
<pdfrwt beam="1">  1        1 0.18498493E+00 0.21428631E+04</pdfrwt>
<pdfrwt beam="2">  1       -1 0.14688106E+00 0.21428631E+04</pdfrwt>
<totfact> 0.36001911E+00</totfact>
</mgrwt>
</event>
<event>
 6    1  0.8968082E-007  0.2361796E+04  0.7818608E-02  0.8453947E-01
          1   -1    0    0  501    0  0.00000000000E+00  0.00000000000E+00  0.13714044442E+04  0.13714044442E+04  0.00000000000E+00 0. -1.
         -1   -1    0    0    0  501 -0.00000000000E+00 -0.00000000000E+00 -0.10168553665E+04  0.10168553665E+04  0.00000000000E+00 0.  1.
         23    2    1    2    0    0  0.11439369979E+04  0.59152820204E+02 -0.10610211516E+03  0.11536382359E+04  0.86790605063E+02 0.  0.
         11    1    3    3    0    0  0.30804798971E+03 -0.21862592126E+02 -0.35923942875E+02  0.31090523728E+03  0.00000000000E+00 0. -1.
        -11    1    3    3    0    0  0.83588900823E+03  0.81015412330E+02 -0.70178172284E+02  0.84273299863E+03  0.00000000000E+00 0.  1.
         22    1    1    2    0    0 -0.11439369979E+04 -0.59152820204E+02  0.46065119284E+03  0.12346215748E+04  0.00000000000E+00 0. -1.
<mgrwt>
<rscale>  0 0.23617959E+04</rscale>
<asrwt>0</asrwt>
<pdfrwt beam="1">  1        1 0.21098530E+00 0.23617959E+04</pdfrwt>
<pdfrwt beam="2">  1       -1 0.15643929E+00 0.23617959E+04</pdfrwt>
<totfact> 0.22511419E+00</totfact>
</mgrwt>
</event>
<event>
 6    1  0.8968082E-007  0.2187227E+04  0.7818608E-02  0.8523763E-01
         -1   -1    0    0    0  501 -0.00000000000E+00  0.00000000000E+00  0.41098889115E+03  0.41098889115E+03  0.00000000000E+00 0.  1.
          1   -1    0    0  501    0  0.00000000000E+00 -0.00000000000E+00 -0.29100314349E+04  0.29100314349E+04  0.00000000000E+00 0. -1.
         23    2    1    2    0    0 -0.97074373300E+03 -0.20994292986E+03 -0.19404677501E+04  0.21815356930E+04  0.85225944305E+02 0.  0.
         11    1    3    3    0    0 -0.62115772079E+03 -0.16357832501E+03 -0.11880448527E+04  0.13505722322E+04  0.00000000000E+00 0.  1.
        -11    1    3    3    0    0 -0.34958601221E+03 -0.46364604846E+02 -0.75242289747E+03  0.83096346078E+03  0.00000000000E+00 0. -1.
         22    1    1    2    0    0  0.97074373300E+03  0.20994292986E+03 -0.55857479365E+03  0.11394846331E+04  0.00000000000E+00 0.  1.
<mgrwt>
<rscale>  0 0.21872271E+04</rscale>
<asrwt>0</asrwt>
<pdfrwt beam="1">  1        1 0.44769716E+00 0.21872271E+04</pdfrwt>
<pdfrwt beam="2">  1       -1 0.63229058E-01 0.21872271E+04</pdfrwt>
<totfact> 0.16100454E+00</totfact>
</mgrwt>
</event>
<event>
 6    1  0.8968082E-007  0.1905130E+04  0.7818608E-02  0.8652307E-01
         -1   -1    0    0    0  501 -0.00000000000E+00  0.00000000000E+00  0.63463636441E+03  0.63463636441E+03  0.00000000000E+00 0.  1.
          1   -1    0    0  501    0  0.00000000000E+00 -0.00000000000E+00 -0.14297637509E+04  0.14297637509E+04  0.00000000000E+00 0. -1.
         23    2    1    2    0    0  0.75933087035E+03  0.14864127591E+03 -0.99677481287E+03  0.12648131693E+04  0.86687519620E+02 0.  0.
         13    1    3    3    0    0  0.52833317611E+03  0.91326305548E+02 -0.75028118482E+03  0.92217042641E+03  0.00000000000E+00 0.  1.
        -13    1    3    3    0    0  0.23099769424E+03  0.57314970362E+02 -0.24649362806E+03  0.34264274288E+03  0.00000000000E+00 0. -1.
         22    1    1    2    0    0 -0.75933087035E+03 -0.14864127591E+03  0.20164742643E+03  0.79958694597E+03  0.00000000000E+00 0.  1.
<mgrwt>
<rscale>  0 0.19051300E+04</rscale>
<asrwt>0</asrwt>
<pdfrwt beam="1">  1        1 0.21996365E+00 0.19051300E+04</pdfrwt>
<pdfrwt beam="2">  1       -1 0.97636364E-01 0.19051300E+04</pdfrwt>
<totfact> 0.68924422E+00</totfact>
</mgrwt>
</event>
<event>
 6    1  0.8968082E-007  0.2116654E+04  0.7818608E-02  0.8553942E-01
          1   -1    0    0  501    0  0.00000000000E+00  0.00000000000E+00  0.10571009294E+04  0.10571009294E+04  0.00000000000E+00 0. -1.
         -1   -1    0    0    0  501 -0.00000000000E+00 -0.00000000000E+00 -0.10595548832E+04  0.10595548832E+04  0.00000000000E+00 0.  1.
         23    2    1    2    0    0 -0.37314239311E+03  0.85634377203E+03 -0.49245640774E+03  0.10618277193E+04  0.11137724403E+03 0.  0.
         13    1    3    3    0    0 -0.64402253732E+02  0.25849679557E+03 -0.16672854249E+03  0.31427161897E+03  0.00000000000E+00 0. -1.
        -13    1    3    3    0    0 -0.30874013938E+03  0.59784697646E+03 -0.32572786525E+03  0.74755610032E+03  0.00000000000E+00 0.  1.
         22    1    1    2    0    0  0.37314239311E+03 -0.85634377203E+03  0.49000245391E+03  0.10548280932E+04  0.00000000000E+00 0.  1.
<mgrwt>
<rscale>  0 0.21166544E+04</rscale>
<asrwt>0</asrwt>
<pdfrwt beam="1">  1        1 0.16263091E+00 0.21166544E+04</pdfrwt>
<pdfrwt beam="2">  1       -1 0.16300844E+00 0.21166544E+04</pdfrwt>
<totfact> 0.34812284E+00</totfact>
</mgrwt>
</event>
<event>
 6    1  0.8968082E-007  0.1270111E+04  0.7818608E-02  0.9053609E-01
         -1   -1    0    0    0  501 -0.00000000000E+00  0.00000000000E+00  0.42209725696E+03  0.42209725696E+03  0.00000000000E+00 0.  1.
          1   -1    0    0  501    0  0.00000000000E+00 -0.00000000000E+00 -0.95545679192E+03  0.95545679192E+03  0.00000000000E+00 0. -1.
         23    2    1    2    0    0  0.16454914200E+03 -0.15864729766E+03  0.37084155257E+03  0.44490996249E+03  0.90421415723E+02 0.  0.
         13    1    3    3    0    0  0.14547971805E+03 -0.11651740693E+03  0.22644113442E+03  0.29328525677E+03  0.00000000000E+00 0. -1.
        -13    1    3    3    0    0  0.19069423954E+02 -0.42129890727E+02  0.14440041814E+03  0.15162470571E+03  0.00000000000E+00 0.  1.
         22    1    1    2    0    0 -0.16454914200E+03  0.15864729766E+03 -0.90420108753E+03  0.93264408639E+03  0.00000000000E+00 0. -1.
<mgrwt>
<rscale>  0 0.12701113E+04</rscale>
<asrwt>0</asrwt>
<pdfrwt beam="1">  1        1 0.14699335E+00 0.12701113E+04</pdfrwt>
<pdfrwt beam="2">  1       -1 0.64938040E-01 0.12701113E+04</pdfrwt>
<totfact> 0.38853757E+01</totfact>
</mgrwt>
</event>
<event>
 6    1  0.8968082E-007  0.7908708E+03  0.7818608E-02  0.9573326E-01
         -2   -1    0    0    0  501 -0.00000000000E+00  0.00000000000E+00  0.12881586784E+03  0.12881586784E+03  0.00000000000E+00 0.  1.
          2   -1    0    0  501    0  0.00000000000E+00 -0.00000000000E+00 -0.12138966763E+04  0.12138966763E+04  0.00000000000E+00 0. -1.
         23    2    1    2    0    0 -0.37350131025E+03 -0.11239008753E+03 -0.58241341467E+03  0.70646631091E+03  0.88059652089E+02 0.  0.
         13    1    3    3    0    0 -0.12566991169E+01 -0.13237977675E+02 -0.10640318990E+02  0.17030552950E+02  0.00000000000E+00 0. -1.
        -13    1    3    3    0    0 -0.37224461113E+03 -0.99152109853E+02 -0.57177309568E+03  0.68943575796E+03  0.00000000000E+00 0.  1.
         22    1    1    2    0    0  0.37350131025E+03  0.11239008753E+03 -0.50266739382E+03  0.63624623326E+03  0.00000000000E+00 0. -1.
<mgrwt>
<rscale>  0 0.79087080E+03</rscale>
<asrwt>0</asrwt>
<pdfrwt beam="1">  1        2 0.18675333E+00 0.79087080E+03</pdfrwt>
<pdfrwt beam="2">  1       -2 0.19817826E-01 0.79087080E+03</pdfrwt>
<totfact> 0.40556465E+02</totfact>
</mgrwt>
</event>
<event>
 6    1  0.8968082E-007  0.2543049E+04  0.7818608E-02  0.8387808E-01
          2   -1    0    0  501    0  0.00000000000E+00  0.00000000000E+00  0.99201975629E+03  0.99201975629E+03  0.00000000000E+00 0. -1.
         -2   -1    0    0    0  501 -0.00000000000E+00 -0.00000000000E+00 -0.16297809904E+04  0.16297809904E+04  0.00000000000E+00 0.  1.
         23    2    1    2    0    0 -0.48951070973E+03 -0.44232118773E+03  0.79928077712E+03  0.10405485498E+04  0.92858794972E+02 0.  0.
         11    1    3    3    0    0 -0.39725591124E+03 -0.35404016206E+03  0.69722896394E+03  0.87708889146E+03  0.00000000000E+00 0.  1.
        -11    1    3    3    0    0 -0.92254798488E+02 -0.88281025674E+02  0.10205181318E+03  0.16345965836E+03  0.00000000000E+00 0. -1.
         22    1    1    2    0    0  0.48951070973E+03  0.44232118773E+03 -0.14370420112E+04  0.15812521968E+04  0.00000000000E+00 0.  1.
<mgrwt>
<rscale>  0 0.25430493E+04</rscale>
<asrwt>0</asrwt>
<pdfrwt beam="1">  1        2 0.15261843E+00 0.25430493E+04</pdfrwt>
<pdfrwt beam="2">  1       -2 0.25073553E+00 0.25430493E+04</pdfrwt>
<totfact> 0.14404359E+00</totfact>
</mgrwt>
</event>
<event>
 6    1  0.8968082E-007  0.2615710E+04  0.7818608E-02  0.8362885E-01
          1   -1    0    0  501    0  0.00000000000E+00  0.00000000000E+00  0.23902070781E+04  0.23902070781E+04  0.00000000000E+00 0. -1.
         -1   -1    0    0    0  501 -0.00000000000E+00 -0.00000000000E+00 -0.71562178619E+03  0.71562178619E+03  0.00000000000E+00 0.  1.
         23    2    1    2    0    0 -0.73346586322E+03 -0.17611977942E+03  0.21046148198E+04  0.22375456477E+04  0.90645665378E+02 0.  0.
         13    1    3    3    0    0 -0.50895508001E+03 -0.98608348640E+02  0.15433723750E+04  0.16281146052E+04  0.00000000000E+00 0.  1.
        -13    1    3    3    0    0 -0.22451078321E+03 -0.77511430777E+02  0.56124244483E+03  0.60943104250E+03  0.00000000000E+00 0. -1.
         22    1    1    2    0    0  0.73346586322E+03  0.17611977942E+03 -0.43002952794E+03  0.86828321653E+03  0.00000000000E+00 0.  1.
<mgrwt>
<rscale>  0 0.26157097E+04</rscale>
<asrwt>0</asrwt>
<pdfrwt beam="1">  1        1 0.36772416E+00 0.26157097E+04</pdfrwt>
<pdfrwt beam="2">  1       -1 0.11009566E+00 0.26157097E+04</pdfrwt>
<totfact> 0.10804883E+00</totfact>
</mgrwt>
</event>
<event>
 6    1  0.8968082E-007  0.2259631E+04  0.7818608E-02  0.8494010E-01
          2   -1    0    0  501    0  0.00000000000E+00  0.00000000000E+00  0.22253261433E+04  0.22253261433E+04  0.00000000000E+00 0. -1.
         -2   -1    0    0    0  501 -0.00000000000E+00 -0.00000000000E+00 -0.57361624644E+03  0.57361624644E+03  0.00000000000E+00 0.  1.
         23    2    1    2    0    0 -0.90369340111E+03  0.67457039455E+03  0.79808838328E+03  0.13845956611E+04  0.91940724172E+02 0.  0.
         13    1    3    3    0    0 -0.53978310456E+03  0.34607704057E+03  0.45235985480E+03  0.78470666890E+03  0.00000000000E+00 0.  1.
        -13    1    3    3    0    0 -0.36391029655E+03  0.32849335398E+03  0.34572852848E+03  0.59988899219E+03  0.00000000000E+00 0. -1.
         22    1    1    2    0    0  0.90369340111E+03 -0.67457039455E+03  0.85362151355E+03  0.14143467286E+04  0.00000000000E+00 0. -1.
<mgrwt>
<rscale>  0 0.22596311E+04</rscale>
<asrwt>0</asrwt>
<pdfrwt beam="1">  1        2 0.34235786E+00 0.22596311E+04</pdfrwt>
<pdfrwt beam="2">  1       -2 0.88248654E-01 0.22596311E+04</pdfrwt>
<totfact> 0.50252501E+00</totfact>
</mgrwt>
</event>
<event>
 6    1  0.8968082E-007  0.5916610E+03  0.7818608E-02  0.9922859E-01
          2   -1    0    0  501    0  0.00000000000E+00  0.00000000000E+00  0.21792493816E+04  0.21792493816E+04  0.00000000000E+00 0. -1.
         -2   -1    0    0    0  501 -0.00000000000E+00 -0.00000000000E+00 -0.40158637698E+02  0.40158637698E+02  0.00000000000E+00 0.  1.
         23    2    1    2    0    0 -0.86606236027E+02 -0.17496255798E+03  0.18913124676E+04  0.19039613344E+04  0.99465451093E+02 0.  0.
         13    1    3    3    0    0  0.49872028427E+01 -0.45271692053E+02  0.78422923836E+03  0.78555069639E+03  0.00000000000E+00 0. -1.
        -13    1    3    3    0    0 -0.91593438870E+02 -0.12969086593E+03  0.11070832292E+04  0.11184106380E+04  0.00000000000E+00 0.  1.
         22    1    1    2    0    0  0.86606236027E+02  0.17496255798E+03  0.24777827635E+03  0.31544668495E+03  0.00000000000E+00 0.  1.
<mgrwt>
<rscale>  0 0.59166101E+03</rscale>
<asrwt>0</asrwt>
<pdfrwt beam="1">  1        2 0.33526904E+00 0.59166101E+03</pdfrwt>
<pdfrwt beam="2">  1       -2 0.61782537E-02 0.59166101E+03</pdfrwt>
<totfact> 0.81777317E+02</totfact>
</mgrwt>
</event>
<event>
 6    1  0.8968082E-007  0.2648644E+04  0.7818608E-02  0.8351863E-01
          1   -1    0    0  501    0  0.00000000000E+00  0.00000000000E+00  0.13241788773E+04  0.13241788773E+04  0.00000000000E+00 0. -1.
         -1   -1    0    0    0  501 -0.00000000000E+00 -0.00000000000E+00 -0.13244649803E+04  0.13244649803E+04  0.00000000000E+00 0.  1.
         23    2    1    2    0    0  0.57908150871E+03 -0.10576147115E+04  0.54368204076E+03  0.13258492351E+04  0.91661121061E+02 0.  0.
         11    1    3    3    0    0  0.25359594777E+03 -0.37232111823E+03  0.21106470944E+03  0.49747586009E+03  0.00000000000E+00 0. -1.
        -11    1    3    3    0    0  0.32548556094E+03 -0.68529359330E+03  0.33261733133E+03  0.82837337505E+03  0.00000000000E+00 0.  1.
         22    1    1    2    0    0 -0.57908150871E+03  0.10576147115E+04 -0.54396814383E+03  0.13227946225E+04  0.00000000000E+00 0.  1.
<mgrwt>
<rscale>  0 0.26486438E+04</rscale>
<asrwt>0</asrwt>
<pdfrwt beam="1">  1        1 0.20371983E+00 0.26486438E+04</pdfrwt>
<pdfrwt beam="2">  1       -1 0.20376384E+00 0.26486438E+04</pdfrwt>
<totfact> 0.10810748E+00</totfact>
</mgrwt>
</event>
<event>
 6    1  0.8968082E-007  0.4765740E+04  0.7818608E-02  0.7865696E-01
         -2   -1    0    0    0  501 -0.00000000000E+00  0.00000000000E+00  0.15149612474E+04  0.15149612474E+04  0.00000000000E+00 0.  1.
          2   -1    0    0  501    0  0.00000000000E+00 -0.00000000000E+00 -0.37479969957E+04  0.37479969957E+04  0.00000000000E+00 0. -1.
         23    2    1    2    0    0 -0.45694051360E+03  0.53838695545E+03 -0.36291622549E+04  0.36984057929E+04  0.93442975441E+02 0.  0.
         11    1    3    3    0    0 -0.28611378440E+03  0.34473062678E+03 -0.25262751476E+04  0.25656902432E+04  0.00000000000E+00 0. -1.
        -11    1    3    3    0    0 -0.17082672920E+03  0.19365632867E+03 -0.11028871073E+04  0.11327155497E+04  0.00000000000E+00 0.  1.
         22    1    1    2    0    0  0.45694051360E+03 -0.53838695545E+03  0.13961265067E+04  0.15645524502E+04  0.00000000000E+00 0.  1.
<mgrwt>
<rscale>  0 0.47657403E+04</rscale>
<asrwt>0</asrwt>
<pdfrwt beam="1">  1        2 0.57661493E+00 0.47657403E+04</pdfrwt>
<pdfrwt beam="2">  1       -2 0.23307096E+00 0.47657403E+04</pdfrwt>
<totfact> 0.32517486E-02</totfact>
</mgrwt>
</event>
<event>
 6    1  0.8968082E-007  0.2176715E+04  0.7818608E-02  0.8528183E-01
          2   -1    0    0  501    0  0.00000000000E+00  0.00000000000E+00  0.73880359133E+03  0.73880359133E+03  0.00000000000E+00 0. -1.
         -2   -1    0    0    0  501 -0.00000000000E+00 -0.00000000000E+00 -0.16032975913E+04  0.16032975913E+04  0.00000000000E+00 0.  1.
         23    2    1    2    0    0 -0.53769291377E+03  0.66806831681E+03 -0.11506932394E+04  0.14380331818E+04  0.91736336494E+02 0.  0.
         13    1    3    3    0    0 -0.43815725267E+03  0.51874534698E+03 -0.96331265907E+03  0.11785795655E+04  0.00000000000E+00 0. -1.
        -13    1    3    3    0    0 -0.99535661097E+02  0.14932296984E+03 -0.18738058033E+03  0.25945361635E+03  0.00000000000E+00 0.  1.
         22    1    1    2    0    0  0.53769291377E+03 -0.66806831681E+03  0.28619923941E+03  0.90406800081E+03  0.00000000000E+00 0. -1.
<mgrwt>
<rscale>  0 0.21767150E+04</rscale>
<asrwt>0</asrwt>
<pdfrwt beam="1">  1        2 0.11366209E+00 0.21767150E+04</pdfrwt>
<pdfrwt beam="2">  1       -2 0.24666117E+00 0.21767150E+04</pdfrwt>
<totfact> 0.23589340E+00</totfact>
</mgrwt>
</event>
<event>
 6    1  0.8968082E-007  0.8608963E+03  0.7818608E-02  0.9475828E-01
          2   -1    0    0  501    0  0.00000000000E+00  0.00000000000E+00  0.10315353572E+04  0.10315353572E+04  0.00000000000E+00 0. -1.
         -2   -1    0    0    0  501 -0.00000000000E+00 -0.00000000000E+00 -0.17962120829E+03  0.17962120829E+03  0.00000000000E+00 0.  1.
         23    2    1    2    0    0  0.24448705384E+03  0.25070927753E+03  0.77110488127E+03  0.85176931045E+03  0.90989883942E+02 0.  0.
         13    1    3    3    0    0  0.17663474179E+03  0.11740036099E+03  0.44056089130E+03  0.48895457428E+03  0.00000000000E+00 0. -1.
        -13    1    3    3    0    0  0.67852312049E+02  0.13330891654E+03  0.33054398997E+03  0.36281473617E+03  0.00000000000E+00 0.  1.
         22    1    1    2    0    0 -0.24448705384E+03 -0.25070927753E+03  0.80809267628E+02  0.35938725502E+03  0.00000000000E+00 0.  1.
<mgrwt>
<rscale>  0 0.86089634E+03</rscale>
<asrwt>0</asrwt>
<pdfrwt beam="1">  1        2 0.15869774E+00 0.86089634E+03</pdfrwt>
<pdfrwt beam="2">  1       -2 0.27634033E-01 0.86089634E+03</pdfrwt>
<totfact> 0.28786255E+02</totfact>
</mgrwt>
</event>
<event>
 6    1  0.8968082E-007  0.2155303E+04  0.7818608E-02  0.8537266E-01
         -2   -1    0    0    0  501 -0.00000000000E+00  0.00000000000E+00  0.62209245111E+03  0.62209245111E+03  0.00000000000E+00 0.  1.
          2   -1    0    0  501    0  0.00000000000E+00 -0.00000000000E+00 -0.18668175176E+04  0.18668175176E+04  0.00000000000E+00 0. -1.
         23    2    1    2    0    0 -0.55602557050E+03  0.81902042307E+03 -0.11068840650E+04  0.14894305892E+04  0.11511845290E+03 0.  0.
         11    1    3    3    0    0 -0.24133900402E+03  0.45725071672E+03 -0.58390332849E+03  0.77991398873E+03  0.00000000000E+00 0. -1.
        -11    1    3    3    0    0 -0.31468656648E+03  0.36176970635E+03 -0.52298073648E+03  0.70951660042E+03  0.00000000000E+00 0.  1.
         22    1    1    2    0    0  0.55602557050E+03 -0.81902042307E+03 -0.13784100152E+03  0.99947937955E+03  0.00000000000E+00 0.  1.
<mgrwt>
<rscale>  0 0.21553033E+04</rscale>
<asrwt>0</asrwt>
<pdfrwt beam="1">  1        2 0.28720270E+00 0.21553033E+04</pdfrwt>
<pdfrwt beam="2">  1       -2 0.95706531E-01 0.21553033E+04</pdfrwt>
<totfact> 0.66571418E+00</totfact>
</mgrwt>
</event>
<event>
 6    1  0.8968082E-007  0.1849374E+04  0.7818608E-02  0.8680475E-01
         -2   -1    0    0    0  501 -0.00000000000E+00  0.00000000000E+00  0.25791454091E+03  0.25791454091E+03  0.00000000000E+00 0.  1.
          2   -1    0    0  501    0  0.00000000000E+00 -0.00000000000E+00 -0.33152307917E+04  0.33152307917E+04  0.00000000000E+00 0. -1.
         23    2    1    2    0    0 -0.57822277392E+03  0.43090136020E+03 -0.26436930461E+04  0.27418200569E+04  0.91906169753E+02 0.  0.
         13    1    3    3    0    0 -0.17201060135E+03  0.13651080965E+03 -0.65521760611E+03  0.69103759629E+03  0.00000000000E+00 0. -1.
        -13    1    3    3    0    0 -0.40621217258E+03  0.29439055055E+03 -0.19884754400E+04  0.20507824606E+04  0.00000000000E+00 0.  1.
         22    1    1    2    0    0  0.57822277392E+03 -0.43090136020E+03 -0.41362320465E+03  0.83132527565E+03  0.00000000000E+00 0.  1.
<mgrwt>
<rscale>  0 0.18493742E+04</rscale>
<asrwt>0</asrwt>
<pdfrwt beam="1">  1        2 0.51003551E+00 0.18493742E+04</pdfrwt>
<pdfrwt beam="2">  1       -2 0.39679160E-01 0.18493742E+04</pdfrwt>
<totfact> 0.61829771E+00</totfact>
</mgrwt>
</event>
<event>
 6    1  0.8968082E-007  0.4026269E+04  0.7818608E-02  0.7999268E-01
          2   -1    0    0  501    0  0.00000000000E+00  0.00000000000E+00  0.19963662769E+04  0.19963662769E+04  0.00000000000E+00 0. -1.
         -2   -1    0    0    0  501 -0.00000000000E+00 -0.00000000000E+00 -0.20300436861E+04  0.20300436861E+04  0.00000000000E+00 0.  1.
         23    2    1    2    0    0  0.32220100612E+03  0.74887447422E+03  0.18227067411E+04  0.19989019901E+04  0.93396122473E+02 0.  0.
         13    1    3    3    0    0  0.28614983540E+03  0.59481720515E+03  0.14081030220E+04  0.15551345140E+04  0.00000000000E+00 0.  1.
        -13    1    3    3    0    0  0.36051170715E+02  0.15405726907E+03  0.41460371902E+03  0.44376747615E+03  0.00000000000E+00 0. -1.
         22    1    1    2    0    0 -0.32220100612E+03 -0.74887447422E+03 -0.18563841503E+04  0.20275079728E+04  0.00000000000E+00 0.  1.
<mgrwt>
<rscale>  0 0.40262691E+04</rscale>
<asrwt>0</asrwt>
<pdfrwt beam="1">  1        2 0.30713328E+00 0.40262691E+04</pdfrwt>
<pdfrwt beam="2">  1       -2 0.31231441E+00 0.40262691E+04</pdfrwt>
<totfact> 0.14110944E-01</totfact>
</mgrwt>
</event>
<event>
 6    1  0.8968082E-007  0.1878522E+04  0.7818608E-02  0.8665622E-01
         -2   -1    0    0    0  501 -0.00000000000E+00  0.00000000000E+00  0.15103215971E+04  0.15103215971E+04  0.00000000000E+00 0.  1.
          2   -1    0    0  501    0  0.00000000000E+00 -0.00000000000E+00 -0.58412164598E+03  0.58412164598E+03  0.00000000000E+00 0. -1.
         23    2    1    2    0    0  0.71248295165E+03  0.60768097420E+03  0.43273967340E+03  0.10359484776E+04  0.94960520831E+02 0.  0.
         11    1    3    3    0    0  0.48621568847E+03  0.39817841010E+03  0.24245175062E+03  0.67359824329E+03  0.00000000000E+00 0.  1.
        -11    1    3    3    0    0  0.22626726319E+03  0.20950256410E+03  0.19028792278E+03  0.36235023432E+03  0.00000000000E+00 0. -1.
         22    1    1    2    0    0 -0.71248295165E+03 -0.60768097420E+03  0.49346027769E+03  0.10584947654E+04  0.00000000000E+00 0.  1.
<mgrwt>
<rscale>  0 0.18785223E+04</rscale>
<asrwt>0</asrwt>
<pdfrwt beam="1">  1        2 0.89864869E-01 0.18785223E+04</pdfrwt>
<pdfrwt beam="2">  1       -2 0.23235717E+00 0.18785223E+04</pdfrwt>
<totfact> 0.39701846E+00</totfact>
</mgrwt>
</event>
<event>
 6    1  0.8968082E-007  0.1732935E+04  0.7818608E-02  0.8742800E-01
         -2   -1    0    0    0  501 -0.00000000000E+00  0.00000000000E+00  0.96876255583E+03  0.96876255583E+03  0.00000000000E+00 0.  1.
          2   -1    0    0  501    0  0.00000000000E+00 -0.00000000000E+00 -0.77497411387E+03  0.77497411387E+03  0.00000000000E+00 0. -1.
         23    2    1    2    0    0 -0.45754143885E+03  0.38721944195E+03  0.72308100012E+03  0.94409070016E+03  0.95802155028E+02 0.  0.
         13    1    3    3    0    0 -0.67981121914E+02  0.91924471158E+02  0.98137130643E+02  0.15067328146E+03  0.00000000000E+00 0. -1.
        -13    1    3    3    0    0 -0.38956031693E+03  0.29529497080E+03  0.62494386948E+03  0.79341741870E+03  0.00000000000E+00 0.  1.
         22    1    1    2    0    0  0.45754143885E+03 -0.38721944195E+03 -0.52929255816E+03  0.79964596955E+03  0.00000000000E+00 0. -1.
<mgrwt>
<rscale>  0 0.17329350E+04</rscale>
<asrwt>0</asrwt>
<pdfrwt beam="1">  1        2 0.11922679E+00 0.17329350E+04</pdfrwt>
<pdfrwt beam="2">  1       -2 0.14904039E+00 0.17329350E+04</pdfrwt>
<totfact> 0.10387477E+01</totfact>
</mgrwt>
</event>
<event>
 6    1  0.8968082E-007  0.2388575E+04  0.7818608E-02  0.8443793E-01
         -2   -1    0    0    0  501 -0.00000000000E+00  0.00000000000E+00  0.10715441278E+04  0.10715441278E+04  0.00000000000E+00 0.  1.
          2   -1    0    0  501    0  0.00000000000E+00 -0.00000000000E+00 -0.13310914228E+04  0.13310914228E+04  0.00000000000E+00 0. -1.
         23    2    1    2    0    0  0.74524060348E+03 -0.41238895952E+03 -0.96961758863E+03  0.12937405904E+04  0.90322954014E+02 0.  0.
         13    1    3    3    0    0  0.27438397625E+03 -0.10456618984E+03 -0.34960270111E+03  0.45655525745E+03  0.00000000000E+00 0. -1.
        -13    1    3    3    0    0  0.47085662722E+03 -0.30782276968E+03 -0.62001488752E+03  0.83718533294E+03  0.00000000000E+00 0.  1.
         22    1    1    2    0    0 -0.74524060348E+03  0.41238895952E+03  0.71007029356E+03  0.11088949602E+04  0.00000000000E+00 0.  1.
<mgrwt>
<rscale>  0 0.23885755E+04</rscale>
<asrwt>0</asrwt>
<pdfrwt beam="1">  1        2 0.20478330E+00 0.23885755E+04</pdfrwt>
<pdfrwt beam="2">  1       -2 0.16485294E+00 0.23885755E+04</pdfrwt>
<totfact> 0.33127729E+00</totfact>
</mgrwt>
</event>
<event>
 6    1  0.8968082E-007  0.5186160E+03  0.7818608E-02  0.1009031E+00
          1   -1    0    0  501    0  0.00000000000E+00  0.00000000000E+00  0.15535194739E+03  0.15535194739E+03  0.00000000000E+00 0. -1.
         -1   -1    0    0    0  501 -0.00000000000E+00 -0.00000000000E+00 -0.43282773336E+03  0.43282773336E+03  0.00000000000E+00 0.  1.
         23    2    1    2    0    0  0.26623201214E+02 -0.17286324242E+03 -0.34751103313E+03  0.39977736849E+03  0.92019187040E+02 0.  0.
         13    1    3    3    0    0  0.46483718038E+02 -0.47704360536E+02 -0.16155282864E+03  0.17474483826E+03  0.00000000000E+00 0. -1.
        -13    1    3    3    0    0 -0.19860516824E+02 -0.12515888188E+03 -0.18595820449E+03  0.22503253023E+03  0.00000000000E+00 0.  1.
         22    1    1    2    0    0 -0.26623201214E+02  0.17286324242E+03  0.70035247161E+02  0.18840231227E+03  0.00000000000E+00 0. -1.
<mgrwt>
<rscale>  0 0.51861597E+03</rscale>
<asrwt>0</asrwt>
<pdfrwt beam="1">  1        1 0.23900300E-01 0.51861597E+03</pdfrwt>
<pdfrwt beam="2">  1       -1 0.66588881E-01 0.51861597E+03</pdfrwt>
<totfact> 0.47932183E+02</totfact>
</mgrwt>
</event>
<event>
 6    1  0.8968082E-007  0.2087352E+04  0.7818608E-02  0.8566835E-01
         -2   -1    0    0    0  501 -0.00000000000E+00  0.00000000000E+00  0.56519310022E+03  0.56519310022E+03  0.00000000000E+00 0.  1.
          2   -1    0    0  501    0  0.00000000000E+00 -0.00000000000E+00 -0.19272348181E+04  0.19272348181E+04  0.00000000000E+00 0. -1.
         23    2    1    2    0    0  0.67648992152E+03 -0.50713453280E+03 -0.14090197807E+04  0.16456510961E+04  0.89480384972E+02 0.  0.
         11    1    3    3    0    0  0.26020937062E+03 -0.16909474300E+03 -0.59124646380E+03  0.66773821939E+03  0.00000000000E+00 0.  1.
        -11    1    3    3    0    0  0.41628055090E+03 -0.33803978979E+03 -0.81777331691E+03  0.97791287669E+03  0.00000000000E+00 0. -1.
         22    1    1    2    0    0 -0.67648992152E+03  0.50713453280E+03  0.46978062845E+02  0.84677682223E+03  0.00000000000E+00 0.  1.
<mgrwt>
<rscale>  0 0.20873522E+04</rscale>
<asrwt>0</asrwt>
<pdfrwt beam="1">  1        2 0.29649766E+00 0.20873522E+04</pdfrwt>
<pdfrwt beam="2">  1       -2 0.86952785E-01 0.20873522E+04</pdfrwt>
<totfact> 0.77384924E+00</totfact>
</mgrwt>
</event>
<event>
 6    1  0.8968082E-007  0.3992601E+04  0.7818608E-02  0.8006041E-01
         -1   -1    0    0    0  501 -0.00000000000E+00  0.00000000000E+00  0.20023956193E+04  0.20023956193E+04  0.00000000000E+00 0.  1.
          1   -1    0    0  501    0  0.00000000000E+00 -0.00000000000E+00 -0.19902238841E+04  0.19902238841E+04  0.00000000000E+00 0. -1.
         23    2    1    2    0    0 -0.76511757843E+03  0.15148028841E+04 -0.10433239518E+04  0.19940940890E+04  0.88620995352E+02 0.  0.
         13    1    3    3    0    0 -0.32536457992E+03  0.67033255515E+03 -0.50791966124E+03  0.90177060643E+03  0.00000000000E+00 0. -1.
        -13    1    3    3    0    0 -0.43975299851E+03  0.84447032891E+03 -0.53540429061E+03  0.10923234825E+04  0.00000000000E+00 0.  1.
         22    1    1    2    0    0  0.76511757843E+03 -0.15148028841E+04  0.10554956871E+04  0.19985254143E+04  0.00000000000E+00 0.  1.
<mgrwt>
<rscale>  0 0.39926010E+04</rscale>
<asrwt>0</asrwt>
<pdfrwt beam="1">  1        1 0.30618829E+00 0.39926010E+04</pdfrwt>
<pdfrwt beam="2">  1       -1 0.30806087E+00 0.39926010E+04</pdfrwt>
<totfact> 0.69365860E-02</totfact>
</mgrwt>
</event>
<event>
 6    1  0.8968082E-007  0.2297453E+04  0.7818608E-02  0.8478926E-01
          1   -1    0    0  501    0  0.00000000000E+00  0.00000000000E+00  0.14611492335E+04  0.14611492335E+04  0.00000000000E+00 0. -1.
         -1   -1    0    0    0  501 -0.00000000000E+00 -0.00000000000E+00 -0.90310591001E+03  0.90310591001E+03  0.00000000000E+00 0.  1.
         23    2    1    2    0    0  0.75519215248E+03  0.86242527548E+03  0.31847668555E+03  0.11931510845E+04  0.89942027142E+02 0.  0.
         11    1    3    3    0    0  0.52047508490E+03  0.52916178531E+03  0.20768310944E+03  0.77073911474E+03  0.00000000000E+00 0. -1.
        -11    1    3    3    0    0  0.23471706758E+03  0.33326349016E+03  0.11079357611E+03  0.42241196976E+03  0.00000000000E+00 0.  1.
         22    1    1    2    0    0 -0.75519215248E+03 -0.86242527548E+03  0.23956663791E+03  0.11711040590E+04  0.00000000000E+00 0.  1.
<mgrwt>
<rscale>  0 0.22974529E+04</rscale>
<asrwt>0</asrwt>
<pdfrwt beam="1">  1        1 0.22479219E+00 0.22974529E+04</pdfrwt>
<pdfrwt beam="2">  1       -1 0.13893937E+00 0.22974529E+04</pdfrwt>
<totfact> 0.26912421E+00</totfact>
</mgrwt>
</event>
<event>
 6    1  0.8968082E-007  0.1573907E+04  0.7818608E-02  0.8836740E-01
          2   -1    0    0  501    0  0.00000000000E+00  0.00000000000E+00  0.31574818964E+03  0.31574818964E+03  0.00000000000E+00 0. -1.
         -2   -1    0    0    0  501 -0.00000000000E+00 -0.00000000000E+00 -0.19613607946E+04  0.19613607946E+04  0.00000000000E+00 0.  1.
         23    2    1    2    0    0 -0.92205681238E+01 -0.58128163389E+03 -0.63843200480E+02  0.59188858152E+03  0.91009790173E+02 0.  0.
         11    1    3    3    0    0 -0.28456332619E+02 -0.33676602446E+03 -0.75665446841E+02  0.34633275609E+03  0.00000000000E+00 0. -1.
        -11    1    3    3    0    0  0.19235764495E+02 -0.24451560943E+03  0.11822246361E+02  0.24555582542E+03  0.00000000000E+00 0.  1.
         22    1    1    2    0    0  0.92205681238E+01  0.58128163389E+03 -0.15817694045E+04  0.16852204027E+04  0.00000000000E+00 0.  1.
<mgrwt>
<rscale>  0 0.15739074E+04</rscale>
<asrwt>0</asrwt>
<pdfrwt beam="1">  1        2 0.48576645E-01 0.15739074E+04</pdfrwt>
<pdfrwt beam="2">  1       -2 0.30174781E+00 0.15739074E+04</pdfrwt>
<totfact> 0.30995013E+00</totfact>
</mgrwt>
</event>
<event>
 6    1  0.8968082E-007  0.3778694E+04  0.7818608E-02  0.8050743E-01
         -2   -1    0    0    0  501 -0.00000000000E+00  0.00000000000E+00  0.13276214255E+04  0.13276214255E+04  0.00000000000E+00 0.  1.
          2   -1    0    0  501    0  0.00000000000E+00 -0.00000000000E+00 -0.26887425341E+04  0.26887425341E+04  0.00000000000E+00 0. -1.
         23    2    1    2    0    0 -0.84994846805E+03 -0.17217580064E+03 -0.24638250874E+04  0.26135051038E+04  0.88982928599E+02 0.  0.
         11    1    3    3    0    0 -0.35894249030E+03 -0.76795750611E+02 -0.91350282084E+03  0.98449210375E+03  0.00000000000E+00 0. -1.
        -11    1    3    3    0    0 -0.49100597774E+03 -0.95380050029E+02 -0.15503222666E+04  0.16290130000E+04  0.00000000000E+00 0.  1.
         22    1    1    2    0    0  0.84994846805E+03  0.17217580064E+03  0.11027039788E+04  0.14028588559E+04  0.00000000000E+00 0.  1.
<mgrwt>
<rscale>  0 0.37786941E+04</rscale>
<asrwt>0</asrwt>
<pdfrwt beam="1">  1        2 0.41365270E+00 0.37786941E+04</pdfrwt>
<pdfrwt beam="2">  1       -2 0.20424945E+00 0.37786941E+04</pdfrwt>
<totfact> 0.27017871E-01</totfact>
</mgrwt>
</event>
<event>
 6    1  0.8968082E-007  0.1340868E+04  0.7818608E-02  0.8997770E-01
         -2   -1    0    0    0  501 -0.00000000000E+00  0.00000000000E+00  0.24453707754E+03  0.24453707754E+03  0.00000000000E+00 0.  1.
          2   -1    0    0  501    0  0.00000000000E+00 -0.00000000000E+00 -0.18380921864E+04  0.18380921864E+04  0.00000000000E+00 0. -1.
         23    2    1    2    0    0  0.60898221414E+02 -0.50111431717E+03 -0.14782779840E+04  0.15648330031E+04  0.92587132989E+02 0.  0.
         11    1    3    3    0    0 -0.12870757922E+02 -0.27658626306E+03 -0.79696425768E+03  0.84369286197E+03  0.00000000000E+00 0.  1.
        -11    1    3    3    0    0  0.73768979336E+02 -0.22452805411E+03 -0.68131372634E+03  0.72114014109E+03  0.00000000000E+00 0. -1.
         22    1    1    2    0    0 -0.60898221414E+02  0.50111431717E+03 -0.11527712481E+03  0.51779626085E+03  0.00000000000E+00 0.  1.
<mgrwt>
<rscale>  0 0.13408679E+04</rscale>
<asrwt>0</asrwt>
<pdfrwt beam="1">  1        2 0.28278341E+00 0.13408679E+04</pdfrwt>
<pdfrwt beam="2">  1       -2 0.37621089E-01 0.13408679E+04</pdfrwt>
<totfact> 0.53551878E+01</totfact>
</mgrwt>
</event>
<event>
 6    1  0.8968082E-007  0.1609483E+04  0.7818608E-02  0.8814744E-01
         -2   -1    0    0    0  501 -0.00000000000E+00  0.00000000000E+00  0.17212436790E+04  0.17212436790E+04  0.00000000000E+00 0.  1.
          2   -1    0    0  501    0  0.00000000000E+00 -0.00000000000E+00 -0.37624454935E+03  0.37624454935E+03  0.00000000000E+00 0. -1.
         23    2    1    2    0    0 -0.41981367105E+03  0.67511605628E+03  0.53688660102E+03  0.96387847770E+03  0.93751210960E+02 0.  0.
         13    1    3    3    0    0 -0.57691338315E+02  0.15365738251E+03  0.13485414845E+03  0.21242533529E+03  0.00000000000E+00 0. -1.
        -13    1    3    3    0    0 -0.36212233274E+03  0.52145867377E+03  0.40203245257E+03  0.75145314241E+03  0.00000000000E+00 0.  1.
         22    1    1    2    0    0  0.41981367105E+03 -0.67511605628E+03  0.80811252863E+03  0.11336097507E+04  0.00000000000E+00 0. -1.
<mgrwt>
<rscale>  0 0.16094826E+04</rscale>
<asrwt>0</asrwt>
<pdfrwt beam="1">  1        2 0.57883778E-01 0.16094826E+04</pdfrwt>
<pdfrwt beam="2">  1       -2 0.26480672E+00 0.16094826E+04</pdfrwt>
<totfact> 0.42609562E+00</totfact>
</mgrwt>
</event>
<event>
 6    1  0.8968082E-007  0.2516673E+04  0.7818608E-02  0.8397070E-01
          2   -1    0    0  501    0  0.00000000000E+00  0.00000000000E+00  0.36441962552E+04  0.36441962552E+04  0.00000000000E+00 0. -1.
         -2   -1    0    0    0  501 -0.00000000000E+00 -0.00000000000E+00 -0.43450195402E+03  0.43450195402E+03  0.00000000000E+00 0.  1.
         23    2    1    2    0    0 -0.54139960152E+03  0.68618444147E+03  0.14305025521E+03  0.88992598140E+03  0.86846189420E+02 0.  0.
         11    1    3    3    0    0 -0.30081412323E+03  0.31256942840E+03  0.79436879964E+02  0.44102041018E+03  0.00000000000E+00 0.  1.
        -11    1    3    3    0    0 -0.24058547829E+03  0.37361501307E+03  0.63613375248E+02  0.44890557121E+03  0.00000000000E+00 0. -1.
         22    1    1    2    0    0  0.54139960152E+03 -0.68618444147E+03  0.30666440460E+04  0.31887722278E+04  0.00000000000E+00 0. -1.
<mgrwt>
<rscale>  0 0.25166727E+04</rscale>
<asrwt>0</asrwt>
<pdfrwt beam="1">  1        2 0.56064556E+00 0.25166727E+04</pdfrwt>
<pdfrwt beam="2">  1       -2 0.66846457E-01 0.25166727E+04</pdfrwt>
<totfact> 0.11759504E+00</totfact>
</mgrwt>
</event>
<event>
 6    1  0.8968082E-007  0.2175458E+04  0.7818608E-02  0.8528713E-01
          2   -1    0    0  501    0  0.00000000000E+00  0.00000000000E+00  0.15777711540E+04  0.15777711540E+04  0.00000000000E+00 0. -1.
         -2   -1    0    0    0  501 -0.00000000000E+00 -0.00000000000E+00 -0.74988957976E+03  0.74988957976E+03  0.00000000000E+00 0.  1.
         23    2    1    2    0    0 -0.83377651274E+03 -0.68368469893E+03  0.55090099047E+03  0.12144104094E+04  0.93234653032E+02 0.  0.
         13    1    3    3    0    0 -0.32516843422E+03 -0.21063370792E+03  0.20967163309E+03  0.44052612096E+03  0.00000000000E+00 0. -1.
        -13    1    3    3    0    0 -0.50860807852E+03 -0.47305099101E+03  0.34122935738E+03  0.77388428849E+03  0.00000000000E+00 0.  1.
         22    1    1    2    0    0  0.83377651274E+03  0.68368469893E+03  0.27698058373E+03  0.11132503243E+04  0.00000000000E+00 0.  1.
<mgrwt>
<rscale>  0 0.21754578E+04</rscale>
<asrwt>0</asrwt>
<pdfrwt beam="1">  1        2 0.24273402E+00 0.21754578E+04</pdfrwt>
<pdfrwt beam="2">  1       -2 0.11536763E+00 0.21754578E+04</pdfrwt>
<totfact> 0.61505271E+00</totfact>
</mgrwt>
</event>
<event>
 6    1  0.8968082E-007  0.2256713E+04  0.7818608E-02  0.8495187E-01
          2   -1    0    0  501    0  0.00000000000E+00  0.00000000000E+00  0.79190822291E+03  0.79190822291E+03  0.00000000000E+00 0. -1.
         -2   -1    0    0    0  501 -0.00000000000E+00 -0.00000000000E+00 -0.16077477439E+04  0.16077477439E+04  0.00000000000E+00 0.  1.
         23    2    1    2    0    0  0.67469402436E+02 -0.54074537094E+03  0.63977918899E+03  0.84537687177E+03  0.91580392004E+02 0.  0.
         13    1    3    3    0    0  0.31207287603E+02 -0.43582748836E+03  0.46290577196E+03  0.63655419889E+03  0.00000000000E+00 0. -1.
        -13    1    3    3    0    0  0.36262114833E+02 -0.10491788258E+03  0.17687341703E+03  0.20882267288E+03  0.00000000000E+00 0.  1.
         22    1    1    2    0    0 -0.67469402436E+02  0.54074537094E+03 -0.14556187099E+04  0.15542790950E+04  0.00000000000E+00 0.  1.
<mgrwt>
<rscale>  0 0.22567132E+04</rscale>
<asrwt>0</asrwt>
<pdfrwt beam="1">  1        2 0.12183204E+00 0.22567132E+04</pdfrwt>
<pdfrwt beam="2">  1       -2 0.24734580E+00 0.22567132E+04</pdfrwt>
<totfact> 0.21192529E+00</totfact>
</mgrwt>
</event>
<event>
 6    1  0.8968082E-007  0.3833279E+04  0.7818608E-02  0.8039051E-01
         -1   -1    0    0    0  501 -0.00000000000E+00  0.00000000000E+00  0.14393338109E+04  0.14393338109E+04  0.00000000000E+00 0.  1.
          1   -1    0    0  501    0  0.00000000000E+00 -0.00000000000E+00 -0.25522278384E+04  0.25522278384E+04  0.00000000000E+00 0. -1.
         23    2    1    2    0    0  0.16816591037E+02  0.59893600870E+03  0.13378112272E+04  0.14686737434E+04  0.90865531971E+02 0.  0.
         13    1    3    3    0    0 -0.36684919154E+02  0.18900104070E+03  0.43644924541E+03  0.47702737919E+03  0.00000000000E+00 0.  1.
        -13    1    3    3    0    0  0.53501510190E+02  0.40993496800E+03  0.90136198175E+03  0.99164636425E+03  0.00000000000E+00 0. -1.
         22    1    1    2    0    0 -0.16816591037E+02 -0.59893600870E+03 -0.24507052547E+04  0.25228879058E+04  0.00000000000E+00 0. -1.
<mgrwt>
<rscale>  0 0.38332794E+04</rscale>
<asrwt>0</asrwt>
<pdfrwt beam="1">  1        1 0.39265043E+00 0.38332794E+04</pdfrwt>
<pdfrwt beam="2">  1       -1 0.22143598E+00 0.38332794E+04</pdfrwt>
<totfact> 0.10641257E-01</totfact>
</mgrwt>
</event>
<event>
 6    1  0.8968082E-007  0.6434041E+04  0.7818608E-02  0.7638798E-01
         -2   -1    0    0    0  501 -0.00000000000E+00  0.00000000000E+00  0.36941839019E+04  0.36941839019E+04  0.00000000000E+00 0.  1.
          2   -1    0    0  501    0  0.00000000000E+00 -0.00000000000E+00 -0.28014903800E+04  0.28014903800E+04  0.00000000000E+00 0. -1.
         23    2    1    2    0    0 -0.97635115166E+03 -0.22894011904E+04 -0.16104026531E+04  0.29657862039E+04  0.88722716115E+02 0.  0.
         11    1    3    3    0    0 -0.22852062688E+03 -0.46387205030E+03 -0.30811187929E+03  0.60194010177E+03  0.00000000000E+00 0.  1.
        -11    1    3    3    0    0 -0.74783052479E+03 -0.18255291401E+04 -0.13022907738E+04  0.23638461021E+04  0.00000000000E+00 0. -1.
         22    1    1    2    0    0  0.97635115166E+03  0.22894011904E+04  0.25030961750E+04  0.35298880780E+04  0.00000000000E+00 0.  1.
<mgrwt>
<rscale>  0 0.64340409E+04</rscale>
<asrwt>0</asrwt>
<pdfrwt beam="1">  1        2 0.43099852E+00 0.64340409E+04</pdfrwt>
<pdfrwt beam="2">  1       -2 0.56833599E+00 0.64340409E+04</pdfrwt>
<totfact> 0.10665652E-03</totfact>
</mgrwt>
</event>
<event>
 6    1  0.8968082E-007  0.1138654E+04  0.7818608E-02  0.9168315E-01
         -2   -1    0    0    0  501 -0.00000000000E+00  0.00000000000E+00  0.40017273157E+03  0.40017273157E+03  0.00000000000E+00 0.  1.
          2   -1    0    0  501    0  0.00000000000E+00 -0.00000000000E+00 -0.80998371888E+03  0.80998371888E+03  0.00000000000E+00 0. -1.
         23    2    1    2    0    0 -0.52597798294E+03 -0.41834558503E+02  0.10760840599E+02  0.53540936357E+03  0.90246451895E+02 0.  0.
         13    1    3    3    0    0 -0.25142052800E+03 -0.43257577664E+02  0.43869779136E+02  0.25885914596E+03  0.00000000000E+00 0. -1.
        -13    1    3    3    0    0 -0.27455745494E+03  0.14230191616E+01 -0.33108938537E+02  0.27655021761E+03  0.00000000000E+00 0.  1.
         22    1    1    2    0    0  0.52597798294E+03  0.41834558503E+02 -0.42057182791E+03  0.67474708688E+03  0.00000000000E+00 0.  1.
<mgrwt>
<rscale>  0 0.11386543E+04</rscale>
<asrwt>0</asrwt>
<pdfrwt beam="1">  1        2 0.12461288E+00 0.11386543E+04</pdfrwt>
<pdfrwt beam="2">  1       -2 0.61565036E-01 0.11386543E+04</pdfrwt>
<totfact> 0.82324264E+01</totfact>
</mgrwt>
</event>
<event>
 6    1  0.8968082E-007  0.3474751E+04  0.7818608E-02  0.8119800E-01
          2   -1    0    0  501    0  0.00000000000E+00  0.00000000000E+00  0.13450367966E+04  0.13450367966E+04  0.00000000000E+00 0. -1.
         -2   -1    0    0    0  501 -0.00000000000E+00 -0.00000000000E+00 -0.22441573642E+04  0.22441573642E+04  0.00000000000E+00 0.  1.
         23    2    1    2    0    0 -0.20439282808E+03 -0.46349055769E+03 -0.21651878381E+04  0.22255496842E+04  0.91831897804E+02 0.  0.
         11    1    3    3    0    0 -0.19216259808E+03 -0.45011715864E+03 -0.19846920298E+04  0.20441463680E+04  0.00000000000E+00 0. -1.
        -11    1    3    3    0    0 -0.12230229997E+02 -0.13373399052E+02 -0.18049580829E+03  0.18140331622E+03  0.00000000000E+00 0.  1.
         22    1    1    2    0    0  0.20439282808E+03  0.46349055769E+03  0.12660672705E+04  0.13636444766E+04  0.00000000000E+00 0. -1.
<mgrwt>
<rscale>  0 0.34747513E+04</rscale>
<asrwt>0</asrwt>
<pdfrwt beam="1">  1        2 0.20692874E+00 0.34747513E+04</pdfrwt>
<pdfrwt beam="2">  1       -2 0.34525498E+00 0.34747513E+04</pdfrwt>
<totfact> 0.21350820E-01</totfact>
</mgrwt>
</event>
<event>
 6    1  0.8968082E-007  0.3327199E+04  0.7818608E-02  0.8156009E-01
          2   -1    0    0  501    0  0.00000000000E+00  0.00000000000E+00  0.26722775257E+04  0.26722775257E+04  0.00000000000E+00 0. -1.
         -2   -1    0    0    0  501 -0.00000000000E+00 -0.00000000000E+00 -0.10356572319E+04  0.10356572319E+04  0.00000000000E+00 0.  1.
         23    2    1    2    0    0  0.11797303828E+04  0.28209128900E+03 -0.44790953289E+03  0.12961711146E+04  0.89985205445E+02 0.  0.
         13    1    3    3    0    0  0.40163176380E+03  0.89835772212E+02 -0.10739123768E+03  0.42533682840E+03  0.00000000000E+00 0. -1.
        -13    1    3    3    0    0  0.77809861902E+03  0.19225551679E+03 -0.34051829521E+03  0.87083428621E+03  0.00000000000E+00 0.  1.
         22    1    1    2    0    0 -0.11797303828E+04 -0.28209128900E+03  0.20845298267E+04  0.24117636430E+04  0.00000000000E+00 0. -1.
<mgrwt>
<rscale>  0 0.33271991E+04</rscale>
<asrwt>0</asrwt>
<pdfrwt beam="1">  1        2 0.41111962E+00 0.33271991E+04</pdfrwt>
<pdfrwt beam="2">  1       -2 0.15933188E+00 0.33271991E+04</pdfrwt>
<totfact> 0.58546147E-01</totfact>
</mgrwt>
</event>
<event>
 6    1  0.8968082E-007  0.5654486E+04  0.7818608E-02  0.7734782E-01
          1   -1    0    0  501    0  0.00000000000E+00  0.00000000000E+00  0.26252935214E+04  0.26252935214E+04  0.00000000000E+00 0. -1.
         -1   -1    0    0    0  501 -0.00000000000E+00 -0.00000000000E+00 -0.30447272277E+04  0.30447272277E+04  0.00000000000E+00 0.  1.
         23    2    1    2    0    0 -0.12185949876E+04  0.25008891205E+04  0.29094477890E+03  0.27987740288E+04  0.95221125114E+02 0.  0.
         13    1    3    3    0    0 -0.27339022894E+03  0.58339302524E+03  0.28282024042E+02  0.64489496204E+03  0.00000000000E+00 0. -1.
        -13    1    3    3    0    0 -0.94520475862E+03  0.19174960953E+04  0.26266275486E+03  0.21538790667E+04  0.00000000000E+00 0.  1.
         22    1    1    2    0    0  0.12185949876E+04 -0.25008891205E+04 -0.71037848520E+03  0.28712467204E+04  0.00000000000E+00 0.  1.
<mgrwt>
<rscale>  0 0.56544859E+04</rscale>
<asrwt>0</asrwt>
<pdfrwt beam="1">  1        1 0.40389131E+00 0.56544859E+04</pdfrwt>
<pdfrwt beam="2">  1       -1 0.46841958E+00 0.56544859E+04</pdfrwt>
<totfact> 0.18475557E-03</totfact>
</mgrwt>
</event>
<event>
 6    1  0.8968082E-007  0.4386749E+04  0.7818608E-02  0.7930769E-01
         -2   -1    0    0    0  501 -0.00000000000E+00  0.00000000000E+00  0.16191236748E+04  0.16191236748E+04  0.00000000000E+00 0.  1.
          2   -1    0    0  501    0  0.00000000000E+00 -0.00000000000E+00 -0.29712938526E+04  0.29712938526E+04  0.00000000000E+00 0. -1.
         23    2    1    2    0    0 -0.13475809424E+04 -0.98448981717E+03 -0.21642103487E+04  0.27344531325E+04  0.90735350981E+02 0.  0.
         13    1    3    3    0    0 -0.64599741347E+03 -0.52055754068E+03 -0.10374820517E+04  0.13284057433E+04  0.00000000000E+00 0. -1.
        -13    1    3    3    0    0 -0.70158352890E+03 -0.46393227649E+03 -0.11267282970E+04  0.14060473891E+04  0.00000000000E+00 0.  1.
         22    1    1    2    0    0  0.13475809424E+04  0.98448981717E+03  0.81204017088E+03  0.18559643950E+04  0.00000000000E+00 0.  1.
<mgrwt>
<rscale>  0 0.43867492E+04</rscale>
<asrwt>0</asrwt>
<pdfrwt beam="1">  1        2 0.45712212E+00 0.43867492E+04</pdfrwt>
<pdfrwt beam="2">  1       -2 0.24909595E+00 0.43867492E+04</pdfrwt>
<totfact> 0.90275850E-02</totfact>
</mgrwt>
</event>
<event>
 6    1  0.8968082E-007  0.3885284E+04  0.7818608E-02  0.8028097E-01
          2   -1    0    0  501    0  0.00000000000E+00  0.00000000000E+00  0.16894422011E+04  0.16894422011E+04  0.00000000000E+00 0. -1.
         -2   -1    0    0    0  501 -0.00000000000E+00 -0.00000000000E+00 -0.22337891641E+04  0.22337891641E+04  0.00000000000E+00 0.  1.
         23    2    1    2    0    0  0.20505156153E+03 -0.17517580137E+04 -0.10922898060E+04  0.20763573466E+04  0.86374353477E+02 0.  0.
         13    1    3    3    0    0  0.26256689630E+02 -0.32891397940E+03 -0.24198488854E+03  0.40918272920E+03  0.00000000000E+00 0.  1.
        -13    1    3    3    0    0  0.17879487190E+03 -0.14228440343E+04 -0.85030491748E+03  0.16671746174E+04  0.00000000000E+00 0. -1.
         22    1    1    2    0    0 -0.20505156153E+03  0.17517580137E+04  0.54794284300E+03  0.18468740186E+04  0.00000000000E+00 0. -1.
<mgrwt>
<rscale>  0 0.38852839E+04</rscale>
<asrwt>0</asrwt>
<pdfrwt beam="1">  1        2 0.25991419E+00 0.38852839E+04</pdfrwt>
<pdfrwt beam="2">  1       -2 0.34365987E+00 0.38852839E+04</pdfrwt>
<totfact> 0.13495748E-01</totfact>
</mgrwt>
</event>
<event>
 6    1  0.8968082E-007  0.8529633E+03  0.7818608E-02  0.9486368E-01
         -1   -1    0    0    0  501 -0.00000000000E+00  0.00000000000E+00  0.18416475420E+04  0.18416475420E+04  0.00000000000E+00 0.  1.
          1   -1    0    0  501    0  0.00000000000E+00 -0.00000000000E+00 -0.98762986606E+02  0.98762986606E+02  0.00000000000E+00 0. -1.
         23    2    1    2    0    0 -0.32747397464E+02  0.14975173049E+03  0.17748888387E+04  0.17838147209E+04  0.90920822957E+02 0.  0.
         13    1    3    3    0    0 -0.44614446063E+02  0.15662175961E+03  0.15566052569E+04  0.15651008754E+04  0.00000000000E+00 0. -1.
        -13    1    3    3    0    0  0.11867048599E+02 -0.68700291189E+01  0.21828358176E+03  0.21871384549E+03  0.00000000000E+00 0.  1.
         22    1    1    2    0    0  0.32747397464E+02 -0.14975173049E+03 -0.32004283324E+02  0.15659580766E+03  0.00000000000E+00 0. -1.
<mgrwt>
<rscale>  0 0.85296333E+03</rscale>
<asrwt>0</asrwt>
<pdfrwt beam="1">  1        1 0.15194307E-01 0.85296333E+03</pdfrwt>
<pdfrwt beam="2">  1       -1 0.28333037E+00 0.85296333E+03</pdfrwt>
<totfact> 0.16498743E+01</totfact>
</mgrwt>
</event>
<event>
 6    1  0.8968082E-007  0.1666554E+04  0.7818608E-02  0.8780673E-01
          2   -1    0    0  501    0  0.00000000000E+00  0.00000000000E+00  0.82612276352E+03  0.82612276352E+03  0.00000000000E+00 0. -1.
         -2   -1    0    0    0  501 -0.00000000000E+00 -0.00000000000E+00 -0.84049322203E+03  0.84049322203E+03  0.00000000000E+00 0.  1.
         23    2    1    2    0    0 -0.28503435117E+03  0.26383988454E+03 -0.74164174746E+03  0.84212851218E+03  0.91059779448E+02 0.  0.
         11    1    3    3    0    0 -0.97022668113E+02  0.39098071506E+02 -0.16615411866E+03  0.19633962532E+03  0.00000000000E+00 0. -1.
        -11    1    3    3    0    0 -0.18801168305E+03  0.22474181304E+03 -0.57548762880E+03  0.64578888686E+03  0.00000000000E+00 0.  1.
         22    1    1    2    0    0  0.28503435117E+03 -0.26383988454E+03  0.72727128895E+03  0.82448747337E+03  0.00000000000E+00 0. -1.
<mgrwt>
<rscale>  0 0.16665540E+04</rscale>
<asrwt>0</asrwt>
<pdfrwt beam="1">  1        2 0.12709581E+00 0.16665540E+04</pdfrwt>
<pdfrwt beam="2">  1       -2 0.12930665E+00 0.16665540E+04</pdfrwt>
<totfact> 0.13854257E+01</totfact>
</mgrwt>
</event>
<event>
 6    1  0.8968082E-007  0.4066421E+04  0.7818608E-02  0.7991280E-01
          2   -1    0    0  501    0  0.00000000000E+00  0.00000000000E+00  0.21280856189E+04  0.21280856189E+04  0.00000000000E+00 0. -1.
         -2   -1    0    0    0  501 -0.00000000000E+00 -0.00000000000E+00 -0.19425650656E+04  0.19425650656E+04  0.00000000000E+00 0.  1.
         23    2    1    2    0    0  0.16282566035E+04  0.10330485609E+04 -0.54673743753E+03  0.20079799251E+04  0.12104816445E+03 0.  0.
         13    1    3    3    0    0  0.27107279628E+03  0.12054281798E+03 -0.80515400597E+02  0.30739837603E+03  0.00000000000E+00 0. -1.
        -13    1    3    3    0    0  0.13571838072E+04  0.91250574288E+03 -0.46622203694E+03  0.17005815491E+04  0.00000000000E+00 0.  1.
         22    1    1    2    0    0 -0.16282566035E+04 -0.10330485609E+04  0.73225799084E+03  0.20626707593E+04  0.00000000000E+00 0.  1.
<mgrwt>
<rscale>  0 0.40664209E+04</rscale>
<asrwt>0</asrwt>
<pdfrwt beam="1">  1        2 0.32739779E+00 0.40664209E+04</pdfrwt>
<pdfrwt beam="2">  1       -2 0.29885616E+00 0.40664209E+04</pdfrwt>
<totfact> 0.14363514E-01</totfact>
</mgrwt>
</event>
<event>
 6    1  0.8968082E-007  0.3308757E+04  0.7818608E-02  0.8160671E-01
         -2   -1    0    0    0  501 -0.00000000000E+00  0.00000000000E+00  0.99273658220E+03  0.99273658220E+03  0.00000000000E+00 0.  1.
          2   -1    0    0  501    0  0.00000000000E+00 -0.00000000000E+00 -0.27569935784E+04  0.27569935784E+04  0.00000000000E+00 0. -1.
         23    2    1    2    0    0 -0.75629075522E+03  0.10810490492E+04 -0.20116783963E+04  0.24073963339E+04  0.89801922042E+02 0.  0.
         13    1    3    3    0    0 -0.61678389857E+03  0.88277001842E+03 -0.17024838425E+04  0.20144866634E+04  0.00000000000E+00 0. -1.
        -13    1    3    3    0    0 -0.13950685665E+03  0.19827903076E+03 -0.30919455373E+03  0.39290967047E+03  0.00000000000E+00 0.  1.
         22    1    1    2    0    0  0.75629075522E+03 -0.10810490492E+04  0.24742140005E+03  0.13423338267E+04  0.00000000000E+00 0.  1.
<mgrwt>
<rscale>  0 0.33087571E+04</rscale>
<asrwt>0</asrwt>
<pdfrwt beam="1">  1        2 0.42415285E+00 0.33087571E+04</pdfrwt>
<pdfrwt beam="2">  1       -2 0.15272871E+00 0.33087571E+04</pdfrwt>
<totfact> 0.58486341E-01</totfact>
</mgrwt>
</event>
<event>
 6    1  0.8968082E-007  0.4681398E+04  0.7818608E-02  0.7879627E-01
          1   -1    0    0  501    0  0.00000000000E+00  0.00000000000E+00  0.33582537570E+04  0.33582537570E+04  0.00000000000E+00 0. -1.
         -1   -1    0    0    0  501 -0.00000000000E+00 -0.00000000000E+00 -0.16314644284E+04  0.16314644284E+04  0.00000000000E+00 0.  1.
         23    2    1    2    0    0  0.11521317346E+04  0.16229169312E+04 -0.44758209185E+03  0.20419804132E+04  0.89929857110E+02 0.  0.
         13    1    3    3    0    0  0.65174513192E+02  0.12569309669E+03 -0.44388081407E+02  0.14838050241E+03  0.00000000000E+00 0. -1.
        -13    1    3    3    0    0  0.10869572215E+04  0.14972238345E+04 -0.40319401044E+03  0.18935999108E+04  0.00000000000E+00 0.  1.
         22    1    1    2    0    0 -0.11521317346E+04 -0.16229169312E+04  0.21743714204E+04  0.29477377722E+04  0.00000000000E+00 0. -1.
<mgrwt>
<rscale>  0 0.46813979E+04</rscale>
<asrwt>0</asrwt>
<pdfrwt beam="1">  1        1 0.51665442E+00 0.46813979E+04</pdfrwt>
<pdfrwt beam="2">  1       -1 0.25099453E+00 0.46813979E+04</pdfrwt>
<totfact> 0.16374707E-02</totfact>
</mgrwt>
</event>
<event>
 6    1  0.8968082E-007  0.3272346E+04  0.7818608E-02  0.8169968E-01
         -2   -1    0    0    0  501 -0.00000000000E+00  0.00000000000E+00  0.16389810989E+04  0.16389810989E+04  0.00000000000E+00 0.  1.
          2   -1    0    0  501    0  0.00000000000E+00 -0.00000000000E+00 -0.16333698977E+04  0.16333698977E+04  0.00000000000E+00 0. -1.
         23    2    1    2    0    0  0.14444907664E+04  0.76440872709E+03 -0.40079991637E+02  0.16374314385E+04  0.93279331752E+02 0.  0.
         11    1    3    3    0    0  0.11141054393E+03  0.52260256237E+02  0.20921945298E+02  0.12482456279E+03  0.00000000000E+00 0. -1.
        -11    1    3    3    0    0  0.13330802225E+04  0.71214847085E+03 -0.61001936935E+02  0.15126068757E+04  0.00000000000E+00 0.  1.
         22    1    1    2    0    0 -0.14444907664E+04 -0.76440872709E+03  0.45691192807E+02  0.16349195581E+04  0.00000000000E+00 0.  1.
<mgrwt>
<rscale>  0 0.32723462E+04</rscale>
<asrwt>0</asrwt>
<pdfrwt beam="1">  1        2 0.25128768E+00 0.32723462E+04</pdfrwt>
<pdfrwt beam="2">  1       -2 0.25215094E+00 0.32723462E+04</pdfrwt>
<totfact> 0.55743334E-01</totfact>
</mgrwt>
</event>
<event>
 6    1  0.8968082E-007  0.3011462E+04  0.7818608E-02  0.8240465E-01
          1   -1    0    0  501    0  0.00000000000E+00  0.00000000000E+00  0.23833812249E+04  0.23833812249E+04  0.00000000000E+00 0. -1.
         -1   -1    0    0    0  501 -0.00000000000E+00 -0.00000000000E+00 -0.95126438605E+03  0.95126438605E+03  0.00000000000E+00 0.  1.
         23    2    1    2    0    0 -0.67230074601E+03 -0.17927585732E+03  0.21934689019E+04  0.23032460327E+04  0.97510704558E+02 0.  0.
         13    1    3    3    0    0 -0.47572421305E+03 -0.16663613862E+03  0.16436965428E+04  0.17192496777E+04  0.00000000000E+00 0.  1.
        -13    1    3    3    0    0 -0.19657653296E+03 -0.12639718700E+02  0.54977235915E+03  0.58399635503E+03  0.00000000000E+00 0. -1.
         22    1    1    2    0    0  0.67230074601E+03  0.17927585732E+03 -0.76135206304E+03  0.10313995782E+04  0.00000000000E+00 0.  1.
<mgrwt>
<rscale>  0 0.30114619E+04</rscale>
<asrwt>0</asrwt>
<pdfrwt beam="1">  1        1 0.36667403E+00 0.30114619E+04</pdfrwt>
<pdfrwt beam="2">  1       -1 0.14634837E+00 0.30114619E+04</pdfrwt>
<totfact> 0.51682251E-01</totfact>
</mgrwt>
</event>
<event>
 6    1  0.8968082E-007  0.1985233E+04  0.7818608E-02  0.8613556E-01
          2   -1    0    0  501    0  0.00000000000E+00  0.00000000000E+00  0.36378295127E+04  0.36378295127E+04  0.00000000000E+00 0. -1.
         -2   -1    0    0    0  501 -0.00000000000E+00 -0.00000000000E+00 -0.27084497851E+03  0.27084497851E+03  0.00000000000E+00 0.  1.
         23    2    1    2    0    0  0.20710460578E+03  0.65250337087E+03  0.27735187537E+03  0.74410770678E+03  0.90106879757E+02 0.  0.
         13    1    3    3    0    0  0.81732032357E+02  0.35375465940E+03  0.10954024952E+03  0.37923811837E+03  0.00000000000E+00 0. -1.
        -13    1    3    3    0    0  0.12537257342E+03  0.29874871147E+03  0.16781162585E+03  0.36486958840E+03  0.00000000000E+00 0.  1.
         22    1    1    2    0    0 -0.20710460578E+03 -0.65250337087E+03  0.30896326589E+04  0.31645667845E+04  0.00000000000E+00 0. -1.
<mgrwt>
<rscale>  0 0.19852333E+04</rscale>
<asrwt>0</asrwt>
<pdfrwt beam="1">  1        2 0.55966604E+00 0.19852333E+04</pdfrwt>
<pdfrwt beam="2">  1       -2 0.41668461E-01 0.19852333E+04</pdfrwt>
<totfact> 0.33139067E+00</totfact>
</mgrwt>
</event>
<event>
 6    1  0.8968082E-007  0.3021722E+04  0.7818608E-02  0.8237555E-01
          1   -1    0    0  501    0  0.00000000000E+00  0.00000000000E+00  0.37278304109E+04  0.37278304109E+04  0.00000000000E+00 0. -1.
         -1   -1    0    0    0  501 -0.00000000000E+00 -0.00000000000E+00 -0.61234052520E+03  0.61234052520E+03  0.00000000000E+00 0.  1.
         23    2    1    2    0    0 -0.27722510262E+03  0.14289806791E+04  0.21330650747E+04  0.25840393784E+04  0.91942142936E+02 0.  0.
         13    1    3    3    0    0 -0.11265075307E+03  0.55397489673E+03  0.75043463883E+03  0.93953739975E+03  0.00000000000E+00 0. -1.
        -13    1    3    3    0    0 -0.16457434955E+03  0.87500578234E+03  0.13826304358E+04  0.16445019787E+04  0.00000000000E+00 0.  1.
         22    1    1    2    0    0  0.27722510262E+03 -0.14289806791E+04  0.98242481104E+03  0.17561315577E+04  0.00000000000E+00 0. -1.
<mgrwt>
<rscale>  0 0.30217224E+04</rscale>
<asrwt>0</asrwt>
<pdfrwt beam="1">  1        1 0.57351235E+00 0.30217224E+04</pdfrwt>
<pdfrwt beam="2">  1       -1 0.94206237E-01 0.30217224E+04</pdfrwt>
<totfact> 0.15156349E-01</totfact>
</mgrwt>
</event>
<event>
 6    1  0.8968082E-007  0.1554557E+04  0.7818608E-02  0.8848962E-01
          1   -1    0    0  501    0  0.00000000000E+00  0.00000000000E+00  0.95296871541E+03  0.95296871541E+03  0.00000000000E+00 0. -1.
         -1   -1    0    0    0  501 -0.00000000000E+00 -0.00000000000E+00 -0.63397869935E+03  0.63397869935E+03  0.00000000000E+00 0.  1.
         23    2    1    2    0    0 -0.75782831995E+03  0.36005790067E+02  0.31919460421E+03  0.82826419938E+03  0.92391607726E+02 0.  0.
         11    1    3    3    0    0 -0.50853349538E+03 -0.17559243259E+02  0.22622772955E+03  0.55686051087E+03  0.00000000000E+00 0. -1.
        -11    1    3    3    0    0 -0.24929482458E+03  0.53565033326E+02  0.92966874660E+02  0.27140368852E+03  0.00000000000E+00 0.  1.
         22    1    1    2    0    0  0.75782831995E+03 -0.36005790067E+02 -0.20458815410E+00  0.75868321538E+03  0.00000000000E+00 0. -1.
<mgrwt>
<rscale>  0 0.15545570E+04</rscale>
<asrwt>0</asrwt>
<pdfrwt beam="1">  1        1 0.14661057E+00 0.15545570E+04</pdfrwt>
<pdfrwt beam="2">  1       -1 0.97535185E-01 0.15545570E+04</pdfrwt>
<totfact> 0.16021752E+01</totfact>
</mgrwt>
</event>
<event>
 6    1  0.8968082E-007  0.1200887E+04  0.7818608E-02  0.9112081E-01
          4   -1    0    0  501    0  0.00000000000E+00  0.00000000000E+00  0.89887227419E+03  0.89887227419E+03  0.00000000000E+00 0. -1.
         -4   -1    0    0    0  501 -0.00000000000E+00 -0.00000000000E+00 -0.40109386864E+03  0.40109386864E+03  0.00000000000E+00 0.  1.
         23    2    1    2    0    0  0.16019708131E+03  0.30134940352E+03 -0.27987458556E+03  0.45072015817E+03  0.91347191969E+02 0.  0.
         13    1    3    3    0    0  0.62204256233E+02  0.20664910868E+03 -0.18952126204E+03  0.28721339170E+03  0.00000000000E+00 0. -1.
        -13    1    3    3    0    0  0.97992825075E+02  0.94700294841E+02 -0.90353323524E+02  0.16350676647E+03  0.00000000000E+00 0.  1.
         22    1    1    2    0    0 -0.16019708131E+03 -0.30134940352E+03  0.77765299111E+03  0.84924598465E+03  0.00000000000E+00 0. -1.
<mgrwt>
<rscale>  0 0.12008866E+04</rscale>
<asrwt>0</asrwt>
<pdfrwt beam="1">  1        4 0.13828804E+00 0.12008866E+04</pdfrwt>
<pdfrwt beam="2">  1       -4 0.61706749E-01 0.12008866E+04</pdfrwt>
<totfact> 0.17919590E+00</totfact>
</mgrwt>
</event>
<event>
 6    1  0.8968082E-007  0.4174424E+03  0.7818608E-02  0.1037902E+00
         -3   -1    0    0    0  501 -0.00000000000E+00  0.00000000000E+00  0.10266334405E+04  0.10266334405E+04  0.00000000000E+00 0.  1.
          3   -1    0    0  501    0  0.00000000000E+00 -0.00000000000E+00 -0.42434367135E+02  0.42434367135E+02  0.00000000000E+00 0. -1.
         23    2    1    2    0    0 -0.28881989944E+01 -0.17662029506E+02  0.10228913154E+04  0.10264370842E+04  0.83343600242E+02 0.  0.
         11    1    3    3    0    0  0.15782908359E+02 -0.40613992266E+02  0.32363102417E+03  0.32655112367E+03  0.00000000000E+00 0. -1.
        -11    1    3    3    0    0 -0.18671107353E+02  0.22951962759E+02  0.69926029128E+03  0.69988596057E+03  0.00000000000E+00 0.  1.
         22    1    1    2    0    0  0.28881989944E+01  0.17662029506E+02 -0.38692242085E+02  0.42630723396E+02  0.00000000000E+00 0. -1.
<mgrwt>
<rscale>  0 0.41744240E+03</rscale>
<asrwt>0</asrwt>
<pdfrwt beam="1">  1        3 0.65283649E-02 0.41744240E+03</pdfrwt>
<pdfrwt beam="2">  1       -3 0.15794359E+00 0.41744240E+03</pdfrwt>
<totfact> 0.11504787E+02</totfact>
</mgrwt>
</event>
<event>
 6    1  0.8968082E-007  0.5880323E+04  0.7818608E-02  0.7705420E-01
          1   -1    0    0  501    0  0.00000000000E+00  0.00000000000E+00  0.33900029920E+04  0.33900029920E+04  0.00000000000E+00 0. -1.
         -1   -1    0    0    0  501 -0.00000000000E+00 -0.00000000000E+00 -0.25500120620E+04  0.25500120620E+04  0.00000000000E+00 0.  1.
         23    2    1    2    0    0  0.27497211809E+04  0.10382712441E+04  0.45802273140E+03  0.29760863344E+04  0.91275945717E+02 0.  0.
         13    1    3    3    0    0  0.16886891764E+04  0.67146785759E+03  0.25166222848E+03  0.18346318692E+04  0.00000000000E+00 0. -1.
        -13    1    3    3    0    0  0.10610320046E+04  0.36680338655E+03  0.20636050292E+03  0.11414544653E+04  0.00000000000E+00 0.  1.
         22    1    1    2    0    0 -0.27497211809E+04 -0.10382712441E+04  0.38196819860E+03  0.29639287195E+04  0.00000000000E+00 0. -1.
<mgrwt>
<rscale>  0 0.58803226E+04</rscale>
<asrwt>0</asrwt>
<pdfrwt beam="1">  1        1 0.52153892E+00 0.58803226E+04</pdfrwt>
<pdfrwt beam="2">  1       -1 0.39230955E+00 0.58803226E+04</pdfrwt>
<totfact> 0.16572905E-03</totfact>
</mgrwt>
</event>
<event>
 6    1  0.8968082E-007  0.9816648E+03  0.7818608E-02  0.9328886E-01
          2   -1    0    0  501    0  0.00000000000E+00  0.00000000000E+00  0.29251854784E+04  0.29251854784E+04  0.00000000000E+00 0. -1.
         -2   -1    0    0    0  501 -0.00000000000E+00 -0.00000000000E+00 -0.82359373298E+02  0.82359373298E+02  0.00000000000E+00 0.  1.
         23    2    1    2    0    0 -0.44158377819E+03  0.16532329331E+03  0.10661948560E+04  0.11694081267E+04  0.91738058428E+02 0.  0.
         13    1    3    3    0    0 -0.20731234529E+03  0.11104544838E+03  0.44567627963E+03  0.50392146843E+03  0.00000000000E+00 0. -1.
        -13    1    3    3    0    0 -0.23427143290E+03  0.54277844929E+02  0.62051857634E+03  0.66548665825E+03  0.00000000000E+00 0.  1.
         22    1    1    2    0    0  0.44158377819E+03 -0.16532329331E+03  0.17766312491E+04  0.18381367250E+04  0.00000000000E+00 0.  1.
<mgrwt>
<rscale>  0 0.98166480E+03</rscale>
<asrwt>0</asrwt>
<pdfrwt beam="1">  1        2 0.45002845E+00 0.98166480E+03</pdfrwt>
<pdfrwt beam="2">  1       -2 0.12670675E-01 0.98166480E+03</pdfrwt>
<totfact> 0.92443166E+01</totfact>
</mgrwt>
</event>
<event>
 6    1  0.8968082E-007  0.6940241E+03  0.7818608E-02  0.9727507E-01
          2   -1    0    0  501    0  0.00000000000E+00  0.00000000000E+00  0.20174804677E+04  0.20174804677E+04  0.00000000000E+00 0. -1.
         -2   -1    0    0    0  501 -0.00000000000E+00 -0.00000000000E+00 -0.59686999956E+02  0.59686999956E+02  0.00000000000E+00 0.  1.
         23    2    1    2    0    0  0.23817062679E+03  0.97361282340E+01  0.17257530464E+04  0.17445072855E+04  0.90895831874E+02 0.  0.
         11    1    3    3    0    0  0.23650274181E+02 -0.64457386927E+01  0.45603541620E+03  0.45669375280E+03  0.00000000000E+00 0. -1.
        -11    1    3    3    0    0  0.21452035261E+03  0.16181866927E+02  0.12697176302E+04  0.12878135327E+04  0.00000000000E+00 0.  1.
         22    1    1    2    0    0 -0.23817062679E+03 -0.97361282340E+01  0.23204042128E+03  0.33266018212E+03  0.00000000000E+00 0.  1.
<mgrwt>
<rscale>  0 0.69402408E+03</rscale>
<asrwt>0</asrwt>
<pdfrwt beam="1">  1        2 0.31038156E+00 0.69402408E+03</pdfrwt>
<pdfrwt beam="2">  1       -2 0.91826169E-02 0.69402408E+03</pdfrwt>
<totfact> 0.52943743E+02</totfact>
</mgrwt>
</event>
<event>
 6    1  0.8968082E-007  0.2563723E+04  0.7818608E-02  0.8380629E-01
         -2   -1    0    0    0  501 -0.00000000000E+00  0.00000000000E+00  0.10459672983E+04  0.10459672983E+04  0.00000000000E+00 0.  1.
          2   -1    0    0  501    0  0.00000000000E+00 -0.00000000000E+00 -0.15709560577E+04  0.15709560577E+04  0.00000000000E+00 0. -1.
         23    2    1    2    0    0 -0.54294759558E+03  0.96065252592E+03  0.39986026447E+03  0.11771348006E+04  0.90070753546E+02 0.  0.
         13    1    3    3    0    0 -0.20719091086E+03  0.45255631949E+03  0.16413110155E+03  0.52409380301E+03  0.00000000000E+00 0. -1.
        -13    1    3    3    0    0 -0.33575668472E+03  0.50809620642E+03  0.23572916292E+03  0.65304099762E+03  0.00000000000E+00 0.  1.
         22    1    1    2    0    0  0.54294759558E+03 -0.96065252592E+03 -0.92484902385E+03  0.14397885553E+04  0.00000000000E+00 0. -1.
<mgrwt>
<rscale>  0 0.25637228E+04</rscale>
<asrwt>0</asrwt>
<pdfrwt beam="1">  1        2 0.24168555E+00 0.25637228E+04</pdfrwt>
<pdfrwt beam="2">  1       -2 0.16091805E+00 0.25637228E+04</pdfrwt>
<totfact> 0.25478005E+00</totfact>
</mgrwt>
</event>
<event>
 6    1  0.8968082E-007  0.1048076E+04  0.7818608E-02  0.9257332E-01
         -2   -1    0    0    0  501 -0.00000000000E+00  0.00000000000E+00  0.97107718691E+02  0.97107718691E+02  0.00000000000E+00 0.  1.
          2   -1    0    0  501    0  0.00000000000E+00 -0.00000000000E+00 -0.28279529045E+04  0.28279529045E+04  0.00000000000E+00 0. -1.
         23    2    1    2    0    0  0.40695215333E+03  0.31208628649E+03 -0.16190886408E+04  0.17007197717E+04  0.89396922211E+02 0.  0.
         13    1    3    3    0    0  0.10175884915E+03  0.12140399040E+03 -0.57129544648E+03  0.59285097574E+03  0.00000000000E+00 0. -1.
        -13    1    3    3    0    0  0.30519330418E+03  0.19068229609E+03 -0.10477931943E+04  0.11078687960E+04  0.00000000000E+00 0.  1.
         22    1    1    2    0    0 -0.40695215333E+03 -0.31208628649E+03 -0.11117565450E+04  0.12243408515E+04  0.00000000000E+00 0.  1.
<mgrwt>
<rscale>  0 0.10480764E+04</rscale>
<asrwt>0</asrwt>
<pdfrwt beam="1">  1        2 0.43506955E+00 0.10480764E+04</pdfrwt>
<pdfrwt beam="2">  1       -2 0.14939653E-01 0.10480764E+04</pdfrwt>
<totfact> 0.79661534E+01</totfact>
</mgrwt>
</event>
<event>
 6    1  0.8968082E-007  0.2993940E+04  0.7818608E-02  0.8245463E-01
          1   -1    0    0  501    0  0.00000000000E+00  0.00000000000E+00  0.13545196023E+04  0.13545196023E+04  0.00000000000E+00 0. -1.
         -1   -1    0    0    0  501 -0.00000000000E+00 -0.00000000000E+00 -0.16544017434E+04  0.16544017434E+04  0.00000000000E+00 0.  1.
         23    2    1    2    0    0  0.11079690194E+03  0.14355001944E+04 -0.55663478792E+03  0.15464376079E+04  0.93221384133E+02 0.  0.
         13    1    3    3    0    0  0.12760146264E+03  0.12568249846E+04 -0.48383592213E+03  0.13527706290E+04  0.00000000000E+00 0. -1.
        -13    1    3    3    0    0 -0.16804560695E+02  0.17867520975E+03 -0.72798865791E+02  0.19366697885E+03  0.00000000000E+00 0.  1.
         22    1    1    2    0    0 -0.11079690194E+03 -0.14355001944E+04  0.25675264682E+03  0.14624837378E+04  0.00000000000E+00 0. -1.
<mgrwt>
<rscale>  0 0.29939403E+04</rscale>
<asrwt>0</asrwt>
<pdfrwt beam="1">  1        1 0.20838763E+00 0.29939403E+04</pdfrwt>
<pdfrwt beam="2">  1       -1 0.25452334E+00 0.29939403E+04</pdfrwt>
<totfact> 0.45879016E-01</totfact>
</mgrwt>
</event>
<event>
 6    1  0.8968082E-007  0.4662010E+04  0.7818608E-02  0.7882872E-01
         -2   -1    0    0    0  501 -0.00000000000E+00  0.00000000000E+00  0.17409331204E+04  0.17409331204E+04  0.00000000000E+00 0.  1.
          2   -1    0    0  501    0  0.00000000000E+00 -0.00000000000E+00 -0.31210758296E+04  0.31210758296E+04  0.00000000000E+00 0. -1.
         23    2    1    2    0    0 -0.48209095915E+03  0.42308382980E+03 -0.30265071469E+04  0.30951112503E+04  0.92501467758E+02 0.  0.
         13    1    3    3    0    0 -0.33256126485E+03  0.23727205216E+03 -0.18260774367E+04  0.18712172045E+04  0.00000000000E+00 0. -1.
        -13    1    3    3    0    0 -0.14952969429E+03  0.18581177764E+03 -0.12004297102E+04  0.12238940458E+04  0.00000000000E+00 0.  1.
         22    1    1    2    0    0  0.48209095915E+03 -0.42308382980E+03  0.16463644377E+04  0.17668976998E+04  0.00000000000E+00 0.  1.
<mgrwt>
<rscale>  0 0.46620100E+04</rscale>
<asrwt>0</asrwt>
<pdfrwt beam="1">  1        2 0.48016551E+00 0.46620100E+04</pdfrwt>
<pdfrwt beam="2">  1       -2 0.26783587E+00 0.46620100E+04</pdfrwt>
<totfact> 0.54467416E-02</totfact>
</mgrwt>
</event>
<event>
 6    1  0.8968082E-007  0.1499869E+04  0.7818608E-02  0.8884540E-01
         -2   -1    0    0    0  501 -0.00000000000E+00  0.00000000000E+00  0.70056268201E+03  0.70056268201E+03  0.00000000000E+00 0.  1.
          2   -1    0    0  501    0  0.00000000000E+00 -0.00000000000E+00 -0.80278523977E+03  0.80278523977E+03  0.00000000000E+00 0. -1.
         23    2    1    2    0    0  0.29964627125E+03  0.22308312182E+03  0.59471255672E+03  0.71260616817E+03  0.12070856921E+03 0.  0.
         11    1    3    3    0    0  0.28852790140E+02  0.26091788567E+02  0.15554457334E+03  0.16033520893E+03  0.00000000000E+00 0.  1.
        -11    1    3    3    0    0  0.27079348111E+03  0.19699133325E+03  0.43916798338E+03  0.55227095923E+03  0.00000000000E+00 0. -1.
         22    1    1    2    0    0 -0.29964627125E+03 -0.22308312182E+03 -0.69693511448E+03  0.79074175361E+03  0.00000000000E+00 0. -1.
<mgrwt>
<rscale>  0 0.14998685E+04</rscale>
<asrwt>0</asrwt>
<pdfrwt beam="1">  1        2 0.12350542E+00 0.14998685E+04</pdfrwt>
<pdfrwt beam="2">  1       -2 0.10777887E+00 0.14998685E+04</pdfrwt>
<totfact> 0.22869663E+01</totfact>
</mgrwt>
</event>
<event>
 6    1  0.8968082E-007  0.1235562E+04  0.7818608E-02  0.9082287E-01
         -1   -1    0    0    0  501 -0.00000000000E+00  0.00000000000E+00  0.12780625255E+04  0.12780625255E+04  0.00000000000E+00 0.  1.
          1   -1    0    0  501    0  0.00000000000E+00 -0.00000000000E+00 -0.29861848838E+03  0.29861848838E+03  0.00000000000E+00 0. -1.
         23    2    1    2    0    0 -0.53951880544E+03  0.29339294210E+03  0.46499417828E+03  0.77554518449E+03  0.89948804604E+02 0.  0.
         11    1    3    3    0    0 -0.12903898407E+03  0.11477989963E+03  0.14087075120E+03  0.22286779335E+03  0.00000000000E+00 0. -1.
        -11    1    3    3    0    0 -0.41047982137E+03  0.17861304247E+03  0.32412342708E+03  0.55267739114E+03  0.00000000000E+00 0.  1.
         22    1    1    2    0    0  0.53951880544E+03 -0.29339294210E+03  0.51444985883E+03  0.80113582939E+03  0.00000000000E+00 0. -1.
<mgrwt>
<rscale>  0 0.12355616E+04</rscale>
<asrwt>0</asrwt>
<pdfrwt beam="1">  1        1 0.45941307E-01 0.12355616E+04</pdfrwt>
<pdfrwt beam="2">  1       -1 0.19662500E+00 0.12355616E+04</pdfrwt>
<totfact> 0.13832080E+01</totfact>
</mgrwt>
</event>
<event>
 6    1  0.8968082E-007  0.3352697E+04  0.7818608E-02  0.8149615E-01
         -2   -1    0    0    0  501 -0.00000000000E+00  0.00000000000E+00  0.83763006923E+03  0.83763006923E+03  0.00000000000E+00 0.  1.
          2   -1    0    0  501    0  0.00000000000E+00 -0.00000000000E+00 -0.33548743006E+04  0.33548743006E+04  0.00000000000E+00 0. -1.
         23    2    1    2    0    0 -0.13318051313E+04 -0.44637562850E+03 -0.24008433560E+04  0.27830699893E+04  0.92052354277E+02 0.  0.
         13    1    3    3    0    0 -0.70078403701E+03 -0.21628860443E+03 -0.11690117091E+04  0.13800244212E+04  0.00000000000E+00 0. -1.
        -13    1    3    3    0    0 -0.63102109426E+03 -0.23008702406E+03 -0.12318316468E+04  0.14030455681E+04  0.00000000000E+00 0.  1.
         22    1    1    2    0    0  0.13318051313E+04  0.44637562850E+03 -0.11640087545E+03  0.14094343806E+04  0.00000000000E+00 0.  1.
<mgrwt>
<rscale>  0 0.33526966E+04</rscale>
<asrwt>0</asrwt>
<pdfrwt beam="1">  1        2 0.51613451E+00 0.33526966E+04</pdfrwt>
<pdfrwt beam="2">  1       -2 0.12886616E+00 0.33526966E+04</pdfrwt>
<totfact> 0.37736970E-01</totfact>
</mgrwt>
</event>
<event>
 6    1  0.8968082E-007  0.2385910E+04  0.7818608E-02  0.8444797E-01
          1   -1    0    0  501    0  0.00000000000E+00  0.00000000000E+00  0.14323125833E+04  0.14323125833E+04  0.00000000000E+00 0. -1.
         -1   -1    0    0    0  501 -0.00000000000E+00 -0.00000000000E+00 -0.99359724352E+03  0.99359724352E+03  0.00000000000E+00 0.  1.
         23    2    1    2    0    0 -0.64975235240E+03  0.33805931147E+03  0.11748329344E+04  0.13874824917E+04  0.91722535367E+02 0.  0.
         11    1    3    3    0    0 -0.91477417191E+02  0.85312481428E+02  0.21292098931E+03  0.24694470035E+03  0.00000000000E+00 0.  1.
        -11    1    3    3    0    0 -0.55827493521E+03  0.25274683005E+03  0.96191194504E+03  0.11405377913E+04  0.00000000000E+00 0. -1.
         22    1    1    2    0    0  0.64975235240E+03 -0.33805931147E+03 -0.73611759453E+03  0.10384273352E+04  0.00000000000E+00 0.  1.
<mgrwt>
<rscale>  0 0.23859102E+04</rscale>
<asrwt>0</asrwt>
<pdfrwt beam="1">  1        1 0.22035578E+00 0.23859102E+04</pdfrwt>
<pdfrwt beam="2">  1       -1 0.15286111E+00 0.23859102E+04</pdfrwt>
<totfact> 0.21688248E+00</totfact>
</mgrwt>
</event>
<event>
 6    1  0.8968082E-007  0.1713324E+04  0.7818608E-02  0.8753801E-01
         -2   -1    0    0    0  501 -0.00000000000E+00  0.00000000000E+00  0.39505531001E+03  0.39505531001E+03  0.00000000000E+00 0.  1.
          2   -1    0    0  501    0  0.00000000000E+00 -0.00000000000E+00 -0.18576381682E+04  0.18576381682E+04  0.00000000000E+00 0. -1.
         23    2    1    2    0    0 -0.75401591422E+03  0.38878503005E+03 -0.60372710800E+03  0.10454954836E+04  0.94236865637E+02 0.  0.
         13    1    3    3    0    0 -0.63637248581E+03  0.31782289803E+03 -0.54488597081E+03  0.89603686107E+03  0.00000000000E+00 0.  1.
        -13    1    3    3    0    0 -0.11764342841E+03  0.70962132014E+02 -0.58841137190E+02  0.14945862255E+03  0.00000000000E+00 0. -1.
         22    1    1    2    0    0  0.75401591422E+03 -0.38878503005E+03 -0.85885575014E+03  0.12071979945E+04  0.00000000000E+00 0. -1.
<mgrwt>
<rscale>  0 0.17133240E+04</rscale>
<asrwt>0</asrwt>
<pdfrwt beam="1">  1        2 0.28579049E+00 0.17133240E+04</pdfrwt>
<pdfrwt beam="2">  1       -2 0.60777740E-01 0.17133240E+04</pdfrwt>
<totfact> 0.19201751E+01</totfact>
</mgrwt>
</event>
<event>
 6    1  0.8968082E-007  0.4709089E+03  0.7818608E-02  0.1021664E+00
         -4   -1    0    0    0  501 -0.00000000000E+00  0.00000000000E+00  0.17431405474E+03  0.17431405474E+03  0.00000000000E+00 0.  1.
          4   -1    0    0  501    0  0.00000000000E+00 -0.00000000000E+00 -0.31803975086E+03  0.31803975086E+03  0.00000000000E+00 0. -1.
         23    2    1    2    0    0 -0.11028296369E+03 -0.16789876140E+03  0.33865783492E+02  0.22422872323E+03  0.93697934186E+02 0.  0.
         11    1    3    3    0    0 -0.40491354156E+02 -0.12804461102E+03 -0.61773040161E+01  0.13443634649E+03  0.00000000000E+00 0. -1.
        -11    1    3    3    0    0 -0.69791609534E+02 -0.39854150383E+02  0.40043087508E+02  0.89792376744E+02  0.00000000000E+00 0.  1.
         22    1    1    2    0    0  0.11028296369E+03  0.16789876140E+03 -0.17759147961E+03  0.26812508236E+03  0.00000000000E+00 0.  1.
<mgrwt>
<rscale>  0 0.47090890E+03</rscale>
<asrwt>0</asrwt>
<pdfrwt beam="1">  1        4 0.48929192E-01 0.47090890E+03</pdfrwt>
<pdfrwt beam="2">  1       -4 0.26817547E-01 0.47090890E+03</pdfrwt>
<totfact> 0.10424575E+02</totfact>
</mgrwt>
</event>
<event>
 6    1  0.8968082E-007  0.9226185E+03  0.7818608E-02  0.9397741E-01
         -1   -1    0    0    0  501 -0.00000000000E+00  0.00000000000E+00  0.39419815368E+03  0.39419815368E+03  0.00000000000E+00 0.  1.
          1   -1    0    0  501    0  0.00000000000E+00 -0.00000000000E+00 -0.53984584793E+03  0.53984584793E+03  0.00000000000E+00 0. -1.
         23    2    1    2    0    0 -0.18786201319E+03 -0.95409892458E+02 -0.48303045011E+03  0.53627232397E+03  0.99370046536E+02 0.  0.
         11    1    3    3    0    0 -0.10968345395E+03 -0.17659593025E+02 -0.32590948082E+03  0.34432442694E+03  0.00000000000E+00 0. -1.
        -11    1    3    3    0    0 -0.78178559242E+02 -0.77750299434E+02 -0.15712096929E+03  0.19194789704E+03  0.00000000000E+00 0.  1.
         22    1    1    2    0    0  0.18786201319E+03  0.95409892458E+02  0.33738275586E+03  0.39777167764E+03  0.00000000000E+00 0.  1.
<mgrwt>
<rscale>  0 0.92261853E+03</rscale>
<asrwt>0</asrwt>
<pdfrwt beam="1">  1        1 0.83053207E-01 0.92261853E+03</pdfrwt>
<pdfrwt beam="2">  1       -1 0.60645870E-01 0.92261853E+03</pdfrwt>
<totfact> 0.11057740E+02</totfact>
</mgrwt>
</event>
<event>
 6    1  0.8968082E-007  0.3543802E+04  0.7818608E-02  0.8103487E-01
          1   -1    0    0  501    0  0.00000000000E+00  0.00000000000E+00  0.13200877823E+04  0.13200877823E+04  0.00000000000E+00 0. -1.
         -1   -1    0    0    0  501 -0.00000000000E+00 -0.00000000000E+00 -0.23783523083E+04  0.23783523083E+04  0.00000000000E+00 0.  1.
         23    2    1    2    0    0 -0.60388721011E+03 -0.10987026369E+04  0.77545307897E+03  0.14771009670E+04  0.93126485477E+02 0.  0.
         13    1    3    3    0    0 -0.41002239297E+03 -0.66559403998E+03  0.45514422706E+03  0.90459386259E+03  0.00000000000E+00 0. -1.
        -13    1    3    3    0    0 -0.19386481714E+03 -0.43310859689E+03  0.32030885190E+03  0.57250710444E+03  0.00000000000E+00 0.  1.
         22    1    1    2    0    0  0.60388721011E+03  0.10987026369E+04 -0.18337176050E+04  0.22213391236E+04  0.00000000000E+00 0.  1.
<mgrwt>
<rscale>  0 0.35438024E+04</rscale>
<asrwt>0</asrwt>
<pdfrwt beam="1">  1        1 0.20309043E+00 0.35438024E+04</pdfrwt>
<pdfrwt beam="2">  1       -1 0.36590035E+00 0.35438024E+04</pdfrwt>
<totfact> 0.86545922E-02</totfact>
</mgrwt>
</event>
<event>
 6    1  0.8968082E-007  0.3719836E+04  0.7818608E-02  0.8063580E-01
          2   -1    0    0  501    0  0.00000000000E+00  0.00000000000E+00  0.34030063926E+04  0.34030063926E+04  0.00000000000E+00 0. -1.
         -2   -1    0    0    0  501 -0.00000000000E+00 -0.00000000000E+00 -0.10165410790E+04  0.10165410790E+04  0.00000000000E+00 0.  1.
         23    2    1    2    0    0  0.61057940045E+03  0.83188949538E+03  0.30308170867E+04  0.32029799461E+04  0.91547722305E+02 0.  0.
         13    1    3    3    0    0  0.48801695062E+03  0.59821262261E+03  0.22417167457E+04  0.23709307991E+04  0.00000000000E+00 0.  1.
        -13    1    3    3    0    0  0.12256244983E+03  0.23367687277E+03  0.78910034093E+03  0.83204914701E+03  0.00000000000E+00 0. -1.
         22    1    1    2    0    0 -0.61057940045E+03 -0.83188949538E+03 -0.64435177303E+03  0.12165675255E+04  0.00000000000E+00 0.  1.
<mgrwt>
<rscale>  0 0.37198364E+04</rscale>
<asrwt>0</asrwt>
<pdfrwt beam="1">  1        2 0.52353944E+00 0.37198364E+04</pdfrwt>
<pdfrwt beam="2">  1       -2 0.15639094E+00 0.37198364E+04</pdfrwt>
<totfact> 0.20492874E-01</totfact>
</mgrwt>
</event>
<event>
 6    1  0.8968082E-007  0.9072874E+03  0.7818608E-02  0.9416517E-01
         -1   -1    0    0    0  501 -0.00000000000E+00  0.00000000000E+00  0.28821363572E+03  0.28821363572E+03  0.00000000000E+00 0.  1.
          1   -1    0    0  501    0  0.00000000000E+00 -0.00000000000E+00 -0.71402804929E+03  0.71402804929E+03  0.00000000000E+00 0. -1.
         23    2    1    2    0    0  0.42540178045E+03  0.28043166856E+02 -0.58910097106E+02  0.43977224453E+03  0.90421974658E+02 0.  0.
         13    1    3    3    0    0  0.38167631262E+03  0.14989208210E+01 -0.68365919069E+02  0.38775372760E+03  0.00000000000E+00 0. -1.
        -13    1    3    3    0    0  0.43725467832E+02  0.26544246035E+02  0.94558219628E+01  0.52018516931E+02  0.00000000000E+00 0.  1.
         22    1    1    2    0    0 -0.42540178045E+03 -0.28043166856E+02 -0.36690431647E+03  0.56246944047E+03  0.00000000000E+00 0. -1.
<mgrwt>
<rscale>  0 0.90728743E+03</rscale>
<asrwt>0</asrwt>
<pdfrwt beam="1">  1        1 0.10985047E+00 0.90728743E+03</pdfrwt>
<pdfrwt beam="2">  1       -1 0.44340560E-01 0.90728743E+03</pdfrwt>
<totfact> 0.13395870E+02</totfact>
</mgrwt>
</event>
<event>
 6    1  0.8968082E-007  0.2523664E+04  0.7818608E-02  0.8394603E-01
          2   -1    0    0  501    0  0.00000000000E+00  0.00000000000E+00  0.28576720533E+04  0.28576720533E+04  0.00000000000E+00 0. -1.
         -2   -1    0    0    0  501 -0.00000000000E+00 -0.00000000000E+00 -0.55717382768E+03  0.55717382768E+03  0.00000000000E+00 0.  1.
         23    2    1    2    0    0  0.55294149921E+03 -0.64120845819E+03 -0.11122866746E+03  0.85881004493E+03  0.91051020950E+02 0.  0.
         13    1    3    3    0    0  0.34045729155E+03 -0.44902349501E+03 -0.98329654005E+02  0.57201572295E+03  0.00000000000E+00 0.  1.
        -13    1    3    3    0    0  0.21248420766E+03 -0.19218496317E+03 -0.12899013450E+02  0.28679432199E+03  0.00000000000E+00 0. -1.
         22    1    1    2    0    0 -0.55294149921E+03  0.64120845819E+03  0.24117268930E+04  0.25560358360E+04  0.00000000000E+00 0. -1.
<mgrwt>
<rscale>  0 0.25236641E+04</rscale>
<asrwt>0</asrwt>
<pdfrwt beam="1">  1        2 0.43964185E+00 0.25236641E+04</pdfrwt>
<pdfrwt beam="2">  1       -2 0.85719052E-01 0.25236641E+04</pdfrwt>
<totfact> 0.22439830E+00</totfact>
</mgrwt>
</event>
<event>
 6    1  0.8968082E-007  0.1328324E+04  0.7818608E-02  0.9007400E-01
          1   -1    0    0  501    0  0.00000000000E+00  0.00000000000E+00  0.52019509213E+03  0.52019509213E+03  0.00000000000E+00 0. -1.
         -1   -1    0    0    0  501 -0.00000000000E+00 -0.00000000000E+00 -0.84797317510E+03  0.84797317510E+03  0.00000000000E+00 0.  1.
         23    2    1    2    0    0 -0.56962850775E+03 -0.17076806146E+03 -0.46181597454E+03  0.75857453036E+03  0.92319857641E+02 0.  0.
         13    1    3    3    0    0 -0.27768683134E+03 -0.12477187444E+03 -0.26382012742E+03  0.40283874762E+03  0.00000000000E+00 0.  1.
        -13    1    3    3    0    0 -0.29194167641E+03 -0.45996187014E+02 -0.19799584712E+03  0.35573578274E+03  0.00000000000E+00 0. -1.
         22    1    1    2    0    0  0.56962850775E+03  0.17076806146E+03  0.13403789157E+03  0.60959373687E+03  0.00000000000E+00 0. -1.
<mgrwt>
<rscale>  0 0.13283245E+04</rscale>
<asrwt>0</asrwt>
<pdfrwt beam="1">  1        1 0.80030015E-01 0.13283245E+04</pdfrwt>
<pdfrwt beam="2">  1       -1 0.13045741E+00 0.13283245E+04</pdfrwt>
<totfact> 0.20679474E+01</totfact>
</mgrwt>
</event>
<event>
 6    1  0.8968082E-007  0.3248911E+04  0.7818608E-02  0.8176018E-01
          2   -1    0    0  501    0  0.00000000000E+00  0.00000000000E+00  0.12464559985E+04  0.12464559985E+04  0.00000000000E+00 0. -1.
         -2   -1    0    0    0  501 -0.00000000000E+00 -0.00000000000E+00 -0.21170867047E+04  0.21170867047E+04  0.00000000000E+00 0.  1.
         23    2    1    2    0    0 -0.15304901760E+04  0.47841667480E+03 -0.17516606652E+03  0.16157001020E+04  0.92309127989E+02 0.  0.
         11    1    3    3    0    0 -0.11744818778E+04  0.40566833224E+03 -0.12373660952E+03  0.12487134282E+04  0.00000000000E+00 0. -1.
        -11    1    3    3    0    0 -0.35600829820E+03  0.72748342557E+02 -0.51429456992E+02  0.36698667384E+03  0.00000000000E+00 0.  1.
         22    1    1    2    0    0  0.15304901760E+04 -0.47841667480E+03 -0.69546463967E+03  0.17478426012E+04  0.00000000000E+00 0. -1.
<mgrwt>
<rscale>  0 0.32489108E+04</rscale>
<asrwt>0</asrwt>
<pdfrwt beam="1">  1        2 0.19176246E+00 0.32489108E+04</pdfrwt>
<pdfrwt beam="2">  1       -2 0.32570564E+00 0.32489108E+04</pdfrwt>
<totfact> 0.32894798E-01</totfact>
</mgrwt>
</event>
<event>
 6    1  0.8968082E-007  0.1680703E+04  0.7818608E-02  0.8772447E-01
         -1   -1    0    0    0  501 -0.00000000000E+00  0.00000000000E+00  0.18384695479E+03  0.18384695479E+03  0.00000000000E+00 0.  1.
          1   -1    0    0  501    0  0.00000000000E+00 -0.00000000000E+00 -0.38411871910E+04  0.38411871910E+04  0.00000000000E+00 0. -1.
         23    2    1    2    0    0 -0.63060362438E+03  0.90021777249E+02 -0.31375806717E+04  0.32028937342E+04  0.91383531546E+02 0.  0.
         13    1    3    3    0    0 -0.18820799359E+03  0.68035352397E+02 -0.92186832577E+03  0.94334101368E+03  0.00000000000E+00 0.  1.
        -13    1    3    3    0    0 -0.44239563079E+03  0.21986424852E+02 -0.22157123459E+04  0.22595527205E+04  0.00000000000E+00 0. -1.
         22    1    1    2    0    0  0.63060362438E+03 -0.90021777249E+02 -0.51975956456E+03  0.82214041162E+03  0.00000000000E+00 0.  1.
<mgrwt>
<rscale>  0 0.16807029E+04</rscale>
<asrwt>0</asrwt>
<pdfrwt beam="1">  1        1 0.59095184E+00 0.16807029E+04</pdfrwt>
<pdfrwt beam="2">  1       -1 0.28284149E-01 0.16807029E+04</pdfrwt>
<totfact> 0.14360930E+00</totfact>
</mgrwt>
</event>
<event>
 6    1  0.8968082E-007  0.2032665E+04  0.7818608E-02  0.8591499E-01
          3   -1    0    0  501    0  0.00000000000E+00  0.00000000000E+00  0.76304689743E+03  0.76304689743E+03  0.00000000000E+00 0. -1.
         -3   -1    0    0    0  501 -0.00000000000E+00 -0.00000000000E+00 -0.13536936571E+04  0.13536936571E+04  0.00000000000E+00 0.  1.
         23    2    1    2    0    0  0.29806379489E+03  0.35483097823E+03  0.64370671340E+03  0.79826585041E+03  0.90127610158E+02 0.  0.
         13    1    3    3    0    0  0.14410835359E+03  0.19864035566E+03  0.40951417660E+03  0.47741708108E+03  0.00000000000E+00 0.  1.
        -13    1    3    3    0    0  0.15395544130E+03  0.15619062257E+03  0.23419253680E+03  0.32084876933E+03  0.00000000000E+00 0. -1.
         22    1    1    2    0    0 -0.29806379489E+03 -0.35483097823E+03 -0.12343534731E+04  0.13184747042E+04  0.00000000000E+00 0.  1.
<mgrwt>
<rscale>  0 0.20326650E+04</rscale>
<asrwt>0</asrwt>
<pdfrwt beam="1">  1        3 0.11739183E+00 0.20326650E+04</pdfrwt>
<pdfrwt beam="2">  1       -3 0.20826056E+00 0.20326650E+04</pdfrwt>
<totfact> 0.18797783E-01</totfact>
</mgrwt>
</event>
<event>
 6    1  0.8968082E-007  0.3501764E+04  0.7818608E-02  0.8113372E-01
         -2   -1    0    0    0  501 -0.00000000000E+00  0.00000000000E+00  0.21498357635E+04  0.21498357635E+04  0.00000000000E+00 0.  1.
          2   -1    0    0  501    0  0.00000000000E+00 -0.00000000000E+00 -0.14259636610E+04  0.14259636610E+04  0.00000000000E+00 0. -1.
         23    2    1    2    0    0 -0.90801084822E+03  0.35477246381E+03  0.18459248947E+04  0.20894112955E+04  0.88620783820E+02 0.  0.
         13    1    3    3    0    0 -0.25115337167E+03  0.13415873655E+03  0.49114800974E+03  0.56771731537E+03  0.00000000000E+00 0. -1.
        -13    1    3    3    0    0 -0.65685747655E+03  0.22061372726E+03  0.13547768849E+04  0.15216939801E+04  0.00000000000E+00 0.  1.
         22    1    1    2    0    0  0.90801084822E+03 -0.35477246381E+03 -0.11220527922E+04  0.14863881290E+04  0.00000000000E+00 0. -1.
<mgrwt>
<rscale>  0 0.35017639E+04</rscale>
<asrwt>0</asrwt>
<pdfrwt beam="1">  1        2 0.21937902E+00 0.35017639E+04</pdfrwt>
<pdfrwt beam="2">  1       -2 0.33074396E+00 0.35017639E+04</pdfrwt>
<totfact> 0.23590926E-01</totfact>
</mgrwt>
</event>
<event>
 6    1  0.8968082E-007  0.1863337E+04  0.7818608E-02  0.8673324E-01
          2   -1    0    0  501    0  0.00000000000E+00  0.00000000000E+00  0.51512943233E+03  0.51512943233E+03  0.00000000000E+00 0. -1.
         -2   -1    0    0    0  501 -0.00000000000E+00 -0.00000000000E+00 -0.16850256056E+04  0.16850256056E+04  0.00000000000E+00 0.  1.
         23    2    1    2    0    0  0.78493127422E+03  0.49560087872E+03 -0.53377478259E+03  0.10748160846E+04  0.92610803527E+02 0.  0.
         13    1    3    3    0    0  0.62309586711E+03  0.38091009735E+03 -0.46046431605E+03  0.86334717711E+03  0.00000000000E+00 0.  1.
        -13    1    3    3    0    0  0.16183540711E+03  0.11469078137E+03 -0.73310466541E+02  0.21146890748E+03  0.00000000000E+00 0. -1.
         22    1    1    2    0    0 -0.78493127422E+03 -0.49560087872E+03 -0.63612139068E+03  0.11253389533E+04  0.00000000000E+00 0. -1.
<mgrwt>
<rscale>  0 0.18633371E+04</rscale>
<asrwt>0</asrwt>
<pdfrwt beam="1">  1        2 0.79250682E-01 0.18633371E+04</pdfrwt>
<pdfrwt beam="2">  1       -2 0.25923471E+00 0.18633371E+04</pdfrwt>
<totfact> 0.31508926E+00</totfact>
</mgrwt>
</event>
<event>
 6    1  0.8968082E-007  0.3942875E+04  0.7818608E-02  0.8016171E-01
          2   -1    0    0  501    0  0.00000000000E+00  0.00000000000E+00  0.47776187776E+04  0.47776187776E+04  0.00000000000E+00 0. -1.
         -2   -1    0    0    0  501 -0.00000000000E+00 -0.00000000000E+00 -0.81349415415E+03  0.81349415415E+03  0.00000000000E+00 0.  1.
         23    2    1    2    0    0 -0.11046319193E+04  0.16229075834E+04  0.17442409518E+04  0.26276817756E+04  0.91073129454E+02 0.  0.
         11    1    3    3    0    0 -0.13134273177E+03  0.20846479702E+03  0.25884569600E+03  0.35736477040E+03  0.00000000000E+00 0.  1.
        -11    1    3    3    0    0 -0.97328918754E+03  0.14144427863E+04  0.14853952558E+04  0.22703170052E+04  0.00000000000E+00 0. -1.
         22    1    1    2    0    0  0.11046319193E+04 -0.16229075834E+04  0.22198836717E+04  0.29634311562E+04  0.00000000000E+00 0.  1.
<mgrwt>
<rscale>  0 0.39428746E+04</rscale>
<asrwt>0</asrwt>
<pdfrwt beam="1">  1        2 0.73501825E+00 0.39428746E+04</pdfrwt>
<pdfrwt beam="2">  1       -2 0.12515295E+00 0.39428746E+04</pdfrwt>
<totfact> 0.23674623E-02</totfact>
</mgrwt>
</event>
<event>
 6    1  0.8968082E-007  0.4880943E+03  0.7818608E-02  0.1016934E+00
         -1   -1    0    0    0  501 -0.00000000000E+00  0.00000000000E+00  0.14913220418E+03  0.14913220418E+03  0.00000000000E+00 0.  1.
          1   -1    0    0  501    0  0.00000000000E+00 -0.00000000000E+00 -0.39937057561E+03  0.39937057561E+03  0.00000000000E+00 0. -1.
         23    2    1    2    0    0  0.37413207347E+01 -0.96836752959E+02  0.11190833760E+03  0.17361400552E+03  0.90702771091E+02 0.  0.
         11    1    3    3    0    0 -0.71495019071E+01 -0.11193054280E+03  0.10535706310E+03  0.15388200848E+03  0.00000000000E+00 0.  1.
        -11    1    3    3    0    0  0.10890822642E+02  0.15093789842E+02  0.65512745071E+01  0.19731997042E+02  0.00000000000E+00 0. -1.
         22    1    1    2    0    0 -0.37413207347E+01  0.96836752959E+02 -0.36214670904E+03  0.37488877427E+03  0.00000000000E+00 0. -1.
<mgrwt>
<rscale>  0 0.48809431E+03</rscale>
<asrwt>0</asrwt>
<pdfrwt beam="1">  1        1 0.61441627E-01 0.48809431E+03</pdfrwt>
<pdfrwt beam="2">  1       -1 0.22943416E-01 0.48809431E+03</pdfrwt>
<totfact> 0.97812991E+02</totfact>
</mgrwt>
</event>
<event>
 6    1  0.8968082E-007  0.1599129E+04  0.7818608E-02  0.8821083E-01
         -2   -1    0    0    0  501 -0.00000000000E+00  0.00000000000E+00  0.41056010011E+03  0.41056010011E+03  0.00000000000E+00 0.  1.
          2   -1    0    0  501    0  0.00000000000E+00 -0.00000000000E+00 -0.15571491830E+04  0.15571491830E+04  0.00000000000E+00 0. -1.
         23    2    1    2    0    0  0.39424902045E+03 -0.52651320252E+03 -0.11289178537E+04  0.13097117794E+04  0.90779855776E+02 0.  0.
         13    1    3    3    0    0  0.23908993897E+03 -0.38853039862E+03 -0.78884676166E+03  0.91126235682E+03  0.00000000000E+00 0. -1.
        -13    1    3    3    0    0  0.15515908148E+03 -0.13798280390E+03 -0.34007109204E+03  0.39844942261E+03  0.00000000000E+00 0.  1.
         22    1    1    2    0    0 -0.39424902045E+03  0.52651320252E+03 -0.17671229217E+02  0.65799750371E+03  0.00000000000E+00 0.  1.
<mgrwt>
<rscale>  0 0.15991289E+04</rscale>
<asrwt>0</asrwt>
<pdfrwt beam="1">  1        2 0.23956141E+00 0.15991289E+04</pdfrwt>
<pdfrwt beam="2">  1       -2 0.63163092E-01 0.15991289E+04</pdfrwt>
<totfact> 0.26239409E+01</totfact>
</mgrwt>
</event>
<event>
 6    1  0.8968082E-007  0.9099899E+03  0.7818608E-02  0.9413179E-01
         -2   -1    0    0    0  501 -0.00000000000E+00  0.00000000000E+00  0.19097450903E+03  0.19097450903E+03  0.00000000000E+00 0.  1.
          2   -1    0    0  501    0  0.00000000000E+00 -0.00000000000E+00 -0.10840212093E+04  0.10840212093E+04  0.00000000000E+00 0. -1.
         23    2    1    2    0    0 -0.22823334034E+03 -0.15270214600E+03  0.49449914527E+02  0.29330927556E+03  0.90424742438E+02 0.  0.
         11    1    3    3    0    0 -0.24598324630E+01 -0.29406496231E+01  0.20480799626E+02  0.20836538802E+02  0.00000000000E+00 0.  1.
        -11    1    3    3    0    0 -0.22577350787E+03 -0.14976149638E+03  0.28969114901E+02  0.27247273675E+03  0.00000000000E+00 0. -1.
         22    1    1    2    0    0  0.22823334034E+03  0.15270214600E+03 -0.94249661476E+03  0.98168644274E+03  0.00000000000E+00 0. -1.
<mgrwt>
<rscale>  0 0.90998993E+03</rscale>
<asrwt>0</asrwt>
<pdfrwt beam="1">  1        2 0.16677249E+00 0.90998993E+03</pdfrwt>
<pdfrwt beam="2">  1       -2 0.29380695E-01 0.90998993E+03</pdfrwt>
<totfact> 0.23779331E+02</totfact>
</mgrwt>
</event>
<event>
 6    1  0.8968082E-007  0.3637798E+04  0.7818608E-02  0.8081888E-01
         -2   -1    0    0    0  501 -0.00000000000E+00  0.00000000000E+00  0.10140267292E+04  0.10140267292E+04  0.00000000000E+00 0.  1.
          2   -1    0    0  501    0  0.00000000000E+00 -0.00000000000E+00 -0.32626290516E+04  0.32626290516E+04  0.00000000000E+00 0. -1.
         23    2    1    2    0    0  0.11588067298E+04  0.11788634854E+04 -0.20134537483E+04  0.26069710782E+04  0.98742348267E+02 0.  0.
         13    1    3    3    0    0  0.49940355857E+03  0.45418579229E+03 -0.86958677589E+03  0.11008495851E+04  0.00000000000E+00 0. -1.
        -13    1    3    3    0    0  0.65940317122E+03  0.72467769316E+03 -0.11438669724E+04  0.15061214930E+04  0.00000000000E+00 0.  1.
         22    1    1    2    0    0 -0.11588067298E+04 -0.11788634854E+04 -0.23514857405E+03  0.16696847026E+04  0.00000000000E+00 0. -1.
<mgrwt>
<rscale>  0 0.36377977E+04</rscale>
<asrwt>0</asrwt>
<pdfrwt beam="1">  1        2 0.50194293E+00 0.36377977E+04</pdfrwt>
<pdfrwt beam="2">  1       -2 0.15600411E+00 0.36377977E+04</pdfrwt>
<totfact> 0.25823776E-01</totfact>
</mgrwt>
</event>
<event>
 6    1  0.8968082E-007  0.3028528E+04  0.7818608E-02  0.8235631E-01
         -1   -1    0    0    0  501 -0.00000000000E+00  0.00000000000E+00  0.15333057485E+04  0.15333057485E+04  0.00000000000E+00 0.  1.
          1   -1    0    0  501    0  0.00000000000E+00 -0.00000000000E+00 -0.14954587219E+04  0.14954587219E+04  0.00000000000E+00 0. -1.
         23    2    1    2    0    0  0.11788801749E+04  0.44271474707E+03 -0.81959551353E+03  0.15052939181E+04  0.91750530280E+02 0.  0.
         13    1    3    3    0    0  0.73521984499E+03  0.31297009426E+03 -0.55193888801E+03  0.97115139730E+03  0.00000000000E+00 0.  1.
        -13    1    3    3    0    0  0.44366032995E+03  0.12974465280E+03 -0.26765662552E+03  0.53414252076E+03  0.00000000000E+00 0. -1.
         22    1    1    2    0    0 -0.11788801749E+04 -0.44271474707E+03  0.85744254016E+03  0.15234705523E+04  0.00000000000E+00 0.  1.
<mgrwt>
<rscale>  0 0.30285280E+04</rscale>
<asrwt>0</asrwt>
<pdfrwt beam="1">  1        1 0.23007057E+00 0.30285280E+04</pdfrwt>
<pdfrwt beam="2">  1       -1 0.23589319E+00 0.30285280E+04</pdfrwt>
<totfact> 0.48270795E-01</totfact>
</mgrwt>
</event>
<event>
 6    1  0.8968082E-007  0.2329428E+04  0.7818608E-02  0.8466408E-01
         -1   -1    0    0    0  501 -0.00000000000E+00  0.00000000000E+00  0.69831259835E+03  0.69831259835E+03  0.00000000000E+00 0.  1.
          1   -1    0    0  501    0  0.00000000000E+00 -0.00000000000E+00 -0.19426231245E+04  0.19426231245E+04  0.00000000000E+00 0. -1.
         23    2    1    2    0    0 -0.68560699211E+03 -0.10155007222E+03  0.43572309118E+03  0.82355235103E+03  0.89523728140E+02 0.  0.
         13    1    3    3    0    0 -0.30229317049E+03 -0.87864929741E+02  0.18121211841E+03  0.36323441283E+03  0.00000000000E+00 0. -1.
        -13    1    3    3    0    0 -0.38331382161E+03 -0.13685142476E+02  0.25451097278E+03  0.46031793820E+03  0.00000000000E+00 0.  1.
         22    1    1    2    0    0  0.68560699211E+03  0.10155007222E+03 -0.16800336173E+04  0.18173833718E+04  0.00000000000E+00 0. -1.
<mgrwt>
<rscale>  0 0.23294276E+04</rscale>
<asrwt>0</asrwt>
<pdfrwt beam="1">  1        1 0.29886510E+00 0.23294276E+04</pdfrwt>
<pdfrwt beam="2">  1       -1 0.10743271E+00 0.23294276E+04</pdfrwt>
<totfact> 0.23709338E+00</totfact>
</mgrwt>
</event>
<event>
 6    1  0.8968082E-007  0.4701944E+04  0.7818608E-02  0.7876206E-01
         -1   -1    0    0    0  501 -0.00000000000E+00  0.00000000000E+00  0.25146594408E+04  0.25146594408E+04  0.00000000000E+00 0.  1.
          1   -1    0    0  501    0  0.00000000000E+00 -0.00000000000E+00 -0.21979393363E+04  0.21979393363E+04  0.00000000000E+00 0. -1.
         23    2    1    2    0    0  0.92986003769E+03  0.14695167290E+04  0.17428007619E+04  0.24636378731E+04  0.89654713975E+02 0.  0.
         11    1    3    3    0    0  0.58049487389E+03  0.98616345387E+03  0.11152354229E+04  0.15978869500E+04  0.00000000000E+00 0.  1.
        -11    1    3    3    0    0  0.34936516380E+03  0.48335327512E+03  0.62756533899E+03  0.86575092315E+03  0.00000000000E+00 0. -1.
         22    1    1    2    0    0 -0.92986003769E+03 -0.14695167290E+04 -0.14260806574E+04  0.22489609040E+04  0.00000000000E+00 0. -1.
<mgrwt>
<rscale>  0 0.47019438E+04</rscale>
<asrwt>0</asrwt>
<pdfrwt beam="1">  1        1 0.33814451E+00 0.47019438E+04</pdfrwt>
<pdfrwt beam="2">  1       -1 0.38687068E+00 0.47019438E+04</pdfrwt>
<totfact> 0.14201683E-02</totfact>
</mgrwt>
</event>
<event>
 6    1  0.8968082E-007  0.1038043E+04  0.7818608E-02  0.9267776E-01
         -2   -1    0    0    0  501 -0.00000000000E+00  0.00000000000E+00  0.67161442447E+02  0.67161442447E+02  0.00000000000E+00 0.  1.
          2   -1    0    0  501    0  0.00000000000E+00 -0.00000000000E+00 -0.40109834164E+04  0.40109834164E+04  0.00000000000E+00 0. -1.
         23    2    1    2    0    0  0.24211279503E+03 -0.26497265896E+03 -0.34384211159E+04  0.34582584637E+04  0.89346047808E+02 0.  0.
         11    1    3    3    0    0  0.45426963711E+02 -0.20111520127E+02 -0.72985041965E+03  0.73153927942E+03  0.00000000000E+00 0. -1.
        -11    1    3    3    0    0  0.19668583132E+03 -0.24486113883E+03 -0.27085706962E+04  0.27267191843E+04  0.00000000000E+00 0.  1.
         22    1    1    2    0    0 -0.24211279503E+03  0.26497265896E+03 -0.50540085804E+03  0.61988639509E+03  0.00000000000E+00 0.  1.
<mgrwt>
<rscale>  0 0.10380432E+04</rscale>
<asrwt>0</asrwt>
<pdfrwt beam="1">  1        2 0.61707444E+00 0.10380432E+04</pdfrwt>
<pdfrwt beam="2">  1       -2 0.10332529E-01 0.10380432E+04</pdfrwt>
<totfact> 0.22992253E+01</totfact>
</mgrwt>
</event>
<event>
 6    1  0.8968082E-007  0.8813743E+03  0.7818608E-02  0.9449169E-01
          2   -1    0    0  501    0  0.00000000000E+00  0.00000000000E+00  0.71547824179E+03  0.71547824179E+03  0.00000000000E+00 0. -1.
         -2   -1    0    0    0  501 -0.00000000000E+00 -0.00000000000E+00 -0.27143403672E+03  0.27143403672E+03  0.00000000000E+00 0.  1.
         23    2    1    2    0    0  0.11793079581E+03  0.26357584957E+03 -0.14094835980E+03  0.33453493216E+03  0.93098225670E+02 0.  0.
         13    1    3    3    0    0  0.11184693636E+03  0.24935518246E+03 -0.15452711523E+03  0.31395282056E+03  0.00000000000E+00 0. -1.
        -13    1    3    3    0    0  0.60838594499E+01  0.14220667114E+02  0.13578755429E+02  0.20582111601E+02  0.00000000000E+00 0.  1.
         22    1    1    2    0    0 -0.11793079581E+03 -0.26357584957E+03  0.58499256487E+03  0.65237734635E+03  0.00000000000E+00 0. -1.
<mgrwt>
<rscale>  0 0.88137426E+03</rscale>
<asrwt>0</asrwt>
<pdfrwt beam="1">  1        2 0.11007357E+00 0.88137426E+03</pdfrwt>
<pdfrwt beam="2">  1       -2 0.41759083E-01 0.88137426E+03</pdfrwt>
<totfact> 0.21723929E+02</totfact>
</mgrwt>
</event>
<event>
 6    1  0.8968082E-007  0.3997603E+04  0.7818608E-02  0.8005030E-01
         -1   -1    0    0    0  501 -0.00000000000E+00  0.00000000000E+00  0.16240219145E+04  0.16240219145E+04  0.00000000000E+00 0.  1.
          1   -1    0    0  501    0  0.00000000000E+00 -0.00000000000E+00 -0.24600699710E+04  0.24600699710E+04  0.00000000000E+00 0. -1.
         23    2    1    2    0    0  0.99989205406E+03  0.13016649861E+03  0.13437379369E+04  0.16823853226E+04  0.89784706762E+02 0.  0.
         13    1    3    3    0    0  0.85611912434E+03  0.12206077965E+03  0.11979269393E+04  0.14774531265E+04  0.00000000000E+00 0.  1.
        -13    1    3    3    0    0  0.14377292972E+03  0.81057189559E+01  0.14581099758E+03  0.20493219614E+03  0.00000000000E+00 0. -1.
         22    1    1    2    0    0 -0.99989205406E+03 -0.13016649861E+03 -0.21797859934E+04  0.24017065629E+04  0.00000000000E+00 0. -1.
<mgrwt>
<rscale>  0 0.39976031E+04</rscale>
<asrwt>0</asrwt>
<pdfrwt beam="1">  1        1 0.37847230E+00 0.39976031E+04</pdfrwt>
<pdfrwt beam="2">  1       -1 0.24984953E+00 0.39976031E+04</pdfrwt>
<totfact> 0.78983809E-02</totfact>
</mgrwt>
</event>
<event>
 6    1  0.8968082E-007  0.2325564E+04  0.7818608E-02  0.8467909E-01
          1   -1    0    0  501    0  0.00000000000E+00  0.00000000000E+00  0.30787431859E+04  0.30787431859E+04  0.00000000000E+00 0. -1.
         -1   -1    0    0    0  501 -0.00000000000E+00 -0.00000000000E+00 -0.43916017652E+03  0.43916017652E+03  0.00000000000E+00 0.  1.
         23    2    1    2    0    0 -0.48074481960E+03 -0.70342063760E+03  0.25148825624E+04  0.26568189436E+04  0.90202112675E+02 0.  0.
         11    1    3    3    0    0 -0.30361597141E+03 -0.51184304987E+03  0.17981819628E+04  0.18941025149E+04  0.00000000000E+00 0. -1.
        -11    1    3    3    0    0 -0.17712884819E+03 -0.19157758774E+03  0.71670059965E+03  0.76271642864E+03  0.00000000000E+00 0.  1.
         22    1    1    2    0    0  0.48074481960E+03  0.70342063760E+03  0.12470044699E+03  0.86108441889E+03  0.00000000000E+00 0.  1.
<mgrwt>
<rscale>  0 0.23255635E+04</rscale>
<asrwt>0</asrwt>
<pdfrwt beam="1">  1        1 0.47365278E+00 0.23255635E+04</pdfrwt>
<pdfrwt beam="2">  1       -1 0.67563106E-01 0.23255635E+04</pdfrwt>
<totfact> 0.10476368E+00</totfact>
</mgrwt>
</event>
<event>
 6    1  0.8968082E-007  0.1855110E+04  0.7818608E-02  0.8677529E-01
          1   -1    0    0  501    0  0.00000000000E+00  0.00000000000E+00  0.73869387338E+03  0.73869387338E+03  0.00000000000E+00 0. -1.
         -1   -1    0    0    0  501 -0.00000000000E+00 -0.00000000000E+00 -0.11647026169E+04  0.11647026169E+04  0.00000000000E+00 0.  1.
         23    2    1    2    0    0 -0.87562720963E+03  0.29472586449E+03 -0.16138762644E+03  0.94234983114E+03  0.91601816762E+02 0.  0.
         13    1    3    3    0    0 -0.79244749209E+02  0.70050997979E+01 -0.32043195644E+02  0.85764608595E+02  0.00000000000E+00 0. -1.
        -13    1    3    3    0    0 -0.79638246042E+03  0.28772076469E+03 -0.12934443080E+03  0.85658522254E+03  0.00000000000E+00 0.  1.
         22    1    1    2    0    0  0.87562720963E+03 -0.29472586449E+03 -0.26462111708E+03  0.96104665914E+03  0.00000000000E+00 0.  1.
<mgrwt>
<rscale>  0 0.18551104E+04</rscale>
<asrwt>0</asrwt>
<pdfrwt beam="1">  1        1 0.11364521E+00 0.18551104E+04</pdfrwt>
<pdfrwt beam="2">  1       -1 0.17918502E+00 0.18551104E+04</pdfrwt>
<totfact> 0.49681765E+00</totfact>
</mgrwt>
</event>
<event>
 6    1  0.8968082E-007  0.1545261E+04  0.7818608E-02  0.8854900E-01
         -1   -1    0    0    0  501 -0.00000000000E+00  0.00000000000E+00  0.37396125439E+03  0.37396125439E+03  0.00000000000E+00 0.  1.
          1   -1    0    0  501    0  0.00000000000E+00 -0.00000000000E+00 -0.15963099895E+04  0.15963099895E+04  0.00000000000E+00 0. -1.
         23    2    1    2    0    0  0.60731349191E+03 -0.31118328075E+03 -0.10679388805E+04  0.12706233932E+04  0.91244963482E+02 0.  0.
         11    1    3    3    0    0  0.60084674924E+03 -0.30421733187E+03 -0.10236510413E+04  0.12253270810E+04  0.00000000000E+00 0. -1.
        -11    1    3    3    0    0  0.64667426732E+01 -0.69659488814E+01 -0.44287839151E+02  0.45296312227E+02  0.00000000000E+00 0.  1.
         22    1    1    2    0    0 -0.60731349191E+03  0.31118328075E+03 -0.15440985462E+03  0.69964785063E+03  0.00000000000E+00 0.  1.
<mgrwt>
<rscale>  0 0.15452613E+04</rscale>
<asrwt>0</asrwt>
<pdfrwt beam="1">  1        1 0.24558615E+00 0.15452613E+04</pdfrwt>
<pdfrwt beam="2">  1       -1 0.57532502E-01 0.15452613E+04</pdfrwt>
<totfact> 0.16552519E+01</totfact>
</mgrwt>
</event>
<event>
 6    1  0.8968082E-007  0.4345162E+03  0.7818608E-02  0.1032443E+00
         -2   -1    0    0    0  501 -0.00000000000E+00  0.00000000000E+00  0.17289479163E+03  0.17289479163E+03  0.00000000000E+00 0.  1.
          2   -1    0    0  501    0  0.00000000000E+00 -0.00000000000E+00 -0.27300470491E+03  0.27300470491E+03  0.00000000000E+00 0. -1.
         23    2    1    2    0    0 -0.17531037729E+03 -0.10798972759E+03 -0.29240663795E+02  0.22814284298E+03  0.93801016693E+02 0.  0.
         11    1    3    3    0    0 -0.69935866896E+02  0.69538211640E+01 -0.11197609006E+02  0.71167180320E+02  0.00000000000E+00 0.  1.
        -11    1    3    3    0    0 -0.10537451039E+03 -0.11494354875E+03 -0.18043054789E+02  0.15697566266E+03  0.00000000000E+00 0. -1.
         22    1    1    2    0    0  0.17531037729E+03  0.10798972759E+03 -0.70869249484E+02  0.21775665357E+03  0.00000000000E+00 0. -1.
<mgrwt>
<rscale>  0 0.43451624E+03</rscale>
<asrwt>0</asrwt>
<pdfrwt beam="1">  1        2 0.42000724E-01 0.43451624E+03</pdfrwt>
<pdfrwt beam="2">  1       -2 0.26599199E-01 0.43451624E+03</pdfrwt>
<totfact> 0.15524861E+03</totfact>
</mgrwt>
</event>
<event>
 6    1  0.8968082E-007  0.2380624E+04  0.7818608E-02  0.8446793E-01
          2   -1    0    0  501    0  0.00000000000E+00  0.00000000000E+00  0.37489700457E+04  0.37489700457E+04  0.00000000000E+00 0. -1.
         -2   -1    0    0    0  501 -0.00000000000E+00 -0.00000000000E+00 -0.37792852552E+03  0.37792852552E+03  0.00000000000E+00 0.  1.
         23    2    1    2    0    0 -0.20229726713E+02  0.11716832101E+04  0.13439555515E+04  0.17854613393E+04  0.91678148357E+02 0.  0.
         13    1    3    3    0    0  0.30869374429E+02  0.70531755184E+03  0.82672896437E+03  0.10871552547E+04  0.00000000000E+00 0. -1.
        -13    1    3    3    0    0 -0.51099101142E+02  0.46636565828E+03  0.51722658711E+03  0.69830608459E+03  0.00000000000E+00 0.  1.
         22    1    1    2    0    0  0.20229726713E+02 -0.11716832101E+04  0.20270859687E+04  0.23414372320E+04  0.00000000000E+00 0. -1.
<mgrwt>
<rscale>  0 0.23806241E+04</rscale>
<asrwt>0</asrwt>
<pdfrwt beam="1">  1        2 0.57676459E+00 0.23806241E+04</pdfrwt>
<pdfrwt beam="2">  1       -2 0.58142853E-01 0.23806241E+04</pdfrwt>
<totfact> 0.13422683E+00</totfact>
</mgrwt>
</event>
<event>
 6    1  0.8968082E-007  0.3235734E+04  0.7818608E-02  0.8179443E-01
          1   -1    0    0  501    0  0.00000000000E+00  0.00000000000E+00  0.28578697750E+04  0.28578697750E+04  0.00000000000E+00 0. -1.
         -1   -1    0    0    0  501 -0.00000000000E+00 -0.00000000000E+00 -0.91588980847E+03  0.91588980847E+03  0.00000000000E+00 0.  1.
         23    2    1    2    0    0 -0.65744550906E+03 -0.41184075353E+03 -0.68223998903E+03  0.10372695362E+04  0.92893942084E+02 0.  0.
         13    1    3    3    0    0 -0.41825530405E+03 -0.21795265626E+03 -0.37813064780E+03  0.60450280938E+03  0.00000000000E+00 0.  1.
        -13    1    3    3    0    0 -0.23919020500E+03 -0.19388809727E+03 -0.30410934123E+03  0.43276672683E+03  0.00000000000E+00 0. -1.
         22    1    1    2    0    0  0.65744550906E+03  0.41184075353E+03  0.26242199555E+04  0.27364900472E+04  0.00000000000E+00 0. -1.
<mgrwt>
<rscale>  0 0.32357341E+04</rscale>
<asrwt>0</asrwt>
<pdfrwt beam="1">  1        1 0.43967227E+00 0.32357341E+04</pdfrwt>
<pdfrwt beam="2">  1       -1 0.14090613E+00 0.32357341E+04</pdfrwt>
<totfact> 0.26024442E-01</totfact>
</mgrwt>
</event>
<event>
 6    1  0.8968082E-007  0.2826333E+04  0.7818608E-02  0.8295139E-01
          1   -1    0    0  501    0  0.00000000000E+00  0.00000000000E+00  0.27893269165E+04  0.27893269165E+04  0.00000000000E+00 0. -1.
         -1   -1    0    0    0  501 -0.00000000000E+00 -0.00000000000E+00 -0.71595746578E+03  0.71595746578E+03  0.00000000000E+00 0.  1.
         23    2    1    2    0    0 -0.46441313773E+03  0.71368185105E+02 -0.61323550000E+03  0.77790117825E+03  0.91101505528E+02 0.  0.
         13    1    3    3    0    0 -0.25363468285E+03  0.73890086942E+02 -0.29295806606E+03  0.39448032367E+03  0.00000000000E+00 0. -1.
        -13    1    3    3    0    0 -0.21077845488E+03 -0.25219018367E+01 -0.32027743394E+03  0.38342085458E+03  0.00000000000E+00 0.  1.
         22    1    1    2    0    0  0.46441313773E+03 -0.71368185105E+02  0.26866049507E+04  0.27273832040E+04  0.00000000000E+00 0. -1.
<mgrwt>
<rscale>  0 0.28263329E+04</rscale>
<asrwt>0</asrwt>
<pdfrwt beam="1">  1        1 0.42912721E+00 0.28263329E+04</pdfrwt>
<pdfrwt beam="2">  1       -1 0.11014730E+00 0.28263329E+04</pdfrwt>
<totfact> 0.55700865E-01</totfact>
</mgrwt>
</event>
<event>
 6    1  0.8968082E-007  0.3923249E+04  0.7818608E-02  0.8020211E-01
          1   -1    0    0  501    0  0.00000000000E+00  0.00000000000E+00  0.24092923764E+04  0.24092923764E+04  0.00000000000E+00 0. -1.
         -1   -1    0    0    0  501 -0.00000000000E+00 -0.00000000000E+00 -0.15971369674E+04  0.15971369674E+04  0.00000000000E+00 0.  1.
         23    2    1    2    0    0  0.51032737763E+02 -0.18529931661E+04  0.10582947840E+04  0.21364634067E+04  0.91104469627E+02 0.  0.
         11    1    3    3    0    0  0.46018864711E+02 -0.10178372929E+04  0.62937025375E+03  0.11975881625E+04  0.00000000000E+00 0. -1.
        -11    1    3    3    0    0  0.50138730529E+01 -0.83515587316E+03  0.42892453024E+03  0.93887524413E+03  0.00000000000E+00 0.  1.
         22    1    1    2    0    0 -0.51032737763E+02  0.18529931661E+04 -0.24613937499E+03  0.18699659370E+04  0.00000000000E+00 0.  1.
<mgrwt>
<rscale>  0 0.39232486E+04</rscale>
<asrwt>0</asrwt>
<pdfrwt beam="1">  1        1 0.37066037E+00 0.39232486E+04</pdfrwt>
<pdfrwt beam="2">  1       -1 0.24571338E+00 0.39232486E+04</pdfrwt>
<totfact> 0.91693305E-02</totfact>
</mgrwt>
</event>
<event>
 6    1  0.8968082E-007  0.4011147E+04  0.7818608E-02  0.8002302E-01
          2   -1    0    0  501    0  0.00000000000E+00  0.00000000000E+00  0.39456419715E+04  0.39456419715E+04  0.00000000000E+00 0. -1.
         -2   -1    0    0    0  501 -0.00000000000E+00 -0.00000000000E+00 -0.10194347419E+04  0.10194347419E+04  0.00000000000E+00 0.  1.
         23    2    1    2    0    0  0.13807378838E+04  0.12642847472E+03 -0.32809749202E+03  0.14277160469E+04  0.91125646536E+02 0.  0.
         11    1    3    3    0    0  0.45106228095E+03  0.39129051773E+02 -0.15124630001E+03  0.47735071724E+03  0.00000000000E+00 0. -1.
        -11    1    3    3    0    0  0.92967560284E+03  0.87299422952E+02 -0.17685119201E+03  0.95036532970E+03  0.00000000000E+00 0.  1.
         22    1    1    2    0    0 -0.13807378838E+04 -0.12642847472E+03  0.32543047216E+04  0.35373606664E+04  0.00000000000E+00 0. -1.
<mgrwt>
<rscale>  0 0.40111467E+04</rscale>
<asrwt>0</asrwt>
<pdfrwt beam="1">  1        2 0.60702183E+00 0.40111467E+04</pdfrwt>
<pdfrwt beam="2">  1       -2 0.15683612E+00 0.40111467E+04</pdfrwt>
<totfact> 0.79020702E-02</totfact>
</mgrwt>
</event>
<event>
 6    1  0.8968082E-007  0.2600968E+04  0.7818608E-02  0.8367873E-01
          2   -1    0    0  501    0  0.00000000000E+00  0.00000000000E+00  0.43015002332E+04  0.43015002332E+04  0.00000000000E+00 0. -1.
         -2   -1    0    0    0  501 -0.00000000000E+00 -0.00000000000E+00 -0.39317865704E+03  0.39317865704E+03  0.00000000000E+00 0.  1.
         23    2    1    2    0    0 -0.60123705738E+03  0.80363104753E+03  0.46831919769E+03  0.11112552168E+04  0.90864878524E+02 0.  0.
         11    1    3    3    0    0 -0.18484464746E+03  0.25257081874E+03  0.19305661955E+03  0.36773689035E+03  0.00000000000E+00 0.  1.
        -11    1    3    3    0    0 -0.41639240992E+03  0.55106022879E+03  0.27526257814E+03  0.74351832642E+03  0.00000000000E+00 0. -1.
         22    1    1    2    0    0  0.60123705738E+03 -0.80363104753E+03  0.34400023784E+04  0.35834236734E+04  0.00000000000E+00 0.  1.
<mgrwt>
<rscale>  0 0.26009676E+04</rscale>
<asrwt>0</asrwt>
<pdfrwt beam="1">  1        2 0.66176923E+00 0.26009676E+04</pdfrwt>
<pdfrwt beam="2">  1       -2 0.60489027E-01 0.26009676E+04</pdfrwt>
<totfact> 0.42726113E-01</totfact>
</mgrwt>
</event>
<event>
 6    1  0.8968082E-007  0.2961226E+04  0.7818608E-02  0.8254891E-01
          1   -1    0    0  501    0  0.00000000000E+00  0.00000000000E+00  0.27483631530E+04  0.27483631530E+04  0.00000000000E+00 0. -1.
         -1   -1    0    0    0  501 -0.00000000000E+00 -0.00000000000E+00 -0.79764357582E+03  0.79764357582E+03  0.00000000000E+00 0.  1.
         23    2    1    2    0    0  0.49739317222E+03  0.13841788676E+04  0.11654207896E+04  0.18786599470E+04  0.88354253893E+02 0.  0.
         11    1    3    3    0    0  0.30415620668E+03  0.78541510914E+03  0.71599117822E+03  0.11054552271E+04  0.00000000000E+00 0.  1.
        -11    1    3    3    0    0  0.19323696555E+03  0.59876375846E+03  0.44942961139E+03  0.77320471991E+03  0.00000000000E+00 0. -1.
         22    1    1    2    0    0 -0.49739317222E+03 -0.13841788676E+04  0.78529878758E+03  0.16673467819E+04  0.00000000000E+00 0. -1.
<mgrwt>
<rscale>  0 0.29612256E+04</rscale>
<asrwt>0</asrwt>
<pdfrwt beam="1">  1        1 0.42282510E+00 0.29612256E+04</pdfrwt>
<pdfrwt beam="2">  1       -1 0.12271440E+00 0.29612256E+04</pdfrwt>
<totfact> 0.45346440E-01</totfact>
</mgrwt>
</event>
<event>
 6    1  0.8968082E-007  0.3543799E+04  0.7818608E-02  0.8103488E-01
          2   -1    0    0  501    0  0.00000000000E+00  0.00000000000E+00  0.16196899178E+04  0.16196899178E+04  0.00000000000E+00 0. -1.
         -2   -1    0    0    0  501 -0.00000000000E+00 -0.00000000000E+00 -0.19384132819E+04  0.19384132819E+04  0.00000000000E+00 0.  1.
         23    2    1    2    0    0  0.13786296514E+04  0.10924109638E+04  0.45804712339E+02  0.17617563100E+04  0.87782657347E+02 0.  0.
         13    1    3    3    0    0  0.79991854088E+03  0.60349779858E+03  0.62470778971E+02  0.10039829994E+04  0.00000000000E+00 0. -1.
        -13    1    3    3    0    0  0.57871111048E+03  0.48891316519E+03 -0.16666066631E+02  0.75777331061E+03  0.00000000000E+00 0.  1.
         22    1    1    2    0    0 -0.13786296514E+04 -0.10924109638E+04 -0.36452807650E+03  0.17963468896E+04  0.00000000000E+00 0. -1.
<mgrwt>
<rscale>  0 0.35437993E+04</rscale>
<asrwt>0</asrwt>
<pdfrwt beam="1">  1        2 0.24918306E+00 0.35437993E+04</pdfrwt>
<pdfrwt beam="2">  1       -2 0.29821743E+00 0.35437993E+04</pdfrwt>
<totfact> 0.29012170E-01</totfact>
</mgrwt>
</event>
<event>
 6    1  0.8968082E-007  0.3686158E+04  0.7818608E-02  0.8071036E-01
          1   -1    0    0  501    0  0.00000000000E+00  0.00000000000E+00  0.25942109013E+04  0.25942109013E+04  0.00000000000E+00 0. -1.
         -1   -1    0    0    0  501 -0.00000000000E+00 -0.00000000000E+00 -0.13094313034E+04  0.13094313034E+04  0.00000000000E+00 0.  1.
         23    2    1    2    0    0 -0.93262882351E+03 -0.51028464870E+03 -0.95015994760E+03  0.14287398395E+04  0.91140868205E+02 0.  0.
         13    1    3    3    0    0 -0.31971740035E+03 -0.22400374105E+03 -0.35916342884E+03  0.53046702132E+03  0.00000000000E+00 0.  1.
        -13    1    3    3    0    0 -0.61291142317E+03 -0.28628090765E+03 -0.59099651877E+03  0.89827281820E+03  0.00000000000E+00 0. -1.
         22    1    1    2    0    0  0.93262882351E+03  0.51028464870E+03  0.22349395455E+04  0.24749023652E+04  0.00000000000E+00 0. -1.
<mgrwt>
<rscale>  0 0.36861584E+04</rscale>
<asrwt>0</asrwt>
<pdfrwt beam="1">  1        1 0.39910937E+00 0.36861584E+04</pdfrwt>
<pdfrwt beam="2">  1       -1 0.20145097E+00 0.36861584E+04</pdfrwt>
<totfact> 0.13757046E-01</totfact>
</mgrwt>
</event>
<event>
 6    1  0.8968082E-007  0.1427709E+04  0.7818608E-02  0.8934002E-01
          1   -1    0    0  501    0  0.00000000000E+00  0.00000000000E+00  0.15372599590E+04  0.15372599590E+04  0.00000000000E+00 0. -1.
         -1   -1    0    0    0  501 -0.00000000000E+00 -0.00000000000E+00 -0.33149110982E+03  0.33149110982E+03  0.00000000000E+00 0.  1.
         23    2    1    2    0    0  0.44777761200E+03 -0.54743259284E+03  0.51077041857E+03  0.87718157955E+03  0.91508849320E+02 0.  0.
         11    1    3    3    0    0  0.13143949453E+03 -0.23050436054E+03  0.18921417524E+03  0.32589968558E+03  0.00000000000E+00 0.  1.
        -11    1    3    3    0    0  0.31633811748E+03 -0.31692823230E+03  0.32155624334E+03  0.55128189398E+03  0.00000000000E+00 0. -1.
         22    1    1    2    0    0 -0.44777761200E+03  0.54743259284E+03  0.69499843063E+03  0.99156948929E+03  0.00000000000E+00 0.  1.
<mgrwt>
<rscale>  0 0.14277087E+04</rscale>
<asrwt>0</asrwt>
<pdfrwt beam="1">  1        1 0.23650153E+00 0.14277087E+04</pdfrwt>
<pdfrwt beam="2">  1       -1 0.50998633E-01 0.14277087E+04</pdfrwt>
<totfact> 0.23179601E+01</totfact>
</mgrwt>
</event>
<event>
 6    1  0.8968082E-007  0.7562871E+03  0.7818608E-02  0.9625538E-01
          2   -1    0    0  501    0  0.00000000000E+00  0.00000000000E+00  0.18244300644E+03  0.18244300644E+03  0.00000000000E+00 0. -1.
         -2   -1    0    0    0  501 -0.00000000000E+00 -0.00000000000E+00 -0.78376549585E+03  0.78376549585E+03  0.00000000000E+00 0.  1.
         23    2    1    2    0    0  0.30339317776E+03 -0.20710645243E+03 -0.38277232835E+03  0.53876882719E+03  0.93897235596E+02 0.  0.
         11    1    3    3    0    0  0.65329896675E+02 -0.55892371371E+02 -0.39831227085E+02  0.94754837492E+02  0.00000000000E+00 0. -1.
        -11    1    3    3    0    0  0.23806328108E+03 -0.15121408106E+03 -0.34294110126E+03  0.44401398970E+03  0.00000000000E+00 0.  1.
         22    1    1    2    0    0 -0.30339317776E+03  0.20710645243E+03 -0.21855016106E+03  0.42743967510E+03  0.00000000000E+00 0. -1.
<mgrwt>
<rscale>  0 0.75628707E+03</rscale>
<asrwt>0</asrwt>
<pdfrwt beam="1">  1        2 0.28068155E-01 0.75628707E+03</pdfrwt>
<pdfrwt beam="2">  1       -2 0.12057931E+00 0.75628707E+03</pdfrwt>
<totfact> 0.10161680E+02</totfact>
</mgrwt>
</event>
<event>
 6    1  0.8968082E-007  0.1446155E+04  0.7818608E-02  0.8921070E-01
         -1   -1    0    0    0  501 -0.00000000000E+00  0.00000000000E+00  0.15970325032E+04  0.15970325032E+04  0.00000000000E+00 0.  1.
          1   -1    0    0  501    0  0.00000000000E+00 -0.00000000000E+00 -0.32738286717E+03  0.32738286717E+03  0.00000000000E+00 0. -1.
         23    2    1    2    0    0  0.23534849950E+03 -0.33567676855E+03  0.14249634904E+04  0.14860203402E+04  0.98324428531E+02 0.  0.
         11    1    3    3    0    0  0.16647391346E+03 -0.20548063212E+03  0.75254481885E+03  0.79765879825E+03  0.00000000000E+00 0.  1.
        -11    1    3    3    0    0  0.68874586034E+02 -0.13019613643E+03  0.67241867156E+03  0.68836154193E+03  0.00000000000E+00 0. -1.
         22    1    1    2    0    0 -0.23534849950E+03  0.33567676855E+03 -0.15531385436E+03  0.43839503021E+03  0.00000000000E+00 0. -1.
<mgrwt>
<rscale>  0 0.14461550E+04</rscale>
<asrwt>0</asrwt>
<pdfrwt beam="1">  1        1 0.50366596E-01 0.14461550E+04</pdfrwt>
<pdfrwt beam="2">  1       -1 0.24569730E+00 0.14461550E+04</pdfrwt>
<totfact> 0.56552844E+00</totfact>
</mgrwt>
</event>
<event>
 6    1  0.8968082E-007  0.4412253E+04  0.7818608E-02  0.7926181E-01
          2   -1    0    0  501    0  0.00000000000E+00  0.00000000000E+00  0.37582039218E+04  0.37582039218E+04  0.00000000000E+00 0. -1.
         -2   -1    0    0    0  501 -0.00000000000E+00 -0.00000000000E+00 -0.12950317048E+04  0.12950317048E+04  0.00000000000E+00 0.  1.
         23    2    1    2    0    0  0.77247370339E+03  0.43184792543E+03 -0.10811389288E+04  0.14001068646E+04  0.90717119820E+02 0.  0.
         11    1    3    3    0    0  0.11337415644E+03  0.99787199179E+02 -0.16526053419E+03  0.22387994244E+03  0.00000000000E+00 0. -1.
        -11    1    3    3    0    0  0.65909954695E+03  0.33206072626E+03 -0.91587839458E+03  0.11762269221E+04  0.00000000000E+00 0.  1.
         22    1    1    2    0    0 -0.77247370339E+03 -0.43184792543E+03  0.35443111458E+04  0.36531287619E+04  0.00000000000E+00 0. -1.
<mgrwt>
<rscale>  0 0.44122526E+04</rscale>
<asrwt>0</asrwt>
<pdfrwt beam="1">  1        2 0.57818521E+00 0.44122526E+04</pdfrwt>
<pdfrwt beam="2">  1       -2 0.19923565E+00 0.44122526E+04</pdfrwt>
<totfact> 0.54074474E-02</totfact>
</mgrwt>
</event>
<event>
 6    1  0.8968082E-007  0.1899195E+04  0.7818608E-02  0.8655257E-01
          2   -1    0    0  501    0  0.00000000000E+00  0.00000000000E+00  0.25488472847E+04  0.25488472847E+04  0.00000000000E+00 0. -1.
         -2   -1    0    0    0  501 -0.00000000000E+00 -0.00000000000E+00 -0.35378183253E+03  0.35378183253E+03  0.00000000000E+00 0.  1.
         23    2    1    2    0    0 -0.55568555747E+03  0.45328073523E+03  0.20466001445E+04  0.21703096437E+04  0.86150650010E+02 0.  0.
         13    1    3    3    0    0 -0.21819434763E+03  0.16166297843E+03  0.89742452986E+03  0.93761104874E+03  0.00000000000E+00 0.  1.
        -13    1    3    3    0    0 -0.33749120984E+03  0.29161775681E+03  0.11491756146E+04  0.12326985950E+04  0.00000000000E+00 0. -1.
         22    1    1    2    0    0  0.55568555747E+03 -0.45328073523E+03  0.14846530771E+03  0.73231947353E+03  0.00000000000E+00 0.  1.
<mgrwt>
<rscale>  0 0.18991955E+04</rscale>
<asrwt>0</asrwt>
<pdfrwt beam="1">  1        2 0.39213034E+00 0.18991955E+04</pdfrwt>
<pdfrwt beam="2">  1       -2 0.54427976E-01 0.18991955E+04</pdfrwt>
<totfact> 0.97129060E+00</totfact>
</mgrwt>
</event>
<event>
 6    1  0.8968082E-007  0.2619508E+04  0.7818608E-02  0.8361605E-01
         -2   -1    0    0    0  501 -0.00000000000E+00  0.00000000000E+00  0.71205269117E+03  0.71205269117E+03  0.00000000000E+00 0.  1.
          2   -1    0    0  501    0  0.00000000000E+00 -0.00000000000E+00 -0.24091696688E+04  0.24091696688E+04  0.00000000000E+00 0. -1.
         23    2    1    2    0    0 -0.74196167479E+02  0.87582118337E+03  0.30485603952E+03  0.93479518810E+03  0.91307296336E+02 0.  0.
         11    1    3    3    0    0 -0.55094505002E+02  0.44247433471E+03  0.10993021207E+03  0.45924241190E+03  0.00000000000E+00 0. -1.
        -11    1    3    3    0    0 -0.19101662478E+02  0.43334684865E+03  0.19492582745E+03  0.47555277620E+03  0.00000000000E+00 0.  1.
         22    1    1    2    0    0  0.74196167479E+02 -0.87582118337E+03 -0.20019730172E+04  0.21864271719E+04  0.00000000000E+00 0. -1.
<mgrwt>
<rscale>  0 0.26195082E+04</rscale>
<asrwt>0</asrwt>
<pdfrwt beam="1">  1        2 0.37064149E+00 0.26195082E+04</pdfrwt>
<pdfrwt beam="2">  1       -2 0.10954657E+00 0.26195082E+04</pdfrwt>
<totfact> 0.23014202E+00</totfact>
</mgrwt>
</event>
<event>
 6    1  0.8968082E-007  0.2833493E+04  0.7818608E-02  0.8292945E-01
          2   -1    0    0  501    0  0.00000000000E+00  0.00000000000E+00  0.16764310319E+04  0.16764310319E+04  0.00000000000E+00 0. -1.
         -2   -1    0    0    0  501 -0.00000000000E+00 -0.00000000000E+00 -0.11972883031E+04  0.11972883031E+04  0.00000000000E+00 0.  1.
         23    2    1    2    0    0 -0.53496979387E+03 -0.44815821292E+02 -0.10880038985E+04  0.12171718139E+04  0.97742534815E+02 0.  0.
         13    1    3    3    0    0 -0.31594511861E+03  0.17567863147E+02 -0.67668334344E+03  0.74701425360E+03  0.00000000000E+00 0. -1.
        -13    1    3    3    0    0 -0.21902467526E+03 -0.62383684439E+02 -0.41132055506E+03  0.47015756026E+03  0.00000000000E+00 0.  1.
         22    1    1    2    0    0  0.53496979387E+03  0.44815821292E+02  0.15671466274E+04  0.16565475212E+04  0.00000000000E+00 0. -1.
<mgrwt>
<rscale>  0 0.28334934E+04</rscale>
<asrwt>0</asrwt>
<pdfrwt beam="1">  1        2 0.25791247E+00 0.28334934E+04</pdfrwt>
<pdfrwt beam="2">  1       -2 0.18419820E+00 0.28334934E+04</pdfrwt>
<totfact> 0.14884943E+00</totfact>
</mgrwt>
</event>
<event>
 6    1  0.8968082E-007  0.1467880E+04  0.7818608E-02  0.8906098E-01
          1   -1    0    0  501    0  0.00000000000E+00  0.00000000000E+00  0.91627344345E+03  0.91627344345E+03  0.00000000000E+00 0. -1.
         -1   -1    0    0    0  501 -0.00000000000E+00 -0.00000000000E+00 -0.58788998941E+03  0.58788998941E+03  0.00000000000E+00 0.  1.
         23    2    1    2    0    0 -0.59705024037E+01  0.43060674453E+03 -0.44315955220E+03  0.62057052557E+03  0.57092671791E+02 0.  0.
         11    1    3    3    0    0  0.16408441914E+02  0.28817566056E+03 -0.32004975125E+03  0.43098293653E+03  0.00000000000E+00 0. -1.
        -11    1    3    3    0    0 -0.22378944317E+02  0.14243108397E+03 -0.12310980095E+03  0.18958758904E+03  0.00000000000E+00 0.  1.
         22    1    1    2    0    0  0.59705024037E+01 -0.43060674453E+03  0.77154300624E+03  0.88359290729E+03  0.00000000000E+00 0. -1.
<mgrwt>
<rscale>  0 0.14678801E+04</rscale>
<asrwt>0</asrwt>
<pdfrwt beam="1">  1        1 0.14096515E+00 0.14678801E+04</pdfrwt>
<pdfrwt beam="2">  1       -1 0.90444613E-01 0.14678801E+04</pdfrwt>
<totfact> 0.20456638E+01</totfact>
</mgrwt>
</event>
<event>
 6    1  0.8968082E-007  0.3187016E+04  0.7818608E-02  0.8192255E-01
          2   -1    0    0  501    0  0.00000000000E+00  0.00000000000E+00  0.19202432240E+04  0.19202432240E+04  0.00000000000E+00 0. -1.
         -2   -1    0    0    0  501 -0.00000000000E+00 -0.00000000000E+00 -0.13223677529E+04  0.13223677529E+04  0.00000000000E+00 0.  1.
         23    2    1    2    0    0 -0.13710378835E+04  0.78962893028E+03  0.48146793489E+03  0.16561654405E+04  0.88396088052E+02 0.  0.
         11    1    3    3    0    0 -0.11250386585E+04  0.68308931050E+03  0.41352253942E+03  0.13796100463E+04  0.00000000000E+00 0.  1.
        -11    1    3    3    0    0 -0.24599922504E+03  0.10653961978E+03  0.67945395473E+02  0.27655539421E+03  0.00000000000E+00 0. -1.
         22    1    1    2    0    0  0.13710378835E+04 -0.78962893028E+03  0.11640753614E+03  0.15864455364E+04  0.00000000000E+00 0.  1.
<mgrwt>
<rscale>  0 0.31870160E+04</rscale>
<asrwt>0</asrwt>
<pdfrwt beam="1">  1        2 0.29542204E+00 0.31870160E+04</pdfrwt>
<pdfrwt beam="2">  1       -2 0.20344119E+00 0.31870160E+04</pdfrwt>
<totfact> 0.78771136E-01</totfact>
</mgrwt>
</event>
<event>
 6    1  0.8968082E-007  0.1366414E+04  0.7818608E-02  0.8978495E-01
          2   -1    0    0  501    0  0.00000000000E+00  0.00000000000E+00  0.55404103109E+03  0.55404103109E+03  0.00000000000E+00 0. -1.
         -2   -1    0    0    0  501 -0.00000000000E+00 -0.00000000000E+00 -0.84248632984E+03  0.84248632984E+03  0.00000000000E+00 0.  1.
         23    2    1    2    0    0 -0.55422498349E+03 -0.20237440732E+03 -0.49069260274E+03  0.77280891079E+03  0.91288822691E+02 0.  0.
         13    1    3    3    0    0 -0.31199050963E+03 -0.10052305909E+03 -0.32819648278E+03  0.46384900002E+03  0.00000000000E+00 0. -1.
        -13    1    3    3    0    0 -0.24223447386E+03 -0.10185134823E+03 -0.16249611997E+03  0.30895991078E+03  0.00000000000E+00 0.  1.
         22    1    1    2    0    0  0.55422498349E+03  0.20237440732E+03  0.20224730400E+03  0.62371845014E+03  0.00000000000E+00 0. -1.
<mgrwt>
<rscale>  0 0.13664143E+04</rscale>
<asrwt>0</asrwt>
<pdfrwt beam="1">  1        2 0.85237081E-01 0.13664143E+04</pdfrwt>
<pdfrwt beam="2">  1       -2 0.12961328E+00 0.13664143E+04</pdfrwt>
<totfact> 0.23289278E+01</totfact>
</mgrwt>
</event>
<event>
 6    1  0.8968082E-007  0.1876597E+04  0.7818608E-02  0.8666594E-01
         -1   -1    0    0    0  501 -0.00000000000E+00  0.00000000000E+00  0.44662776513E+03  0.44662776513E+03  0.00000000000E+00 0.  1.
          1   -1    0    0  501    0  0.00000000000E+00 -0.00000000000E+00 -0.19712253154E+04  0.19712253154E+04  0.00000000000E+00 0. -1.
         23    2    1    2    0    0  0.49711583995E+03  0.15933618189E+03 -0.17659031370E+04  0.18427525994E+04  0.69361921046E+02 0.  0.
         11    1    3    3    0    0  0.68328613375E+02  0.47173985417E+02 -0.30464636178E+03  0.31575875293E+03  0.00000000000E+00 0. -1.
        -11    1    3    3    0    0  0.42878722658E+03  0.11216219648E+03 -0.14612567753E+04  0.15269938465E+04  0.00000000000E+00 0.  1.
         22    1    1    2    0    0 -0.49711583995E+03 -0.15933618189E+03  0.24130558675E+03  0.57510048112E+03  0.00000000000E+00 0.  1.
<mgrwt>
<rscale>  0 0.18765969E+04</rscale>
<asrwt>0</asrwt>
<pdfrwt beam="1">  1        1 0.30326543E+00 0.18765969E+04</pdfrwt>
<pdfrwt beam="2">  1       -1 0.68711964E-01 0.18765969E+04</pdfrwt>
<totfact> 0.62634567E+00</totfact>
</mgrwt>
</event>
<event>
 6    1  0.8968082E-007  0.2467966E+04  0.7818608E-02  0.8414488E-01
          2   -1    0    0  501    0  0.00000000000E+00  0.00000000000E+00  0.19703441647E+04  0.19703441647E+04  0.00000000000E+00 0. -1.
         -2   -1    0    0    0  501 -0.00000000000E+00 -0.00000000000E+00 -0.77281602626E+03  0.77281602626E+03  0.00000000000E+00 0.  1.
         23    2    1    2    0    0  0.11849627357E+04 -0.26557440429E+03  0.36687780017E+03  0.12718864456E+04  0.91811551263E+02 0.  0.
         11    1    3    3    0    0  0.11325159032E+03 -0.30858898767E+02  0.64185462680E+02  0.13378328731E+03  0.00000000000E+00 0. -1.
        -11    1    3    3    0    0  0.10717111454E+04 -0.23471550552E+03  0.30269233749E+03  0.11381031583E+04  0.00000000000E+00 0.  1.
         22    1    1    2    0    0 -0.11849627357E+04  0.26557440429E+03  0.83065033826E+03  0.14712737453E+04  0.00000000000E+00 0. -1.
<mgrwt>
<rscale>  0 0.24679656E+04</rscale>
<asrwt>0</asrwt>
<pdfrwt beam="1">  1        2 0.30312987E+00 0.24679656E+04</pdfrwt>
<pdfrwt beam="2">  1       -2 0.11889477E+00 0.24679656E+04</pdfrwt>
<totfact> 0.33720346E+00</totfact>
</mgrwt>
</event>
<event>
 6    1  0.8968082E-007  0.2593956E+04  0.7818608E-02  0.8370257E-01
         -2   -1    0    0    0  501 -0.00000000000E+00  0.00000000000E+00  0.87873683174E+03  0.87873683174E+03  0.00000000000E+00 0.  1.
          2   -1    0    0  501    0  0.00000000000E+00 -0.00000000000E+00 -0.19142845388E+04  0.19142845388E+04  0.00000000000E+00 0. -1.
         23    2    1    2    0    0 -0.53718503049E+03 -0.22527000134E+03 -0.17642396050E+04  0.18601193324E+04  0.90488764962E+02 0.  0.
         13    1    3    3    0    0 -0.34609539724E+03 -0.19094490857E+03 -0.11694944847E+04  0.12344874774E+04  0.00000000000E+00 0. -1.
        -13    1    3    3    0    0 -0.19108963325E+03 -0.34325092772E+02 -0.59474512026E+03  0.62563185501E+03  0.00000000000E+00 0.  1.
         22    1    1    2    0    0  0.53718503049E+03  0.22527000134E+03  0.72869189796E+03  0.93290203807E+03  0.00000000000E+00 0.  1.
<mgrwt>
<rscale>  0 0.25939563E+04</rscale>
<asrwt>0</asrwt>
<pdfrwt beam="1">  1        2 0.29450531E+00 0.25939563E+04</pdfrwt>
<pdfrwt beam="2">  1       -2 0.13519028E+00 0.25939563E+04</pdfrwt>
<totfact> 0.25940822E+00</totfact>
</mgrwt>
</event>
<event>
 6    1  0.8968082E-007  0.2943496E+04  0.7818608E-02  0.8260053E-01
          1   -1    0    0  501    0  0.00000000000E+00  0.00000000000E+00  0.13806017386E+04  0.13806017386E+04  0.00000000000E+00 0. -1.
         -1   -1    0    0    0  501 -0.00000000000E+00 -0.00000000000E+00 -0.15689111615E+04  0.15689111615E+04  0.00000000000E+00 0.  1.
         23    2    1    2    0    0  0.79451100144E+03  0.99868281246E+03 -0.82604987285E+03  0.15228636885E+04  0.90223777958E+02 0.  0.
         13    1    3    3    0    0  0.22840030094E+03  0.24980457638E+03 -0.25806702622E+03  0.42563789055E+03  0.00000000000E+00 0.  1.
        -13    1    3    3    0    0  0.56611070050E+03  0.74887823609E+03 -0.56798284662E+03  0.10972257980E+04  0.00000000000E+00 0. -1.
         22    1    1    2    0    0 -0.79451100144E+03 -0.99868281246E+03  0.63774044991E+03  0.14266492115E+04  0.00000000000E+00 0. -1.
<mgrwt>
<rscale>  0 0.29434955E+04</rscale>
<asrwt>0</asrwt>
<pdfrwt beam="1">  1        1 0.21240027E+00 0.29434955E+04</pdfrwt>
<pdfrwt beam="2">  1       -1 0.24137095E+00 0.29434955E+04</pdfrwt>
<totfact> 0.53840686E-01</totfact>
</mgrwt>
</event>
<event>
 6    1  0.8968082E-007  0.4969113E+03  0.7818608E-02  0.1014588E+00
          1   -1    0    0  501    0  0.00000000000E+00  0.00000000000E+00  0.65711502652E+03  0.65711502652E+03  0.00000000000E+00 0. -1.
         -1   -1    0    0    0  501 -0.00000000000E+00 -0.00000000000E+00 -0.93941251897E+02  0.93941251897E+02  0.00000000000E+00 0.  1.
         23    2    1    2    0    0  0.41072932961E+02 -0.12107563475E+03 -0.14873340275E+02  0.15903874304E+03  0.93412046252E+02 0.  0.
         11    1    3    3    0    0  0.14784691796E+02 -0.14443958853E+02  0.33236328341E+02  0.39139092740E+02  0.00000000000E+00 0. -1.
        -11    1    3    3    0    0  0.26288241164E+02 -0.10663167590E+03 -0.48109668616E+02  0.11989965030E+03  0.00000000000E+00 0.  1.
         22    1    1    2    0    0 -0.41072932961E+02  0.12107563475E+03  0.57804711489E+03  0.59201753537E+03  0.00000000000E+00 0. -1.
<mgrwt>
<rscale>  0 0.49691129E+03</rscale>
<asrwt>0</asrwt>
<pdfrwt beam="1">  1        1 0.10109462E+00 0.49691129E+03</pdfrwt>
<pdfrwt beam="2">  1       -1 0.14452501E-01 0.49691129E+03</pdfrwt>
<totfact> 0.10536865E+03</totfact>
</mgrwt>
</event>
<event>
 6    1  0.8968082E-007  0.2769233E+04  0.7818608E-02  0.8312884E-01
         -2   -1    0    0    0  501 -0.00000000000E+00  0.00000000000E+00  0.11715932959E+04  0.11715932959E+04  0.00000000000E+00 0.  1.
          2   -1    0    0  501    0  0.00000000000E+00 -0.00000000000E+00 -0.16363720902E+04  0.16363720902E+04  0.00000000000E+00 0. -1.
         23    2    1    2    0    0 -0.46708003534E+03  0.50843322054E+03  0.98131962497E+03  0.12055082923E+04  0.11659304117E+03 0.  0.
         13    1    3    3    0    0 -0.24008117083E+03  0.27350833460E+03  0.41718944512E+03  0.55361792854E+03  0.00000000000E+00 0. -1.
        -13    1    3    3    0    0 -0.22699886452E+03  0.23492488594E+03  0.56413017985E+03  0.65189036375E+03  0.00000000000E+00 0.  1.
         22    1    1    2    0    0  0.46708003534E+03 -0.50843322054E+03 -0.14460984193E+04  0.16024570938E+04  0.00000000000E+00 0. -1.
<mgrwt>
<rscale>  0 0.27692328E+04</rscale>
<asrwt>0</asrwt>
<pdfrwt beam="1">  1        2 0.25174955E+00 0.27692328E+04</pdfrwt>
<pdfrwt beam="2">  1       -2 0.18024512E+00 0.27692328E+04</pdfrwt>
<totfact> 0.16770043E+00</totfact>
</mgrwt>
</event>
<event>
 6    1  0.8968082E-007  0.1344465E+04  0.7818608E-02  0.8995029E-01
         -1   -1    0    0    0  501 -0.00000000000E+00  0.00000000000E+00  0.51586719161E+03  0.51586719161E+03  0.00000000000E+00 0.  1.
          1   -1    0    0  501    0  0.00000000000E+00 -0.00000000000E+00 -0.87599393989E+03  0.87599393989E+03  0.00000000000E+00 0. -1.
         23    2    1    2    0    0 -0.26183256913E+03  0.23128558833E+03  0.41021707922E+03  0.54600125528E+03  0.88260982650E+02 0.  0.
         13    1    3    3    0    0 -0.22655393881E+03  0.20667088546E+03  0.30581724521E+03  0.43308628419E+03  0.00000000000E+00 0. -1.
        -13    1    3    3    0    0 -0.35278630317E+02  0.24614702873E+02  0.10439983401E+03  0.11291497109E+03  0.00000000000E+00 0.  1.
         22    1    1    2    0    0  0.26183256913E+03 -0.23128558833E+03 -0.77034382750E+03  0.84585987621E+03  0.00000000000E+00 0. -1.
<mgrwt>
<rscale>  0 0.13444650E+04</rscale>
<asrwt>0</asrwt>
<pdfrwt beam="1">  1        1 0.13476830E+00 0.13444650E+04</pdfrwt>
<pdfrwt beam="2">  1       -1 0.79364184E-01 0.13444650E+04</pdfrwt>
<totfact> 0.29604094E+01</totfact>
</mgrwt>
</event>
<event>
 6    1  0.8968082E-007  0.2823365E+04  0.7818608E-02  0.8296051E-01
          1   -1    0    0  501    0  0.00000000000E+00  0.00000000000E+00  0.20073265762E+04  0.20073265762E+04  0.00000000000E+00 0. -1.
         -1   -1    0    0    0  501 -0.00000000000E+00 -0.00000000000E+00 -0.99278714632E+03  0.99278714632E+03  0.00000000000E+00 0.  1.
         23    2    1    2    0    0  0.94574476342E+03 -0.55223183137E+03 -0.43646291817E+03  0.11822025676E+04  0.87805915626E+02 0.  0.
         13    1    3    3    0    0  0.57362963126E+03 -0.38371063678E+03 -0.26859038558E+03  0.74055762899E+03  0.00000000000E+00 0.  1.
        -13    1    3    3    0    0  0.37211513216E+03 -0.16852119459E+03 -0.16787253259E+03  0.44164493862E+03  0.00000000000E+00 0. -1.
         22    1    1    2    0    0 -0.94574476342E+03  0.55223183137E+03  0.14510023481E+04  0.18179111549E+04  0.00000000000E+00 0. -1.
<mgrwt>
<rscale>  0 0.28233654E+04</rscale>
<asrwt>0</asrwt>
<pdfrwt beam="1">  1        1 0.30881947E+00 0.28233654E+04</pdfrwt>
<pdfrwt beam="2">  1       -1 0.15273648E+00 0.28233654E+04</pdfrwt>
<totfact> 0.84553519E-01</totfact>
</mgrwt>
</event>
<event>
 6    1  0.8968082E-007  0.3172174E+04  0.7818608E-02  0.8196205E-01
          1   -1    0    0  501    0  0.00000000000E+00  0.00000000000E+00  0.21058778523E+04  0.21058778523E+04  0.00000000000E+00 0. -1.
         -1   -1    0    0    0  501 -0.00000000000E+00 -0.00000000000E+00 -0.11945957546E+04  0.11945957546E+04  0.00000000000E+00 0.  1.
         23    2    1    2    0    0 -0.51282405846E+03  0.24559456237E+03  0.19948342488E+04  0.20767945361E+04  0.10201304402E+03 0.  0.
         11    1    3    3    0    0 -0.31897610712E+03  0.13697061952E+03  0.10384713301E+04  0.10949563511E+04  0.00000000000E+00 0. -1.
        -11    1    3    3    0    0 -0.19384795133E+03  0.10862394284E+03  0.95636291872E+03  0.98183818499E+03  0.00000000000E+00 0.  1.
         22    1    1    2    0    0  0.51282405846E+03 -0.24559456237E+03 -0.10835521512E+04  0.12236790708E+04  0.00000000000E+00 0.  1.
<mgrwt>
<rscale>  0 0.31721745E+04</rscale>
<asrwt>0</asrwt>
<pdfrwt beam="1">  1        1 0.32398121E+00 0.31721745E+04</pdfrwt>
<pdfrwt beam="2">  1       -1 0.18378396E+00 0.31721745E+04</pdfrwt>
<totfact> 0.41405421E-01</totfact>
</mgrwt>
</event>
<event>
 6    1  0.8968082E-007  0.4116794E+04  0.7818608E-02  0.7981391E-01
          2   -1    0    0  501    0  0.00000000000E+00  0.00000000000E+00  0.20816646590E+04  0.20816646590E+04  0.00000000000E+00 0. -1.
         -2   -1    0    0    0  501 -0.00000000000E+00 -0.00000000000E+00 -0.20353896278E+04  0.20353896278E+04  0.00000000000E+00 0.  1.
         23    2    1    2    0    0 -0.40135226370E+03  0.17404698095E+04  0.10441261509E+04  0.20710763655E+04  0.94016461897E+02 0.  0.
         13    1    3    3    0    0 -0.21865255926E+03  0.11086970930E+04  0.69168292014E+03  0.13249314879E+04  0.00000000000E+00 0. -1.
        -13    1    3    3    0    0 -0.18269970444E+03  0.63177271653E+03  0.35244323078E+03  0.74614487754E+03  0.00000000000E+00 0.  1.
         22    1    1    2    0    0  0.40135226370E+03 -0.17404698095E+04 -0.99785111971E+03  0.20459779213E+04  0.00000000000E+00 0.  1.
<mgrwt>
<rscale>  0 0.41167942E+04</rscale>
<asrwt>0</asrwt>
<pdfrwt beam="1">  1        2 0.32025610E+00 0.41167942E+04</pdfrwt>
<pdfrwt beam="2">  1       -2 0.31313687E+00 0.41167942E+04</pdfrwt>
<totfact> 0.12409974E-01</totfact>
</mgrwt>
</event>
<event>
 6    1  0.8968082E-007  0.2036747E+04  0.7818608E-02  0.8589630E-01
         -1   -1    0    0    0  501 -0.00000000000E+00  0.00000000000E+00  0.76905399625E+03  0.76905399625E+03  0.00000000000E+00 0.  1.
          1   -1    0    0  501    0  0.00000000000E+00 -0.00000000000E+00 -0.13485200547E+04  0.13485200547E+04  0.00000000000E+00 0. -1.
         23    2    1    2    0    0  0.93943040131E+03 -0.32009956820E+03 -0.62447259732E+02  0.99851120612E+03  0.90176249833E+02 0.  0.
         13    1    3    3    0    0  0.41470973347E+03 -0.15641737117E+03  0.14669326355E+02  0.44347011869E+03  0.00000000000E+00 0. -1.
        -13    1    3    3    0    0  0.52472066784E+03 -0.16368219704E+03 -0.77116586087E+02  0.55504108743E+03  0.00000000000E+00 0.  1.
         22    1    1    2    0    0 -0.93943040131E+03  0.32009956820E+03 -0.51701879872E+03  0.11190628448E+04  0.00000000000E+00 0. -1.
<mgrwt>
<rscale>  0 0.20367471E+04</rscale>
<asrwt>0</asrwt>
<pdfrwt beam="1">  1        1 0.20746462E+00 0.20367471E+04</pdfrwt>
<pdfrwt beam="2">  1       -1 0.11831600E+00 0.20367471E+04</pdfrwt>
<totfact> 0.49507655E+00</totfact>
</mgrwt>
</event>
<event>
 6    1  0.8968082E-007  0.2276867E+04  0.7818608E-02  0.8487098E-01
          1   -1    0    0  501    0  0.00000000000E+00  0.00000000000E+00  0.73439601298E+03  0.73439601298E+03  0.00000000000E+00 0. -1.
         -1   -1    0    0    0  501 -0.00000000000E+00 -0.00000000000E+00 -0.17647575125E+04  0.17647575125E+04  0.00000000000E+00 0.  1.
         23    2    1    2    0    0  0.41334421743E+01  0.13661654827E+03 -0.17545219368E+04  0.17622074586E+04  0.91360460756E+02 0.  0.
         13    1    3    3    0    0  0.15624455167E+02  0.68610129170E+02 -0.13511872790E+04  0.13530183060E+04  0.00000000000E+00 0. -1.
        -13    1    3    3    0    0 -0.11491012993E+02  0.68006419101E+02 -0.40333465778E+03  0.40918915257E+03  0.00000000000E+00 0.  1.
         22    1    1    2    0    0 -0.41334421743E+01 -0.13661654827E+03  0.72416043727E+03  0.73694606690E+03  0.00000000000E+00 0. -1.
<mgrwt>
<rscale>  0 0.22768670E+04</rscale>
<asrwt>0</asrwt>
<pdfrwt beam="1">  1        1 0.11298400E+00 0.22768670E+04</pdfrwt>
<pdfrwt beam="2">  1       -1 0.27150115E+00 0.22768670E+04</pdfrwt>
<totfact> 0.11581039E+00</totfact>
</mgrwt>
</event>
<event>
 6    1  0.8968082E-007  0.2470297E+04  0.7818608E-02  0.8413644E-01
         -2   -1    0    0    0  501 -0.00000000000E+00  0.00000000000E+00  0.60863779218E+03  0.60863779218E+03  0.00000000000E+00 0.  1.
          2   -1    0    0  501    0  0.00000000000E+00 -0.00000000000E+00 -0.25065676285E+04  0.25065676285E+04  0.00000000000E+00 0. -1.
         23    2    1    2    0    0  0.72632640301E+02  0.46254442524E+03  0.48887934051E+03  0.68290591355E+03  0.90192191586E+02 0.  0.
         13    1    3    3    0    0  0.71802095525E+02  0.39951487995E+03  0.37438463182E+03  0.55220606006E+03  0.00000000000E+00 0.  1.
        -13    1    3    3    0    0  0.83054477620E+00  0.63029545290E+02  0.11449470868E+03  0.13069985348E+03  0.00000000000E+00 0. -1.
         22    1    1    2    0    0 -0.72632640301E+02 -0.46254442524E+03 -0.23868091769E+04  0.24322995071E+04  0.00000000000E+00 0. -1.
<mgrwt>
<rscale>  0 0.24702970E+04</rscale>
<asrwt>0</asrwt>
<pdfrwt beam="1">  1        2 0.38562579E+00 0.24702970E+04</pdfrwt>
<pdfrwt beam="2">  1       -2 0.93636583E-01 0.24702970E+04</pdfrwt>
<totfact> 0.29736238E+00</totfact>
</mgrwt>
</event>
